
     Program PWSCF v.7.2 starts on 17Nov2025 at 22:54:59 

     This program is part of the open-source Quantum ESPRESSO suite
     for quantum simulation of materials; please cite
         "P. Giannozzi et al., J. Phys.:Condens. Matter 21 395502 (2009);
         "P. Giannozzi et al., J. Phys.:Condens. Matter 29 465901 (2017);
         "P. Giannozzi et al., J. Chem. Phys. 152 154105 (2020);
          URL http://www.quantum-espresso.org", 
     in publications or presentations arising from this work. More details at
     http://www.quantum-espresso.org/quote

     Parallel version (MPI), running on    64 processors

     MPI processes distributed on     4 nodes
     465879 MiB available memory on the printing compute node when the environment starts
 
     Reading input from PWINPUT_atm157_zp

     Current dimensions of program PWSCF are:
     Max number of different atomic species (ntypx) = 10
     Max number of k-points (npk) =  40000
     Max angular momentum in pseudopotentials (lmaxx) =  4
     Presently no symmetry can be used with electric field

     file Ni.pbe-n-rrkjus_psl.1.0.0.UPF: wavefunction(s)  3D renormalized
     file Mn.pbe-spn-rrkjus_psl.0.3.1.UPF: wavefunction(s)  3D renormalized
     file O.pbe-rrkjus.UPF: wavefunction(s)  2S renormalized
     file H.pbe-rrkjus.UPF: wavefunction(s)  1S renormalized

     gamma-point specific algorithms are used
 
     R & G space division:  proc/nbgrp/npool/nimage =      64
     Subspace diagonalization in iterative solution of the eigenvalue problem:
     one sub-group per band group will be used
     custom distributed-memory algorithm (size of sub-group:  7*  7 procs)

 
     Parallelization info
     --------------------
     sticks:   dense  smooth     PW     G-vecs:    dense   smooth      PW
     Min         214      85     20                61830    15614    1928
     Max         216      86     22                61864    15658    1982
     Sum       13727    5503   1375              3958051  1001255  125211
 
     Using Slab Decomposition
 


     bravais-lattice index     =            0
     lattice parameter (alat)  =      17.8532  a.u.
     unit-cell volume          =   20962.6682 (a.u.)^3
     number of atoms/cell      =          158
     number of atomic types    =            5
     number of electrons       =      1108.00
     number of Kohn-Sham states=          665
     kinetic-energy cutoff     =      50.0000  Ry
     charge density cutoff     =     500.0000  Ry
     scf convergence threshold =      1.0E-06
     mixing beta               =       0.1000
     number of iterations used =            8  local-TF  mixing
     Exchange-correlation=  SLA  PW   PBE  PBE
                           (   1   4   3   4   0   0   0)

     celldm(1)=  17.853155  celldm(2)=   0.000000  celldm(3)=   0.000000
     celldm(4)=   0.000000  celldm(5)=   0.000000  celldm(6)=   0.000000

     crystal axes: (cart. coord. in units of alat)
               a(1) = (   1.000000   0.000000   0.000000 )  
               a(2) = (   0.003237   1.081997   0.000000 )  
               a(3) = (   0.000000   0.000000   3.404673 )  

     reciprocal axes: (cart. coord. in units 2 pi/alat)
               b(1) = (  1.000000 -0.002992  0.000000 )  
               b(2) = (  0.000000  0.924217  0.000000 )  
               b(3) = (  0.000000  0.000000  0.293714 )  


     PseudoPot. # 1 for Ni read from file:
     ~/PSEUDO/Ni.pbe-n-rrkjus_psl.1.0.0.UPF
     MD5 check sum: Not computed, couldn't open file
     Pseudo is Ultrasoft + core correction, Zval = 10.0
     Generated using "atomic" code by A. Dal Corso  v.5.1.2
     Using radial grid of 1195 points,  6 beta functions with: 
                l(1) =   0
                l(2) =   0
                l(3) =   1
                l(4) =   1
                l(5) =   2
                l(6) =   2
     Q(r) pseudized with 0 coefficients 


     PseudoPot. # 2 for Mn read from file:
     ~/PSEUDO/Mn.pbe-spn-rrkjus_psl.0.3.1.UPF
     MD5 check sum: Not computed, couldn't open file
     Pseudo is Ultrasoft + core correction, Zval = 15.0
     Generated using &quot;atomic&quot; code by A. Dal Corso  v.6.2.2
     Using radial grid of 1187 points,  6 beta functions with: 
                l(1) =   0
                l(2) =   0
                l(3) =   1
                l(4) =   1
                l(5) =   2
                l(6) =   2
     Q(r) pseudized with 0 coefficients 


     PseudoPot. # 3 for P  read from file:
     ~/PSEUDO/P.pbe-n-rrkjus_psl.1.0.0.UPF
     MD5 check sum: Not computed, couldn't open file
     Pseudo is Ultrasoft + core correction, Zval =  5.0
     Generated using "atomic" code by A. Dal Corso  v.5.1
     Using radial grid of 1147 points,  6 beta functions with: 
                l(1) =   0
                l(2) =   0
                l(3) =   1
                l(4) =   1
                l(5) =   2
                l(6) =   2
     Q(r) pseudized with 0 coefficients 


     PseudoPot. # 4 for O  read from file:
     ~/PSEUDO/O.pbe-rrkjus.UPF
     MD5 check sum: Not computed, couldn't open file
     Pseudo is Ultrasoft, Zval =  6.0
     Generated by new atomic code, or converted to UPF format
     Using radial grid of 1269 points,  4 beta functions with: 
                l(1) =   0
                l(2) =   0
                l(3) =   1
                l(4) =   1
     Q(r) pseudized with 0 coefficients 


     PseudoPot. # 5 for H  read from file:
     ~/PSEUDO/H.pbe-rrkjus.UPF
     MD5 check sum: Not computed, couldn't open file
     Pseudo is Ultrasoft, Zval =  1.0
     Generated by new atomic code, or converted to UPF format
     Using radial grid of 1061 points,  2 beta functions with: 
                l(1) =   0
                l(2) =   0
     Q(r) pseudized with 0 coefficients 


     atomic species   valence    mass     pseudopotential
     Ni               10.00    58.69300     Ni( 1.00)
     Mn               15.00    54.93800     Mn( 1.00)
     P                 5.00    30.97300     P ( 1.00)
     O                 6.00    15.99900     O ( 1.00)
     H                 1.00     1.00790     H ( 1.00)

     Starting magnetic structure 
     atomic species   magnetization
     Ni              1.000
     Mn              1.000
     P               1.000
     O               1.000
     H               0.000

     No symmetry found



   Cartesian axes

     site n.     atom                  positions (alat units)
         1        Ni     tau(   1) = (   0.2518260   0.8295784   1.6794106  )
         2        Ni     tau(   2) = (   0.4927480   0.7713237   1.3753272  )
         3        Mn     tau(   3) = (  -0.0019104   0.2893041   1.7111611  )
         4        Ni     tau(   4) = (   0.2570296   0.2258471   1.3782297  )
         5        Ni     tau(   5) = (   0.9983333   1.0731578   1.5373129  )
         6        Ni     tau(   6) = (   0.2535858   0.5283692   1.5435542  )
         7        Ni     tau(   7) = (   0.7527859   0.8301859   1.6808772  )
         8        Mn     tau(   8) = (   0.9889930   0.7674276   1.3721895  )
         9        Mn     tau(   9) = (   0.5003935   0.2926237   1.7029517  )
        10        Ni     tau(  10) = (   0.7577903   0.2268632   1.3799398  )
        11        Ni     tau(  11) = (   0.4980054   1.0712871   1.5393278  )
        12        Ni     tau(  12) = (   0.7539105   0.5321788   1.5382577  )
        13        P      tau(  13) = (   0.2118656   0.9693900   1.3793414  )
        14        P      tau(  14) = (   0.4660278   0.6478965   1.6959065  )
        15        P      tau(  15) = (   0.2832051   0.0929046   1.6945962  )
        16        P      tau(  16) = (   0.0418193   0.4207457   1.3872791  )
        17        O      tau(  17) = (   0.1336657   0.9013866   1.5145591  )
        18        O      tau(  18) = (   0.3860059   0.7008468   1.5503267  )
        19        O      tau(  19) = (   0.3599779   0.1579283   1.5547376  )
        20        O      tau(  20) = (   0.1188180   0.3521237   1.5214666  )
        21        O      tau(  21) = (   0.1529170   0.8803112   1.2547888  )
        22        O      tau(  22) = (   0.4066564   0.7467891   1.8079626  )
        23        O      tau(  23) = (   0.3410378   0.1858743   1.8146268  )
        24        O      tau(  24) = (   0.1011967   0.3326204   1.2622753  )
        25        O      tau(  25) = (   0.0991588   0.5750199   1.3866315  )
        26        O      tau(  26) = (   0.3434848   1.0201382   1.6942680  )
        27        O      tau(  27) = (   0.3789457   0.4154633   1.3977404  )
        28        O      tau(  28) = (   0.1193596   0.0996523   1.6839051  )
        29        O      tau(  29) = (   0.1276068   0.6477554   1.6810586  )
        30        O      tau(  30) = (   0.4128914   0.4905501   1.7021188  )
        31        O      tau(  31) = (   0.1478328   0.0409865   1.3813227  )
        32        O      tau(  32) = (   0.3745804   0.9617408   1.3915397  )
        33        P      tau(  33) = (   0.7074954   0.9695156   1.3792001  )
        34        P      tau(  34) = (   0.9643217   0.6427850   1.6992735  )
        35        P      tau(  35) = (   0.7838284   0.0944368   1.7001908  )
        36        P      tau(  36) = (   0.5416777   0.4260543   1.3855657  )
        37        O      tau(  37) = (   0.6306840   0.8974445   1.5137782  )
        38        O      tau(  38) = (   0.8854609   0.7040046   1.5561567  )
        39        O      tau(  39) = (   0.8648068   0.1680159   1.5645156  )
        40        O      tau(  40) = (   0.6206025   0.3577624   1.5198754  )
        41        O      tau(  41) = (   0.6483131   0.8811005   1.2540249  )
        42        O      tau(  42) = (   0.9040880   0.7389950   1.8133540  )
        43        O      tau(  43) = (   0.8397112   0.1841216   1.8224656  )
        44        O      tau(  44) = (   0.6014551   0.3360063   1.2621344  )
        45        O      tau(  45) = (   0.5989499   0.5805885   1.3836427  )
        46        O      tau(  46) = (   0.8435274   1.0213000   1.6914443  )
        47        O      tau(  47) = (   0.8784703   0.4145143   1.3944208  )
        48        O      tau(  48) = (   0.6206951   0.1010299   1.6851757  )
        49        O      tau(  49) = (   0.6298363   0.6504103   1.6806734  )
        50        O      tau(  50) = (   0.9052265   0.4866691   1.6920526  )
        51        O      tau(  51) = (   0.6468562   0.0420961   1.3852950  )
        52        O      tau(  52) = (   0.8702125   0.9631440   1.3913059  )
        53        Ni     tau(  53) = (   0.2420320   0.8169913   1.0699082  )
        54        Ni     tau(  54) = (   0.4893084   0.7542727   0.7477128  )
        55        Mn     tau(  55) = (   0.0085152   0.2729728   1.0755565  )
        56        Ni     tau(  56) = (   0.2558246   0.2079345   0.7498450  )
        57        Ni     tau(  57) = (   0.9991959   1.0516583   0.9080455  )
        58        Ni     tau(  58) = (   0.2490231   0.5149840   0.9092594  )
        59        Ni     tau(  59) = (   0.7373131   0.8159965   1.0690453  )
        60        Mn     tau(  60) = (   0.9859093   0.7511625   0.7423903  )
        61        Mn     tau(  61) = (   0.5085552   0.2755447   1.0757185  )
        62        Ni     tau(  62) = (   0.7532989   0.2074622   0.7493279  )
        63        Ni     tau(  63) = (   0.4981517   1.0523018   0.9093468  )
        64        Ni     tau(  64) = (   0.7469109   0.5147379   0.9081681  )
        65        P      tau(  65) = (   0.2119924   0.9497675   0.7533413  )
        66        P      tau(  66) = (   0.4579509   0.6252695   1.0650744  )
        67        P      tau(  67) = (   0.2855349   0.0724244   1.0650326  )
        68        P      tau(  68) = (   0.0381112   0.4032615   0.7561117  )
        69        O      tau(  69) = (   0.1352995   0.8818598   0.8892857  )
        70        O      tau(  70) = (   0.3789570   0.6924463   0.9291468  )
        71        O      tau(  71) = (   0.3610496   0.1419327   0.9291660  )
        72        O      tau(  72) = (   0.1179700   0.3356534   0.8894858  )
        73        O      tau(  73) = (   0.1524325   0.8608343   0.6290918  )
        74        O      tau(  74) = (   0.3994952   0.7128748   1.1905493  )
        75        O      tau(  75) = (   0.3426976   0.1634744   1.1889742  )
        76        O      tau(  76) = (   0.0989151   0.3155758   0.6321220  )
        77        O      tau(  77) = (   0.0942206   0.5581494   0.7569623  )
        78        O      tau(  78) = (   0.3506297   1.0014456   1.0645371  )
        79        O      tau(  79) = (   0.3750155   0.3983181   0.7655049  )
        80        O      tau(  80) = (   0.1228303   0.0764842   1.0543924  )
        81        O      tau(  81) = (   0.1204299   0.6293201   1.0530905  )
        82        O      tau(  82) = (   0.4000664   0.4708612   1.0626359  )
        83        O      tau(  83) = (   0.1483182   0.0216333   0.7546099  )
        84        O      tau(  84) = (   0.3748687   0.9435072   0.7627918  )
        85        P      tau(  85) = (   0.7056901   0.9492898   0.7521526  )
        86        P      tau(  86) = (   0.9575286   0.6220438   1.0623609  )
        87        P      tau(  87) = (   0.7847866   0.0710549   1.0641979  )
        88        P      tau(  88) = (   0.5377283   0.4083400   0.7551622  )
        89        O      tau(  89) = (   0.6295714   0.8788409   0.8879407  )
        90        O      tau(  90) = (   0.8781778   0.6902700   0.9288966  )
        91        O      tau(  91) = (   0.8603186   0.1398018   0.9279591  )
        92        O      tau(  92) = (   0.6174712   0.3389159   0.8881839  )
        93        O      tau(  93) = (   0.6471291   0.8583376   0.6285166  )
        94        O      tau(  94) = (   0.8962302   0.7094244   1.1861651  )
        95        O      tau(  95) = (   0.8420493   0.1616933   1.1885419  )
        96        O      tau(  96) = (   0.5995227   0.3203391   0.6315608  )
        97        O      tau(  97) = (   0.5932354   0.5636910   0.7569738  )
        98        O      tau(  98) = (   0.8487155   0.9994995   1.0634446  )
        99        O      tau(  99) = (   0.8751772   0.3959680   0.7655094  )
       100        O      tau( 100) = (   0.6223291   0.0767949   1.0539182  )
       101        O      tau( 101) = (   0.6209785   0.6292365   1.0537708  )
       102        O      tau( 102) = (   0.9010178   0.4674118   1.0608723  )
       103        O      tau( 103) = (   0.6430869   0.0213354   0.7538098  )
       104        O      tau( 104) = (   0.8684566   0.9446034   0.7630440  )
       105        Ni     tau( 105) = (   0.2392451   0.7980692   0.4424501  )
       106        Ni     tau( 106) = (   0.4865215   0.7353506   0.1202547  )
       107        Mn     tau( 107) = (   0.0057284   0.2540508   0.4480984  )
       108        Ni     tau( 108) = (   0.2530377   0.1890124   0.1223869  )
       109        Ni     tau( 109) = (   0.9964090   1.0327362   0.2805874  )
       110        Ni     tau( 110) = (   0.2462362   0.4960619   0.2818013  )
       111        Ni     tau( 111) = (   0.7345262   0.7970744   0.4415872  )
       112        Mn     tau( 112) = (   0.9831224   0.7322404   0.1149322  )
       113        Mn     tau( 113) = (   0.5057684   0.2566226   0.4482604  )
       114        Ni     tau( 114) = (   0.7505120   0.1885401   0.1218698  )
       115        Ni     tau( 115) = (   0.4953648   1.0333797   0.2818887  )
       116        Ni     tau( 116) = (   0.7441241   0.4958159   0.2807100  )
       117        P      tau( 117) = (   0.2092055   0.9308455   0.1258832  )
       118        P      tau( 118) = (   0.4551640   0.6063475   0.4376163  )
       119        P      tau( 119) = (   0.2827481   0.0535023   0.4375745  )
       120        P      tau( 120) = (   0.0353243   0.3843395   0.1286536  )
       121        O      tau( 121) = (   0.1325127   0.8629378   0.2618276  )
       122        O      tau( 122) = (   0.3761702   0.6735242   0.3016887  )
       123        O      tau( 123) = (   0.3582627   0.1230106   0.3017079  )
       124        O      tau( 124) = (   0.1151831   0.3167313   0.2620277  )
       125        O      tau( 125) = (   0.1496456   0.8419122   0.0016337  )
       126        O      tau( 126) = (   0.3967083   0.6939527   0.5630912  )
       127        O      tau( 127) = (   0.3399107   0.1445523   0.5615161  )
       128        O      tau( 128) = (   0.0961282   0.2966537   0.0046639  )
       129        O      tau( 129) = (   0.0914337   0.5392273   0.1295042  )
       130        O      tau( 130) = (   0.3478428   0.9825235   0.4370790  )
       131        O      tau( 131) = (   0.3722287   0.3793961   0.1380469  )
       132        O      tau( 132) = (   0.1200434   0.0575621   0.4269343  )
       133        O      tau( 133) = (   0.1176431   0.6103980   0.4256324  )
       134        O      tau( 134) = (   0.3972796   0.4519391   0.4351778  )
       135        O      tau( 135) = (   0.1455313   0.0027113   0.1271518  )
       136        O      tau( 136) = (   0.3720819   0.9245852   0.1353338  )
       137        P      tau( 137) = (   0.7029032   0.9303678   0.1246945  )
       138        P      tau( 138) = (   0.9547417   0.6031217   0.4349028  )
       139        P      tau( 139) = (   0.7819997   0.0521328   0.4367398  )
       140        P      tau( 140) = (   0.5349415   0.3894179   0.1277041  )
       141        O      tau( 141) = (   0.6267846   0.8599188   0.2604826  )
       142        O      tau( 142) = (   0.8753909   0.6713480   0.3014385  )
       143        O      tau( 143) = (   0.8575317   0.1208797   0.3005010  )
       144        O      tau( 144) = (   0.6146843   0.3199938   0.2607258  )
       145        O      tau( 145) = (   0.6443422   0.8394155   0.0010585  )
       146        O      tau( 146) = (   0.8934434   0.6905023   0.5587070  )
       147        O      tau( 147) = (   0.8392624   0.1427713   0.5610838  )
       148        O      tau( 148) = (   0.5967359   0.3014171   0.0041027  )
       149        O      tau( 149) = (   0.5904485   0.5447689   0.1295157  )
       150        O      tau( 150) = (   0.8459286   0.9805774   0.4359865  )
       151        O      tau( 151) = (   0.8723903   0.3770459   0.1380513  )
       152        O      tau( 152) = (   0.6195422   0.0578729   0.4264602  )
       153        O      tau( 153) = (   0.6181917   0.6103144   0.4263127  )
       154        O      tau( 154) = (   0.8982309   0.4484897   0.4334142  )
       155        O      tau( 155) = (   0.6403000   0.0024133   0.1263517  )
       156        O      tau( 156) = (   0.8656697   0.9256814   0.1355859  )
       157        O      tau( 157) = (   0.1071329   0.3592488   1.8468378  )
       158        H      tau( 158) = (   0.1953720   0.3041484   1.8614914  )

     -------------------------------------------------
     Parameters for Dispersion (Grimme-D2) Correction:
     -------------------------------------------------
       atom      VdW radius       C_6     

        Ni         2.952        374.666
        Mn         2.952        374.666
        P          3.222        271.980
        O          2.536         24.284
        H          1.892          4.857

     number of k points=     1  Gaussian smearing, width (Ry)=  0.0100
                       cart. coord. in units 2pi/alat
        k(    1) = (   0.0000000   0.0000000   0.0000000), wk =   1.0000000

     Dense  grid:  1979026 G-vectors     FFT dimensions: ( 128, 144, 450)

     Smooth grid:   500628 G-vectors     FFT dimensions: (  81,  90, 288)

     Estimated max dynamical RAM per process >     333.40 MB

     Estimated total dynamical RAM >      20.84 GB

     Check: negative core charge=   -0.000002
     Generating pointlists ...
     new r_m :   0.0874 (alat units)  1.5600 (a.u.) for type    1
     new r_m :   0.0774 (alat units)  1.3815 (a.u.) for type    2
     new r_m :   0.0663 (alat units)  1.1843 (a.u.) for type    3
     new r_m :   0.0433 (alat units)  0.7737 (a.u.) for type    4
     new r_m :   0.0433 (alat units)  0.7737 (a.u.) for type    5

     Initial potential from superposition of free atoms

     starting charge    1107.8886, renormalised to    1108.0000

     negative rho (up, down):  1.539E-03 4.663E-04
 
     Adding external electric field

     Computed dipole along edir(3) : 
        Dipole                1.6211 Ry au,          4.1204 Debye
        Dipole field          0.0010 Ry au, 
 
        Potential amp.       -0.1063 Ry
        Total length         54.7057 bohr
 
 
     Adding external electric field

     Computed dipole along edir(3) : 
        Dipole                1.6211 Ry au,          4.1204 Debye
        Dipole field          0.0010 Ry au, 
 
        Potential amp.       -0.1063 Ry
        Total length         54.7057 bohr
 
     Starting wfcs are  818 randomized atomic wfcs

     total cpu time spent up to now is       13.8 secs

     Self-consistent Calculation

     iteration #  1     ecut=    50.00 Ry     beta= 0.10
     Davidson diagonalization with overlap
     ethr =  1.00E-02,  avg # of iterations =  6.0

     negative rho (up, down):  4.601E-01 8.102E-07
 
     Adding external electric field

     Computed dipole along edir(3) : 
        Dipole               -3.1205 Ry au,         -7.9315 Debye
        Dipole field         -0.0019 Ry au, 
 
        Potential amp.        0.2047 Ry
        Total length         54.7057 bohr
 
 
     Adding external electric field

     Computed dipole along edir(3) : 
        Dipole               -3.1205 Ry au,         -7.9315 Debye
        Dipole field         -0.0019 Ry au, 
 
        Potential amp.        0.2047 Ry
        Total length         54.7057 bohr
 

     total cpu time spent up to now is       53.0 secs

     total energy              =   -7859.98637419 Ry
     estimated scf accuracy    <     716.62251572 Ry

     total magnetization       =   222.00 Bohr mag/cell
     absolute magnetization    =   319.93 Bohr mag/cell

     iteration #  2     ecut=    50.00 Ry     beta= 0.10
     Davidson diagonalization with overlap
     ethr =  1.00E-02,  avg # of iterations =  2.0

     negative rho (up, down):  4.166E-01 3.251E-07
 
     Adding external electric field

     Computed dipole along edir(3) : 
        Dipole               -2.4326 Ry au,         -6.1831 Debye
        Dipole field         -0.0015 Ry au, 
 
        Potential amp.        0.1596 Ry
        Total length         54.7057 bohr
 
 
     Adding external electric field

     Computed dipole along edir(3) : 
        Dipole               -2.4326 Ry au,         -6.1831 Debye
        Dipole field         -0.0015 Ry au, 
 
        Potential amp.        0.1596 Ry
        Total length         54.7057 bohr
 

     total cpu time spent up to now is       75.8 secs

     total energy              =   -7942.45684777 Ry
     estimated scf accuracy    <     145.06852695 Ry

     total magnetization       =   159.96 Bohr mag/cell
     absolute magnetization    =   209.71 Bohr mag/cell

     iteration #  3     ecut=    50.00 Ry     beta= 0.10
     Davidson diagonalization with overlap
     ethr =  1.00E-02,  avg # of iterations =  1.5

     negative rho (up, down):  3.606E-01 1.977E-07
 
     Adding external electric field

     Computed dipole along edir(3) : 
        Dipole               -1.9790 Ry au,         -5.0301 Debye
        Dipole field         -0.0012 Ry au, 
 
        Potential amp.        0.1298 Ry
        Total length         54.7057 bohr
 
 
     Adding external electric field

     Computed dipole along edir(3) : 
        Dipole               -1.9790 Ry au,         -5.0301 Debye
        Dipole field         -0.0012 Ry au, 
 
        Potential amp.        0.1298 Ry
        Total length         54.7057 bohr
 

     total cpu time spent up to now is       94.1 secs

     total energy              =   -7976.34530899 Ry
     estimated scf accuracy    <     101.80094744 Ry

     total magnetization       =   139.13 Bohr mag/cell
     absolute magnetization    =   190.06 Bohr mag/cell

     iteration #  4     ecut=    50.00 Ry     beta= 0.10
     Davidson diagonalization with overlap
     ethr =  9.19E-03,  avg # of iterations =  1.0

     negative rho (up, down):  2.874E-01 1.141E-07
 
     Adding external electric field

     Computed dipole along edir(3) : 
        Dipole               -1.9981 Ry au,         -5.0788 Debye
        Dipole field         -0.0012 Ry au, 
 
        Potential amp.        0.1311 Ry
        Total length         54.7057 bohr
 
 
     Adding external electric field

     Computed dipole along edir(3) : 
        Dipole               -1.9981 Ry au,         -5.0788 Debye
        Dipole field         -0.0012 Ry au, 
 
        Potential amp.        0.1311 Ry
        Total length         54.7057 bohr
 

     total cpu time spent up to now is      111.1 secs

     total energy              =   -8005.06930672 Ry
     estimated scf accuracy    <      80.87623218 Ry

     total magnetization       =   121.86 Bohr mag/cell
     absolute magnetization    =   175.32 Bohr mag/cell

     iteration #  5     ecut=    50.00 Ry     beta= 0.10
     Davidson diagonalization with overlap
     ethr =  7.30E-03,  avg # of iterations =  1.5

     negative rho (up, down):  1.597E-02 0.000E+00
 
     Adding external electric field

     Computed dipole along edir(3) : 
        Dipole               -1.3647 Ry au,         -3.4687 Debye
        Dipole field         -0.0008 Ry au, 
 
        Potential amp.        0.0895 Ry
        Total length         54.7057 bohr
 
 
     Adding external electric field

     Computed dipole along edir(3) : 
        Dipole               -1.3647 Ry au,         -3.4687 Debye
        Dipole field         -0.0008 Ry au, 
 
        Potential amp.        0.0895 Ry
        Total length         54.7057 bohr
 

     total cpu time spent up to now is      129.1 secs

     total energy              =   -8066.98423382 Ry
     estimated scf accuracy    <      65.13221079 Ry

     total magnetization       =   106.03 Bohr mag/cell
     absolute magnetization    =   159.81 Bohr mag/cell

     iteration #  6     ecut=    50.00 Ry     beta= 0.10
     Davidson diagonalization with overlap
     ethr =  5.88E-03,  avg # of iterations =  1.5

     negative rho (up, down):  5.389E-06 2.603E-05
 
     Adding external electric field

     Computed dipole along edir(3) : 
        Dipole               -1.0346 Ry au,         -2.6297 Debye
        Dipole field         -0.0006 Ry au, 
 
        Potential amp.        0.0679 Ry
        Total length         54.7057 bohr
 
 
     Adding external electric field

     Computed dipole along edir(3) : 
        Dipole               -1.0346 Ry au,         -2.6297 Debye
        Dipole field         -0.0006 Ry au, 
 
        Potential amp.        0.0679 Ry
        Total length         54.7057 bohr
 

     total cpu time spent up to now is      146.2 secs

     total energy              =   -8076.25283487 Ry
     estimated scf accuracy    <      10.48279593 Ry

     total magnetization       =    99.54 Bohr mag/cell
     absolute magnetization    =   130.19 Bohr mag/cell

     iteration #  7     ecut=    50.00 Ry     beta= 0.10
     Davidson diagonalization with overlap
     ethr =  9.46E-04,  avg # of iterations =  5.5

     negative rho (up, down):  5.462E-06 2.480E-05
 
     Adding external electric field

     Computed dipole along edir(3) : 
        Dipole               -1.0377 Ry au,         -2.6375 Debye
        Dipole field         -0.0006 Ry au, 
 
        Potential amp.        0.0681 Ry
        Total length         54.7057 bohr
 
 
     Adding external electric field

     Computed dipole along edir(3) : 
        Dipole               -1.0377 Ry au,         -2.6375 Debye
        Dipole field         -0.0006 Ry au, 
 
        Potential amp.        0.0681 Ry
        Total length         54.7057 bohr
 

     total cpu time spent up to now is      175.1 secs

     total energy              =   -8078.94553162 Ry
     estimated scf accuracy    <      34.59682629 Ry

     total magnetization       =    67.52 Bohr mag/cell
     absolute magnetization    =    85.55 Bohr mag/cell

     iteration #  8     ecut=    50.00 Ry     beta= 0.10
     Davidson diagonalization with overlap
     ethr =  9.46E-04,  avg # of iterations =  1.0

     negative rho (up, down):  4.979E-06 2.700E-05
 
     Adding external electric field

     Computed dipole along edir(3) : 
        Dipole               -1.0080 Ry au,         -2.5620 Debye
        Dipole field         -0.0006 Ry au, 
 
        Potential amp.        0.0661 Ry
        Total length         54.7057 bohr
 
 
     Adding external electric field

     Computed dipole along edir(3) : 
        Dipole               -1.0080 Ry au,         -2.5620 Debye
        Dipole field         -0.0006 Ry au, 
 
        Potential amp.        0.0661 Ry
        Total length         54.7057 bohr
 

     total cpu time spent up to now is      192.3 secs

     total energy              =   -8078.92220979 Ry
     estimated scf accuracy    <      34.87662280 Ry

     total magnetization       =    67.48 Bohr mag/cell
     absolute magnetization    =    85.18 Bohr mag/cell

     iteration #  9     ecut=    50.00 Ry     beta= 0.10
     Davidson diagonalization with overlap
     ethr =  9.46E-04,  avg # of iterations =  1.0

     negative rho (up, down):  2.438E-05 5.459E-05
 
     Adding external electric field

     Computed dipole along edir(3) : 
        Dipole               -0.9564 Ry au,         -2.4310 Debye
        Dipole field         -0.0006 Ry au, 
 
        Potential amp.        0.0627 Ry
        Total length         54.7057 bohr
 
 
     Adding external electric field

     Computed dipole along edir(3) : 
        Dipole               -0.9564 Ry au,         -2.4310 Debye
        Dipole field         -0.0006 Ry au, 
 
        Potential amp.        0.0627 Ry
        Total length         54.7057 bohr
 

     total cpu time spent up to now is      209.2 secs

     total energy              =   -8078.75402134 Ry
     estimated scf accuracy    <      33.45390478 Ry

     total magnetization       =    67.73 Bohr mag/cell
     absolute magnetization    =    85.06 Bohr mag/cell

     iteration # 10     ecut=    50.00 Ry     beta= 0.10
     Davidson diagonalization with overlap
     ethr =  9.46E-04,  avg # of iterations =  1.5

     negative rho (up, down):  1.168E-05 2.601E-05
 
     Adding external electric field

     Computed dipole along edir(3) : 
        Dipole               -0.9831 Ry au,         -2.4987 Debye
        Dipole field         -0.0006 Ry au, 
 
        Potential amp.        0.0645 Ry
        Total length         54.7057 bohr
 
 
     Adding external electric field

     Computed dipole along edir(3) : 
        Dipole               -0.9831 Ry au,         -2.4987 Debye
        Dipole field         -0.0006 Ry au, 
 
        Potential amp.        0.0645 Ry
        Total length         54.7057 bohr
 

     total cpu time spent up to now is      225.4 secs

     total energy              =   -8078.81145543 Ry
     estimated scf accuracy    <      29.93507159 Ry

     total magnetization       =    68.45 Bohr mag/cell
     absolute magnetization    =    85.36 Bohr mag/cell

     iteration # 11     ecut=    50.00 Ry     beta= 0.10
     Davidson diagonalization with overlap
     ethr =  9.46E-04,  avg # of iterations =  1.0

     negative rho (up, down):  3.852E-04 4.846E-04
 
     Adding external electric field

     Computed dipole along edir(3) : 
        Dipole               -0.9357 Ry au,         -2.3784 Debye
        Dipole field         -0.0006 Ry au, 
 
        Potential amp.        0.0614 Ry
        Total length         54.7057 bohr
 
 
     Adding external electric field

     Computed dipole along edir(3) : 
        Dipole               -0.9357 Ry au,         -2.3784 Debye
        Dipole field         -0.0006 Ry au, 
 
        Potential amp.        0.0614 Ry
        Total length         54.7057 bohr
 

     total cpu time spent up to now is      241.5 secs

     total energy              =   -8078.12957779 Ry
     estimated scf accuracy    <      31.65568608 Ry

     total magnetization       =    68.36 Bohr mag/cell
     absolute magnetization    =    85.34 Bohr mag/cell

     iteration # 12     ecut=    50.00 Ry     beta= 0.10
     Davidson diagonalization with overlap
     ethr =  9.46E-04,  avg # of iterations =  1.5

     negative rho (up, down):  1.034E-05 5.642E-05
 
     Adding external electric field

     Computed dipole along edir(3) : 
        Dipole               -0.9032 Ry au,         -2.2956 Debye
        Dipole field         -0.0005 Ry au, 
 
        Potential amp.        0.0592 Ry
        Total length         54.7057 bohr
 
 
     Adding external electric field

     Computed dipole along edir(3) : 
        Dipole               -0.9032 Ry au,         -2.2956 Debye
        Dipole field         -0.0005 Ry au, 
 
        Potential amp.        0.0592 Ry
        Total length         54.7057 bohr
 

     total cpu time spent up to now is      258.0 secs

     total energy              =   -8078.70545388 Ry
     estimated scf accuracy    <      13.34233747 Ry

     total magnetization       =    78.30 Bohr mag/cell
     absolute magnetization    =    93.96 Bohr mag/cell

     iteration # 13     ecut=    50.00 Ry     beta= 0.10
     Davidson diagonalization with overlap
     ethr =  9.46E-04,  avg # of iterations =  1.0

     negative rho (up, down):  8.860E-05 3.007E-04
 
     Adding external electric field

     Computed dipole along edir(3) : 
        Dipole               -0.9767 Ry au,         -2.4825 Debye
        Dipole field         -0.0006 Ry au, 
 
        Potential amp.        0.0641 Ry
        Total length         54.7057 bohr
 
 
     Adding external electric field

     Computed dipole along edir(3) : 
        Dipole               -0.9767 Ry au,         -2.4825 Debye
        Dipole field         -0.0006 Ry au, 
 
        Potential amp.        0.0641 Ry
        Total length         54.7057 bohr
 

     total cpu time spent up to now is      274.0 secs

     total energy              =   -8078.65238773 Ry
     estimated scf accuracy    <      31.85732093 Ry

     total magnetization       =    67.33 Bohr mag/cell
     absolute magnetization    =    84.00 Bohr mag/cell

     iteration # 14     ecut=    50.00 Ry     beta= 0.10
     Davidson diagonalization with overlap
     ethr =  9.46E-04,  avg # of iterations =  1.0

     negative rho (up, down):  3.883E-03 2.111E-03
 
     Adding external electric field

     Computed dipole along edir(3) : 
        Dipole               -1.5409 Ry au,         -3.9166 Debye
        Dipole field         -0.0009 Ry au, 
 
        Potential amp.        0.1011 Ry
        Total length         54.7057 bohr
 
 
     Adding external electric field

     Computed dipole along edir(3) : 
        Dipole               -1.5409 Ry au,         -3.9166 Debye
        Dipole field         -0.0009 Ry au, 
 
        Potential amp.        0.1011 Ry
        Total length         54.7057 bohr
 

     total cpu time spent up to now is      289.3 secs

     total energy              =   -8077.71115326 Ry
     estimated scf accuracy    <      26.14030489 Ry

     total magnetization       =    68.94 Bohr mag/cell
     absolute magnetization    =    84.97 Bohr mag/cell

     iteration # 15     ecut=    50.00 Ry     beta= 0.10
     Davidson diagonalization with overlap
     ethr =  9.46E-04,  avg # of iterations =  1.0

     negative rho (up, down):  5.429E-03 7.217E-03
 
     Adding external electric field

     Computed dipole along edir(3) : 
        Dipole               -1.4627 Ry au,         -3.7177 Debye
        Dipole field         -0.0009 Ry au, 
 
        Potential amp.        0.0959 Ry
        Total length         54.7057 bohr
 
 
     Adding external electric field

     Computed dipole along edir(3) : 
        Dipole               -1.4627 Ry au,         -3.7177 Debye
        Dipole field         -0.0009 Ry au, 
 
        Potential amp.        0.0959 Ry
        Total length         54.7057 bohr
 

     total cpu time spent up to now is      305.7 secs

     total energy              =   -8078.10520871 Ry
     estimated scf accuracy    <      12.68675309 Ry

     total magnetization       =    84.10 Bohr mag/cell
     absolute magnetization    =    99.62 Bohr mag/cell

     iteration # 16     ecut=    50.00 Ry     beta= 0.10
     Davidson diagonalization with overlap
     ethr =  9.46E-04,  avg # of iterations =  1.0

     negative rho (up, down):  5.623E-03 7.295E-03
 
     Adding external electric field

     Computed dipole along edir(3) : 
        Dipole               -1.5582 Ry au,         -3.9606 Debye
        Dipole field         -0.0009 Ry au, 
 
        Potential amp.        0.1022 Ry
        Total length         54.7057 bohr
 
 
     Adding external electric field

     Computed dipole along edir(3) : 
        Dipole               -1.5582 Ry au,         -3.9606 Debye
        Dipole field         -0.0009 Ry au, 
 
        Potential amp.        0.1022 Ry
        Total length         54.7057 bohr
 

     total cpu time spent up to now is      322.4 secs

     total energy              =   -8078.23659269 Ry
     estimated scf accuracy    <       8.81722626 Ry

     total magnetization       =    81.13 Bohr mag/cell
     absolute magnetization    =    95.37 Bohr mag/cell

     iteration # 17     ecut=    50.00 Ry     beta= 0.10
     Davidson diagonalization with overlap
     ethr =  7.96E-04,  avg # of iterations =  1.0

     negative rho (up, down):  5.412E-03 6.489E-03
 
     Adding external electric field

     Computed dipole along edir(3) : 
        Dipole               -1.5249 Ry au,         -3.8760 Debye
        Dipole field         -0.0009 Ry au, 
 
        Potential amp.        0.1000 Ry
        Total length         54.7057 bohr
 
 
     Adding external electric field

     Computed dipole along edir(3) : 
        Dipole               -1.5249 Ry au,         -3.8760 Debye
        Dipole field         -0.0009 Ry au, 
 
        Potential amp.        0.1000 Ry
        Total length         54.7057 bohr
 

     total cpu time spent up to now is      337.8 secs

     total energy              =   -8078.19416557 Ry
     estimated scf accuracy    <      10.50776367 Ry

     total magnetization       =    79.65 Bohr mag/cell
     absolute magnetization    =    94.04 Bohr mag/cell

     iteration # 18     ecut=    50.00 Ry     beta= 0.10
     Davidson diagonalization with overlap
     ethr =  7.96E-04,  avg # of iterations =  1.0

     negative rho (up, down):  1.915E-03 1.872E-03
 
     Adding external electric field

     Computed dipole along edir(3) : 
        Dipole               -1.0103 Ry au,         -2.5679 Debye
        Dipole field         -0.0006 Ry au, 
 
        Potential amp.        0.0663 Ry
        Total length         54.7057 bohr
 
 
     Adding external electric field

     Computed dipole along edir(3) : 
        Dipole               -1.0103 Ry au,         -2.5679 Debye
        Dipole field         -0.0006 Ry au, 
 
        Potential amp.        0.0663 Ry
        Total length         54.7057 bohr
 

     total cpu time spent up to now is      353.8 secs

     total energy              =   -8077.97586426 Ry
     estimated scf accuracy    <       7.13567849 Ry

     total magnetization       =    83.41 Bohr mag/cell
     absolute magnetization    =    97.07 Bohr mag/cell

     iteration # 19     ecut=    50.00 Ry     beta= 0.10
     Davidson diagonalization with overlap
     ethr =  6.44E-04,  avg # of iterations =  1.0

     negative rho (up, down):  1.300E-03 1.148E-03
 
     Adding external electric field

     Computed dipole along edir(3) : 
        Dipole               -1.0768 Ry au,         -2.7370 Debye
        Dipole field         -0.0006 Ry au, 
 
        Potential amp.        0.0706 Ry
        Total length         54.7057 bohr
 
 
     Adding external electric field

     Computed dipole along edir(3) : 
        Dipole               -1.0768 Ry au,         -2.7370 Debye
        Dipole field         -0.0006 Ry au, 
 
        Potential amp.        0.0706 Ry
        Total length         54.7057 bohr
 

     total cpu time spent up to now is      368.9 secs

     total energy              =   -8078.16888651 Ry
     estimated scf accuracy    <       1.55335961 Ry

     total magnetization       =    96.11 Bohr mag/cell
     absolute magnetization    =   107.93 Bohr mag/cell

     iteration # 20     ecut=    50.00 Ry     beta= 0.10
     Davidson diagonalization with overlap
     ethr =  1.40E-04,  avg # of iterations =  2.5

     negative rho (up, down):  7.731E-04 8.629E-04
 
     Adding external electric field

     Computed dipole along edir(3) : 
        Dipole               -1.0917 Ry au,         -2.7749 Debye
        Dipole field         -0.0007 Ry au, 
 
        Potential amp.        0.0716 Ry
        Total length         54.7057 bohr
 
 
     Adding external electric field

     Computed dipole along edir(3) : 
        Dipole               -1.0917 Ry au,         -2.7749 Debye
        Dipole field         -0.0007 Ry au, 
 
        Potential amp.        0.0716 Ry
        Total length         54.7057 bohr
 

     total cpu time spent up to now is      387.6 secs

     total energy              =   -8078.34543905 Ry
     estimated scf accuracy    <       1.38779752 Ry

     total magnetization       =    94.92 Bohr mag/cell
     absolute magnetization    =   106.24 Bohr mag/cell

     iteration # 21     ecut=    50.00 Ry     beta= 0.10
     Davidson diagonalization with overlap
     ethr =  1.25E-04,  avg # of iterations =  1.5

     negative rho (up, down):  5.736E-04 1.206E-03
 
     Adding external electric field

     Computed dipole along edir(3) : 
        Dipole               -1.0199 Ry au,         -2.5922 Debye
        Dipole field         -0.0006 Ry au, 
 
        Potential amp.        0.0669 Ry
        Total length         54.7057 bohr
 
 
     Adding external electric field

     Computed dipole along edir(3) : 
        Dipole               -1.0199 Ry au,         -2.5922 Debye
        Dipole field         -0.0006 Ry au, 
 
        Potential amp.        0.0669 Ry
        Total length         54.7057 bohr
 

     total cpu time spent up to now is      403.9 secs

     total energy              =   -8078.47231945 Ry
     estimated scf accuracy    <       0.80454591 Ry

     total magnetization       =    94.52 Bohr mag/cell
     absolute magnetization    =   103.13 Bohr mag/cell

     iteration # 22     ecut=    50.00 Ry     beta= 0.10
     Davidson diagonalization with overlap
     ethr =  7.26E-05,  avg # of iterations = 12.0

     negative rho (up, down):  3.949E-04 9.826E-04
 
     Adding external electric field

     Computed dipole along edir(3) : 
        Dipole               -0.9283 Ry au,         -2.3594 Debye
        Dipole field         -0.0006 Ry au, 
 
        Potential amp.        0.0609 Ry
        Total length         54.7057 bohr
 
 
     Adding external electric field

     Computed dipole along edir(3) : 
        Dipole               -0.9283 Ry au,         -2.3594 Debye
        Dipole field         -0.0006 Ry au, 
 
        Potential amp.        0.0609 Ry
        Total length         54.7057 bohr
 

     total cpu time spent up to now is      438.2 secs

     total energy              =   -8078.54107530 Ry
     estimated scf accuracy    <       0.45200654 Ry

     total magnetization       =    94.69 Bohr mag/cell
     absolute magnetization    =   100.23 Bohr mag/cell

     iteration # 23     ecut=    50.00 Ry     beta= 0.10
     Davidson diagonalization with overlap
     ethr =  4.08E-05,  avg # of iterations =  2.0

     negative rho (up, down):  1.472E-04 2.958E-04
 
     Adding external electric field

     Computed dipole along edir(3) : 
        Dipole               -0.8326 Ry au,         -2.1162 Debye
        Dipole field         -0.0005 Ry au, 
 
        Potential amp.        0.0546 Ry
        Total length         54.7057 bohr
 
 
     Adding external electric field

     Computed dipole along edir(3) : 
        Dipole               -0.8326 Ry au,         -2.1162 Debye
        Dipole field         -0.0005 Ry au, 
 
        Potential amp.        0.0546 Ry
        Total length         54.7057 bohr
 

     total cpu time spent up to now is      456.4 secs

     total energy              =   -8078.57858527 Ry
     estimated scf accuracy    <       0.23686119 Ry

     total magnetization       =    95.60 Bohr mag/cell
     absolute magnetization    =    99.66 Bohr mag/cell

     iteration # 24     ecut=    50.00 Ry     beta= 0.10
     Davidson diagonalization with overlap
     ethr =  2.14E-05,  avg # of iterations = 11.0

     negative rho (up, down):  4.190E-05 3.874E-05
 
     Adding external electric field

     Computed dipole along edir(3) : 
        Dipole               -0.7413 Ry au,         -1.8841 Debye
        Dipole field         -0.0004 Ry au, 
 
        Potential amp.        0.0486 Ry
        Total length         54.7057 bohr
 
 
     Adding external electric field

     Computed dipole along edir(3) : 
        Dipole               -0.7413 Ry au,         -1.8841 Debye
        Dipole field         -0.0004 Ry au, 
 
        Potential amp.        0.0486 Ry
        Total length         54.7057 bohr
 

     total cpu time spent up to now is      491.6 secs

     total energy              =   -8078.60218236 Ry
     estimated scf accuracy    <       0.11377775 Ry

     total magnetization       =    95.70 Bohr mag/cell
     absolute magnetization    =    98.10 Bohr mag/cell

     iteration # 25     ecut=    50.00 Ry     beta= 0.10
     Davidson diagonalization with overlap
     ethr =  1.03E-05,  avg # of iterations =  7.5

     negative rho (up, down):  1.072E-05 1.144E-06
 
     Adding external electric field

     Computed dipole along edir(3) : 
        Dipole               -0.6513 Ry au,         -1.6554 Debye
        Dipole field         -0.0004 Ry au, 
 
        Potential amp.        0.0427 Ry
        Total length         54.7057 bohr
 
 
     Adding external electric field

     Computed dipole along edir(3) : 
        Dipole               -0.6513 Ry au,         -1.6554 Debye
        Dipole field         -0.0004 Ry au, 
 
        Potential amp.        0.0427 Ry
        Total length         54.7057 bohr
 

     total cpu time spent up to now is      515.4 secs

     total energy              =   -8078.59972871 Ry
     estimated scf accuracy    <       0.09188066 Ry

     total magnetization       =    96.06 Bohr mag/cell
     absolute magnetization    =    98.11 Bohr mag/cell

     iteration # 26     ecut=    50.00 Ry     beta= 0.10
     Davidson diagonalization with overlap
     ethr =  8.29E-06,  avg # of iterations =  3.5

     negative rho (up, down):  6.786E-05 3.151E-05
 
     Adding external electric field

     Computed dipole along edir(3) : 
        Dipole               -0.5856 Ry au,         -1.4884 Debye
        Dipole field         -0.0004 Ry au, 
 
        Potential amp.        0.0384 Ry
        Total length         54.7057 bohr
 
 
     Adding external electric field

     Computed dipole along edir(3) : 
        Dipole               -0.5856 Ry au,         -1.4884 Debye
        Dipole field         -0.0004 Ry au, 
 
        Potential amp.        0.0384 Ry
        Total length         54.7057 bohr
 

     total cpu time spent up to now is      534.9 secs

     total energy              =   -8078.59847808 Ry
     estimated scf accuracy    <       0.08013171 Ry

     total magnetization       =    95.99 Bohr mag/cell
     absolute magnetization    =    97.65 Bohr mag/cell

     iteration # 27     ecut=    50.00 Ry     beta= 0.10
     Davidson diagonalization with overlap
     ethr =  7.23E-06,  avg # of iterations =  2.0

     negative rho (up, down):  1.301E-04 6.874E-05
 
     Adding external electric field

     Computed dipole along edir(3) : 
        Dipole               -0.5662 Ry au,         -1.4390 Debye
        Dipole field         -0.0003 Ry au, 
 
        Potential amp.        0.0371 Ry
        Total length         54.7057 bohr
 
 
     Adding external electric field

     Computed dipole along edir(3) : 
        Dipole               -0.5662 Ry au,         -1.4390 Debye
        Dipole field         -0.0003 Ry au, 
 
        Potential amp.        0.0371 Ry
        Total length         54.7057 bohr
 

     total cpu time spent up to now is      552.2 secs

     total energy              =   -8078.60064011 Ry
     estimated scf accuracy    <       0.08152064 Ry

     total magnetization       =    95.98 Bohr mag/cell
     absolute magnetization    =    97.34 Bohr mag/cell

     iteration # 28     ecut=    50.00 Ry     beta= 0.10
     Davidson diagonalization with overlap
     ethr =  7.23E-06,  avg # of iterations =  2.0

     negative rho (up, down):  2.907E-04 8.562E-05
 
     Adding external electric field

     Computed dipole along edir(3) : 
        Dipole               -0.4992 Ry au,         -1.2689 Debye
        Dipole field         -0.0003 Ry au, 
 
        Potential amp.        0.0327 Ry
        Total length         54.7057 bohr
 
 
     Adding external electric field

     Computed dipole along edir(3) : 
        Dipole               -0.4992 Ry au,         -1.2689 Debye
        Dipole field         -0.0003 Ry au, 
 
        Potential amp.        0.0327 Ry
        Total length         54.7057 bohr
 

     total cpu time spent up to now is      568.9 secs

     total energy              =   -8078.59661520 Ry
     estimated scf accuracy    <       0.06724723 Ry

     total magnetization       =    96.02 Bohr mag/cell
     absolute magnetization    =    97.35 Bohr mag/cell

     iteration # 29     ecut=    50.00 Ry     beta= 0.10
     Davidson diagonalization with overlap
     ethr =  6.07E-06,  avg # of iterations =  2.0

     negative rho (up, down):  3.103E-04 8.228E-05
 
     Adding external electric field

     Computed dipole along edir(3) : 
        Dipole               -0.4804 Ry au,         -1.2210 Debye
        Dipole field         -0.0003 Ry au, 
 
        Potential amp.        0.0315 Ry
        Total length         54.7057 bohr
 
 
     Adding external electric field

     Computed dipole along edir(3) : 
        Dipole               -0.4804 Ry au,         -1.2210 Debye
        Dipole field         -0.0003 Ry au, 
 
        Potential amp.        0.0315 Ry
        Total length         54.7057 bohr
 

     total cpu time spent up to now is      586.8 secs

     total energy              =   -8078.59653788 Ry
     estimated scf accuracy    <       0.04653826 Ry

     total magnetization       =    95.92 Bohr mag/cell
     absolute magnetization    =    97.26 Bohr mag/cell

     iteration # 30     ecut=    50.00 Ry     beta= 0.10
     Davidson diagonalization with overlap
     ethr =  4.20E-06,  avg # of iterations =  2.0

     negative rho (up, down):  3.432E-04 7.938E-05
 
     Adding external electric field

     Computed dipole along edir(3) : 
        Dipole               -0.4583 Ry au,         -1.1649 Debye
        Dipole field         -0.0003 Ry au, 
 
        Potential amp.        0.0301 Ry
        Total length         54.7057 bohr
 
 
     Adding external electric field

     Computed dipole along edir(3) : 
        Dipole               -0.4583 Ry au,         -1.1649 Debye
        Dipole field         -0.0003 Ry au, 
 
        Potential amp.        0.0301 Ry
        Total length         54.7057 bohr
 

     total cpu time spent up to now is      604.5 secs

     total energy              =   -8078.59558891 Ry
     estimated scf accuracy    <       0.04685285 Ry

     total magnetization       =    95.88 Bohr mag/cell
     absolute magnetization    =    97.23 Bohr mag/cell

     iteration # 31     ecut=    50.00 Ry     beta= 0.10
     Davidson diagonalization with overlap
     c_bands:  1 eigenvalues not converged
     ethr =  4.20E-06,  avg # of iterations = 21.0

     negative rho (up, down):  3.388E-04 1.036E-04
 
     Adding external electric field

     Computed dipole along edir(3) : 
        Dipole               -0.4667 Ry au,         -1.1861 Debye
        Dipole field         -0.0003 Ry au, 
 
        Potential amp.        0.0306 Ry
        Total length         54.7057 bohr
 
 
     Adding external electric field

     Computed dipole along edir(3) : 
        Dipole               -0.4667 Ry au,         -1.1861 Debye
        Dipole field         -0.0003 Ry au, 
 
        Potential amp.        0.0306 Ry
        Total length         54.7057 bohr
 

     total cpu time spent up to now is      644.2 secs

     total energy              =   -8078.59721371 Ry
     estimated scf accuracy    <       0.04700633 Ry

     total magnetization       =    95.83 Bohr mag/cell
     absolute magnetization    =    97.18 Bohr mag/cell

     iteration # 32     ecut=    50.00 Ry     beta= 0.10
     Davidson diagonalization with overlap
     ethr =  4.20E-06,  avg # of iterations =  2.0

     negative rho (up, down):  3.445E-04 1.611E-04
 
     Adding external electric field

     Computed dipole along edir(3) : 
        Dipole               -0.4288 Ry au,         -1.0899 Debye
        Dipole field         -0.0003 Ry au, 
 
        Potential amp.        0.0281 Ry
        Total length         54.7057 bohr
 
 
     Adding external electric field

     Computed dipole along edir(3) : 
        Dipole               -0.4288 Ry au,         -1.0899 Debye
        Dipole field         -0.0003 Ry au, 
 
        Potential amp.        0.0281 Ry
        Total length         54.7057 bohr
 

     total cpu time spent up to now is      662.9 secs

     total energy              =   -8078.59922655 Ry
     estimated scf accuracy    <       0.04450218 Ry

     total magnetization       =    95.88 Bohr mag/cell
     absolute magnetization    =    97.22 Bohr mag/cell

     iteration # 33     ecut=    50.00 Ry     beta= 0.10
     Davidson diagonalization with overlap
     ethr =  4.02E-06,  avg # of iterations =  2.0

     negative rho (up, down):  1.103E-03 7.545E-04
 
     Adding external electric field

     Computed dipole along edir(3) : 
        Dipole               -0.2621 Ry au,         -0.6662 Debye
        Dipole field         -0.0002 Ry au, 
 
        Potential amp.        0.0172 Ry
        Total length         54.7057 bohr
 
 
     Adding external electric field

     Computed dipole along edir(3) : 
        Dipole               -0.2621 Ry au,         -0.6662 Debye
        Dipole field         -0.0002 Ry au, 
 
        Potential amp.        0.0172 Ry
        Total length         54.7057 bohr
 

     total cpu time spent up to now is      680.0 secs

     total energy              =   -8078.59660004 Ry
     estimated scf accuracy    <       0.04630349 Ry

     total magnetization       =    95.81 Bohr mag/cell
     absolute magnetization    =    97.18 Bohr mag/cell

     iteration # 34     ecut=    50.00 Ry     beta= 0.10
     Davidson diagonalization with overlap
     ethr =  4.02E-06,  avg # of iterations =  2.5

     negative rho (up, down):  2.020E-03 1.541E-03
 
     Adding external electric field

     Computed dipole along edir(3) : 
        Dipole               -0.1727 Ry au,         -0.4391 Debye
        Dipole field         -0.0001 Ry au, 
 
        Potential amp.        0.0113 Ry
        Total length         54.7057 bohr
 
 
     Adding external electric field

     Computed dipole along edir(3) : 
        Dipole               -0.1727 Ry au,         -0.4391 Debye
        Dipole field         -0.0001 Ry au, 
 
        Potential amp.        0.0113 Ry
        Total length         54.7057 bohr
 

     total cpu time spent up to now is      698.4 secs

     total energy              =   -8078.59567587 Ry
     estimated scf accuracy    <       0.04034207 Ry

     total magnetization       =    95.72 Bohr mag/cell
     absolute magnetization    =    97.09 Bohr mag/cell

     iteration # 35     ecut=    50.00 Ry     beta= 0.10
     Davidson diagonalization with overlap
     ethr =  3.64E-06,  avg # of iterations =  5.5

     negative rho (up, down):  3.655E-03 3.188E-03
 
     Adding external electric field

     Computed dipole along edir(3) : 
        Dipole               -0.0733 Ry au,         -0.1862 Debye
        Dipole field         -0.0000 Ry au, 
 
        Potential amp.        0.0048 Ry
        Total length         54.7057 bohr
 
 
     Adding external electric field

     Computed dipole along edir(3) : 
        Dipole               -0.0733 Ry au,         -0.1862 Debye
        Dipole field         -0.0000 Ry au, 
 
        Potential amp.        0.0048 Ry
        Total length         54.7057 bohr
 

     total cpu time spent up to now is      718.7 secs

     total energy              =   -8078.59537534 Ry
     estimated scf accuracy    <       0.03357898 Ry

     total magnetization       =    95.84 Bohr mag/cell
     absolute magnetization    =    97.21 Bohr mag/cell

     iteration # 36     ecut=    50.00 Ry     beta= 0.10
     Davidson diagonalization with overlap
     ethr =  3.03E-06,  avg # of iterations =  6.0

     negative rho (up, down):  1.739E-03 1.501E-03
 
     Adding external electric field

     Computed dipole along edir(3) : 
        Dipole               -0.0625 Ry au,         -0.1588 Debye
        Dipole field         -0.0000 Ry au, 
 
        Potential amp.        0.0041 Ry
        Total length         54.7057 bohr
 
 
     Adding external electric field

     Computed dipole along edir(3) : 
        Dipole               -0.0625 Ry au,         -0.1588 Debye
        Dipole field         -0.0000 Ry au, 
 
        Potential amp.        0.0041 Ry
        Total length         54.7057 bohr
 

     total cpu time spent up to now is      740.3 secs

     total energy              =   -8078.59427184 Ry
     estimated scf accuracy    <       0.02651050 Ry

     total magnetization       =    95.72 Bohr mag/cell
     absolute magnetization    =    97.20 Bohr mag/cell

     iteration # 37     ecut=    50.00 Ry     beta= 0.10
     Davidson diagonalization with overlap
     ethr =  2.39E-06,  avg # of iterations =  2.0

     negative rho (up, down):  1.974E-03 1.523E-03
 
     Adding external electric field

     Computed dipole along edir(3) : 
        Dipole               -0.0185 Ry au,         -0.0471 Debye
        Dipole field         -0.0000 Ry au, 
 
        Potential amp.        0.0012 Ry
        Total length         54.7057 bohr
 
 
     Adding external electric field

     Computed dipole along edir(3) : 
        Dipole               -0.0185 Ry au,         -0.0471 Debye
        Dipole field         -0.0000 Ry au, 
 
        Potential amp.        0.0012 Ry
        Total length         54.7057 bohr
 

     total cpu time spent up to now is      758.4 secs

     total energy              =   -8078.59355200 Ry
     estimated scf accuracy    <       0.02309727 Ry

     total magnetization       =    95.83 Bohr mag/cell
     absolute magnetization    =    97.45 Bohr mag/cell

     iteration # 38     ecut=    50.00 Ry     beta= 0.10
     Davidson diagonalization with overlap
     ethr =  2.08E-06,  avg # of iterations =  2.0

     negative rho (up, down):  2.533E-03 2.103E-03
 
     Adding external electric field

     Computed dipole along edir(3) : 
        Dipole                0.0744 Ry au,          0.1892 Debye
        Dipole field          0.0000 Ry au, 
 
        Potential amp.       -0.0049 Ry
        Total length         54.7057 bohr
 
 
     Adding external electric field

     Computed dipole along edir(3) : 
        Dipole                0.0744 Ry au,          0.1892 Debye
        Dipole field          0.0000 Ry au, 
 
        Potential amp.       -0.0049 Ry
        Total length         54.7057 bohr
 

     total cpu time spent up to now is      775.5 secs

     total energy              =   -8078.59382780 Ry
     estimated scf accuracy    <       0.02212527 Ry

     total magnetization       =    95.87 Bohr mag/cell
     absolute magnetization    =    97.51 Bohr mag/cell

     iteration # 39     ecut=    50.00 Ry     beta= 0.10
     Davidson diagonalization with overlap
     c_bands:  1 eigenvalues not converged
     ethr =  2.00E-06,  avg # of iterations = 21.0

     negative rho (up, down):  4.161E-03 4.461E-03
 
     Adding external electric field

     Computed dipole along edir(3) : 
        Dipole                0.1956 Ry au,          0.4972 Debye
        Dipole field          0.0001 Ry au, 
 
        Potential amp.       -0.0128 Ry
        Total length         54.7057 bohr
 
 
     Adding external electric field

     Computed dipole along edir(3) : 
        Dipole                0.1956 Ry au,          0.4972 Debye
        Dipole field          0.0001 Ry au, 
 
        Potential amp.       -0.0128 Ry
        Total length         54.7057 bohr
 

     total cpu time spent up to now is      815.3 secs

     total energy              =   -8078.59540002 Ry
     estimated scf accuracy    <       0.01484725 Ry

     total magnetization       =    95.77 Bohr mag/cell
     absolute magnetization    =    97.36 Bohr mag/cell

     iteration # 40     ecut=    50.00 Ry     beta= 0.10
     Davidson diagonalization with overlap
     ethr =  1.34E-06,  avg # of iterations =  2.0

     negative rho (up, down):  3.128E-03 3.720E-03
 
     Adding external electric field

     Computed dipole along edir(3) : 
        Dipole                0.2022 Ry au,          0.5139 Debye
        Dipole field          0.0001 Ry au, 
 
        Potential amp.       -0.0133 Ry
        Total length         54.7057 bohr
 
 
     Adding external electric field

     Computed dipole along edir(3) : 
        Dipole                0.2022 Ry au,          0.5139 Debye
        Dipole field          0.0001 Ry au, 
 
        Potential amp.       -0.0133 Ry
        Total length         54.7057 bohr
 

     total cpu time spent up to now is      833.5 secs

     total energy              =   -8078.59582440 Ry
     estimated scf accuracy    <       0.00864380 Ry

     total magnetization       =    95.75 Bohr mag/cell
     absolute magnetization    =    97.24 Bohr mag/cell

     iteration # 41     ecut=    50.00 Ry     beta= 0.10
     Davidson diagonalization with overlap
     ethr =  7.80E-07,  avg # of iterations =  1.5

     negative rho (up, down):  1.523E-03 1.806E-03
 
     Adding external electric field

     Computed dipole along edir(3) : 
        Dipole                0.1518 Ry au,          0.3858 Debye
        Dipole field          0.0001 Ry au, 
 
        Potential amp.       -0.0100 Ry
        Total length         54.7057 bohr
 
 
     Adding external electric field

     Computed dipole along edir(3) : 
        Dipole                0.1518 Ry au,          0.3858 Debye
        Dipole field          0.0001 Ry au, 
 
        Potential amp.       -0.0100 Ry
        Total length         54.7057 bohr
 

     total cpu time spent up to now is      850.1 secs

     total energy              =   -8078.59578695 Ry
     estimated scf accuracy    <       0.00569187 Ry

     total magnetization       =    95.80 Bohr mag/cell
     absolute magnetization    =    97.22 Bohr mag/cell

     iteration # 42     ecut=    50.00 Ry     beta= 0.10
     Davidson diagonalization with overlap
     ethr =  5.14E-07,  avg # of iterations =  2.0

     negative rho (up, down):  7.549E-04 9.194E-04
 
     Adding external electric field

     Computed dipole along edir(3) : 
        Dipole                0.1262 Ry au,          0.3208 Debye
        Dipole field          0.0001 Ry au, 
 
        Potential amp.       -0.0083 Ry
        Total length         54.7057 bohr
 
 
     Adding external electric field

     Computed dipole along edir(3) : 
        Dipole                0.1262 Ry au,          0.3208 Debye
        Dipole field          0.0001 Ry au, 
 
        Potential amp.       -0.0083 Ry
        Total length         54.7057 bohr
 

     total cpu time spent up to now is      869.3 secs

     total energy              =   -8078.59579371 Ry
     estimated scf accuracy    <       0.00319052 Ry

     total magnetization       =    95.80 Bohr mag/cell
     absolute magnetization    =    97.22 Bohr mag/cell

     iteration # 43     ecut=    50.00 Ry     beta= 0.10
     Davidson diagonalization with overlap
     ethr =  2.88E-07,  avg # of iterations =  2.0

     negative rho (up, down):  1.777E-04 1.799E-04
 
     Adding external electric field

     Computed dipole along edir(3) : 
        Dipole                0.0873 Ry au,          0.2219 Debye
        Dipole field          0.0001 Ry au, 
 
        Potential amp.       -0.0057 Ry
        Total length         54.7057 bohr
 
 
     Adding external electric field

     Computed dipole along edir(3) : 
        Dipole                0.0873 Ry au,          0.2219 Debye
        Dipole field          0.0001 Ry au, 
 
        Potential amp.       -0.0057 Ry
        Total length         54.7057 bohr
 

     total cpu time spent up to now is      887.0 secs

     total energy              =   -8078.59589382 Ry
     estimated scf accuracy    <       0.00186199 Ry

     total magnetization       =    95.79 Bohr mag/cell
     absolute magnetization    =    97.19 Bohr mag/cell

     iteration # 44     ecut=    50.00 Ry     beta= 0.10
     Davidson diagonalization with overlap
     ethr =  1.68E-07,  avg # of iterations =  2.0

     negative rho (up, down):  1.045E-04 9.567E-05
 
     Adding external electric field

     Computed dipole along edir(3) : 
        Dipole                0.0720 Ry au,          0.1831 Debye
        Dipole field          0.0000 Ry au, 
 
        Potential amp.       -0.0047 Ry
        Total length         54.7057 bohr
 
 
     Adding external electric field

     Computed dipole along edir(3) : 
        Dipole                0.0720 Ry au,          0.1831 Debye
        Dipole field          0.0000 Ry au, 
 
        Potential amp.       -0.0047 Ry
        Total length         54.7057 bohr
 

     total cpu time spent up to now is      905.3 secs

     total energy              =   -8078.59593924 Ry
     estimated scf accuracy    <       0.00105033 Ry

     total magnetization       =    95.83 Bohr mag/cell
     absolute magnetization    =    97.21 Bohr mag/cell

     iteration # 45     ecut=    50.00 Ry     beta= 0.10
     Davidson diagonalization with overlap
     ethr =  9.48E-08,  avg # of iterations =  1.5

     negative rho (up, down):  1.647E-05 9.827E-06
 
     Adding external electric field

     Computed dipole along edir(3) : 
        Dipole                0.0511 Ry au,          0.1298 Debye
        Dipole field          0.0000 Ry au, 
 
        Potential amp.       -0.0033 Ry
        Total length         54.7057 bohr
 
 
     Adding external electric field

     Computed dipole along edir(3) : 
        Dipole                0.0511 Ry au,          0.1298 Debye
        Dipole field          0.0000 Ry au, 
 
        Potential amp.       -0.0033 Ry
        Total length         54.7057 bohr
 

     total cpu time spent up to now is      922.6 secs

     total energy              =   -8078.59592419 Ry
     estimated scf accuracy    <       0.00095192 Ry

     total magnetization       =    95.83 Bohr mag/cell
     absolute magnetization    =    97.20 Bohr mag/cell

     iteration # 46     ecut=    50.00 Ry     beta= 0.10
     Davidson diagonalization with overlap
     ethr =  8.59E-08,  avg # of iterations =  2.0

     negative rho (up, down):  9.523E-06 4.536E-06
 
     Adding external electric field

     Computed dipole along edir(3) : 
        Dipole                0.0534 Ry au,          0.1358 Debye
        Dipole field          0.0000 Ry au, 
 
        Potential amp.       -0.0035 Ry
        Total length         54.7057 bohr
 
 
     Adding external electric field

     Computed dipole along edir(3) : 
        Dipole                0.0534 Ry au,          0.1358 Debye
        Dipole field          0.0000 Ry au, 
 
        Potential amp.       -0.0035 Ry
        Total length         54.7057 bohr
 

     total cpu time spent up to now is      940.9 secs

     total energy              =   -8078.59596132 Ry
     estimated scf accuracy    <       0.00084429 Ry

     total magnetization       =    95.84 Bohr mag/cell
     absolute magnetization    =    97.19 Bohr mag/cell

     iteration # 47     ecut=    50.00 Ry     beta= 0.10
     Davidson diagonalization with overlap
     ethr =  7.62E-08,  avg # of iterations =  2.0

     negative rho (up, down):  6.760E-06 2.378E-06
 
     Adding external electric field

     Computed dipole along edir(3) : 
        Dipole                0.0713 Ry au,          0.1812 Debye
        Dipole field          0.0000 Ry au, 
 
        Potential amp.       -0.0047 Ry
        Total length         54.7057 bohr
 
 
     Adding external electric field

     Computed dipole along edir(3) : 
        Dipole                0.0713 Ry au,          0.1812 Debye
        Dipole field          0.0000 Ry au, 
 
        Potential amp.       -0.0047 Ry
        Total length         54.7057 bohr
 

     total cpu time spent up to now is      958.8 secs

     total energy              =   -8078.59605483 Ry
     estimated scf accuracy    <       0.00077444 Ry

     total magnetization       =    95.84 Bohr mag/cell
     absolute magnetization    =    97.19 Bohr mag/cell

     iteration # 48     ecut=    50.00 Ry     beta= 0.10
     Davidson diagonalization with overlap
     ethr =  6.99E-08,  avg # of iterations =  8.5

     negative rho (up, down):  4.414E-05 1.610E-05
 
     Adding external electric field

     Computed dipole along edir(3) : 
        Dipole                0.0775 Ry au,          0.1970 Debye
        Dipole field          0.0000 Ry au, 
 
        Potential amp.       -0.0051 Ry
        Total length         54.7057 bohr
 
 
     Adding external electric field

     Computed dipole along edir(3) : 
        Dipole                0.0775 Ry au,          0.1970 Debye
        Dipole field          0.0000 Ry au, 
 
        Potential amp.       -0.0051 Ry
        Total length         54.7057 bohr
 

     total cpu time spent up to now is      980.6 secs

     total energy              =   -8078.59610279 Ry
     estimated scf accuracy    <       0.00053090 Ry

     total magnetization       =    95.84 Bohr mag/cell
     absolute magnetization    =    97.18 Bohr mag/cell

     iteration # 49     ecut=    50.00 Ry     beta= 0.10
     Davidson diagonalization with overlap
     ethr =  4.79E-08,  avg # of iterations =  2.0

     negative rho (up, down):  1.816E-04 7.993E-05
 
     Adding external electric field

     Computed dipole along edir(3) : 
        Dipole                0.0968 Ry au,          0.2460 Debye
        Dipole field          0.0001 Ry au, 
 
        Potential amp.       -0.0063 Ry
        Total length         54.7057 bohr
 
 
     Adding external electric field

     Computed dipole along edir(3) : 
        Dipole                0.0968 Ry au,          0.2460 Debye
        Dipole field          0.0001 Ry au, 
 
        Potential amp.       -0.0063 Ry
        Total length         54.7057 bohr
 

     total cpu time spent up to now is      999.0 secs

     total energy              =   -8078.59614672 Ry
     estimated scf accuracy    <       0.00042249 Ry

     total magnetization       =    95.84 Bohr mag/cell
     absolute magnetization    =    97.17 Bohr mag/cell

     iteration # 50     ecut=    50.00 Ry     beta= 0.10
     Davidson diagonalization with overlap
     ethr =  3.81E-08,  avg # of iterations =  2.0

     negative rho (up, down):  9.452E-04 6.216E-04
 
     Adding external electric field

     Computed dipole along edir(3) : 
        Dipole                0.1280 Ry au,          0.3253 Debye
        Dipole field          0.0001 Ry au, 
 
        Potential amp.       -0.0084 Ry
        Total length         54.7057 bohr
 
 
     Adding external electric field

     Computed dipole along edir(3) : 
        Dipole                0.1280 Ry au,          0.3253 Debye
        Dipole field          0.0001 Ry au, 
 
        Potential amp.       -0.0084 Ry
        Total length         54.7057 bohr
 

     total cpu time spent up to now is     1017.1 secs

     total energy              =   -8078.59619296 Ry
     estimated scf accuracy    <       0.00030623 Ry

     total magnetization       =    95.84 Bohr mag/cell
     absolute magnetization    =    97.17 Bohr mag/cell

     iteration # 51     ecut=    50.00 Ry     beta= 0.10
     Davidson diagonalization with overlap
     ethr =  2.76E-08,  avg # of iterations =  1.5

     negative rho (up, down):  1.670E-03 1.263E-03
 
     Adding external electric field

     Computed dipole along edir(3) : 
        Dipole                0.1453 Ry au,          0.3692 Debye
        Dipole field          0.0001 Ry au, 
 
        Potential amp.       -0.0095 Ry
        Total length         54.7057 bohr
 
 
     Adding external electric field

     Computed dipole along edir(3) : 
        Dipole                0.1453 Ry au,          0.3692 Debye
        Dipole field          0.0001 Ry au, 
 
        Potential amp.       -0.0095 Ry
        Total length         54.7057 bohr
 

     total cpu time spent up to now is     1034.2 secs

     total energy              =   -8078.59622055 Ry
     estimated scf accuracy    <       0.00020898 Ry

     total magnetization       =    95.84 Bohr mag/cell
     absolute magnetization    =    97.17 Bohr mag/cell

     iteration # 52     ecut=    50.00 Ry     beta= 0.10
     Davidson diagonalization with overlap
     ethr =  1.89E-08,  avg # of iterations =  2.0

     negative rho (up, down):  1.947E-03 1.453E-03
 
     Adding external electric field

     Computed dipole along edir(3) : 
        Dipole                0.1566 Ry au,          0.3981 Debye
        Dipole field          0.0001 Ry au, 
 
        Potential amp.       -0.0103 Ry
        Total length         54.7057 bohr
 
 
     Adding external electric field

     Computed dipole along edir(3) : 
        Dipole                0.1566 Ry au,          0.3981 Debye
        Dipole field          0.0001 Ry au, 
 
        Potential amp.       -0.0103 Ry
        Total length         54.7057 bohr
 

     total cpu time spent up to now is     1051.6 secs

     total energy              =   -8078.59623415 Ry
     estimated scf accuracy    <       0.00016750 Ry

     total magnetization       =    95.83 Bohr mag/cell
     absolute magnetization    =    97.17 Bohr mag/cell

     iteration # 53     ecut=    50.00 Ry     beta= 0.10
     Davidson diagonalization with overlap
     ethr =  1.51E-08,  avg # of iterations =  1.5

     negative rho (up, down):  2.520E-03 1.999E-03
 
     Adding external electric field

     Computed dipole along edir(3) : 
        Dipole                0.1626 Ry au,          0.4133 Debye
        Dipole field          0.0001 Ry au, 
 
        Potential amp.       -0.0107 Ry
        Total length         54.7057 bohr
 
 
     Adding external electric field

     Computed dipole along edir(3) : 
        Dipole                0.1626 Ry au,          0.4133 Debye
        Dipole field          0.0001 Ry au, 
 
        Potential amp.       -0.0107 Ry
        Total length         54.7057 bohr
 

     total cpu time spent up to now is     1069.0 secs

     total energy              =   -8078.59623835 Ry
     estimated scf accuracy    <       0.00008646 Ry

     total magnetization       =    95.84 Bohr mag/cell
     absolute magnetization    =    97.19 Bohr mag/cell

     iteration # 54     ecut=    50.00 Ry     beta= 0.10
     Davidson diagonalization with overlap
     ethr =  7.80E-09,  avg # of iterations =  2.0

     negative rho (up, down):  2.298E-03 1.769E-03
 
     Adding external electric field

     Computed dipole along edir(3) : 
        Dipole                0.1661 Ry au,          0.4221 Debye
        Dipole field          0.0001 Ry au, 
 
        Potential amp.       -0.0109 Ry
        Total length         54.7057 bohr
 
 
     Adding external electric field

     Computed dipole along edir(3) : 
        Dipole                0.1661 Ry au,          0.4221 Debye
        Dipole field          0.0001 Ry au, 
 
        Potential amp.       -0.0109 Ry
        Total length         54.7057 bohr
 

     total cpu time spent up to now is     1088.4 secs

     total energy              =   -8078.59624365 Ry
     estimated scf accuracy    <       0.00004396 Ry

     total magnetization       =    95.84 Bohr mag/cell
     absolute magnetization    =    97.20 Bohr mag/cell

     iteration # 55     ecut=    50.00 Ry     beta= 0.10
     Davidson diagonalization with overlap
     ethr =  3.97E-09,  avg # of iterations =  1.0

     negative rho (up, down):  2.073E-03 1.573E-03
 
     Adding external electric field

     Computed dipole along edir(3) : 
        Dipole                0.1719 Ry au,          0.4370 Debye
        Dipole field          0.0001 Ry au, 
 
        Potential amp.       -0.0113 Ry
        Total length         54.7057 bohr
 
 
     Adding external electric field

     Computed dipole along edir(3) : 
        Dipole                0.1719 Ry au,          0.4370 Debye
        Dipole field          0.0001 Ry au, 
 
        Potential amp.       -0.0113 Ry
        Total length         54.7057 bohr
 

     total cpu time spent up to now is     1105.2 secs

     total energy              =   -8078.59624809 Ry
     estimated scf accuracy    <       0.00002831 Ry

     total magnetization       =    95.84 Bohr mag/cell
     absolute magnetization    =    97.20 Bohr mag/cell

     iteration # 56     ecut=    50.00 Ry     beta= 0.10
     Davidson diagonalization with overlap
     ethr =  2.56E-09,  avg # of iterations =  1.5

     negative rho (up, down):  2.042E-03 1.578E-03
 
     Adding external electric field

     Computed dipole along edir(3) : 
        Dipole                0.1733 Ry au,          0.4405 Debye
        Dipole field          0.0001 Ry au, 
 
        Potential amp.       -0.0114 Ry
        Total length         54.7057 bohr
 
 
     Adding external electric field

     Computed dipole along edir(3) : 
        Dipole                0.1733 Ry au,          0.4405 Debye
        Dipole field          0.0001 Ry au, 
 
        Potential amp.       -0.0114 Ry
        Total length         54.7057 bohr
 

     total cpu time spent up to now is     1122.6 secs

     total energy              =   -8078.59624875 Ry
     estimated scf accuracy    <       0.00001544 Ry

     total magnetization       =    95.84 Bohr mag/cell
     absolute magnetization    =    97.20 Bohr mag/cell

     iteration # 57     ecut=    50.00 Ry     beta= 0.10
     Davidson diagonalization with overlap
     ethr =  1.39E-09,  avg # of iterations =  1.5

     negative rho (up, down):  2.064E-03 1.598E-03
 
     Adding external electric field

     Computed dipole along edir(3) : 
        Dipole                0.1715 Ry au,          0.4360 Debye
        Dipole field          0.0001 Ry au, 
 
        Potential amp.       -0.0113 Ry
        Total length         54.7057 bohr
 
 
     Adding external electric field

     Computed dipole along edir(3) : 
        Dipole                0.1715 Ry au,          0.4360 Debye
        Dipole field          0.0001 Ry au, 
 
        Potential amp.       -0.0113 Ry
        Total length         54.7057 bohr
 

     total cpu time spent up to now is     1139.2 secs

     total energy              =   -8078.59624879 Ry
     estimated scf accuracy    <       0.00000943 Ry

     total magnetization       =    95.84 Bohr mag/cell
     absolute magnetization    =    97.20 Bohr mag/cell

     iteration # 58     ecut=    50.00 Ry     beta= 0.10
     Davidson diagonalization with overlap
     ethr =  8.51E-10,  avg # of iterations =  1.5

     negative rho (up, down):  1.534E-03 1.013E-03
 
     Adding external electric field

     Computed dipole along edir(3) : 
        Dipole                0.1678 Ry au,          0.4266 Debye
        Dipole field          0.0001 Ry au, 
 
        Potential amp.       -0.0110 Ry
[...]
    -6.0208  -6.0110  -5.9948  -5.9580  -5.9238  -5.9170  -5.9084  -5.8826
    -5.8709  -5.8528  -5.8279  -5.8006  -5.7911  -5.7574  -5.7509  -5.7480
    -5.7109  -5.7030  -5.6669  -5.6457  -5.6217  -5.6061  -5.5965  -5.5749
    -5.5629  -5.5519  -5.5352  -5.5075  -5.5039  -5.4916  -5.4557  -5.4195
    -5.4083  -5.3858  -5.3392  -5.3152  -5.2733  -5.2344  -5.2099  -5.2075
    -5.2043  -5.1962  -5.1404  -5.0840  -5.0319  -4.9982  -4.9858  -4.9563
    -4.9503  -4.9121  -4.8847  -4.8327  -4.8101  -4.7670  -4.7517  -4.7448
    -4.7177  -4.6845  -4.6364  -4.6116  -4.5998  -4.5378  -4.4872  -4.4390
    -4.4297  -4.4076  -4.3875  -4.3629  -4.3334  -4.2886  -4.2688  -4.2199
    -4.1693  -4.1465  -4.1267  -4.0997  -4.0852  -4.0655  -4.0335  -3.9955
    -3.9210  -3.9053  -3.8786  -3.8651  -3.8365  -3.8022  -3.7813  -3.7750
    -3.7491  -3.7408  -3.7125  -3.6503  -3.6389  -3.6224  -3.6186  -3.6105
    -3.6021  -3.5752  -3.5460  -3.5392  -3.5308  -3.5159  -3.5135  -3.4731
    -3.4497  -3.4384  -3.4334  -3.4249  -3.3653  -3.3599  -3.3463  -3.3395
    -3.3251  -3.3214  -3.2965  -3.2835  -3.2544  -3.2301  -3.2228  -3.2181
    -3.1590  -3.1479  -3.1060  -3.0766  -3.0617  -3.0491  -3.0374  -3.0185
    -3.0140  -3.0015  -2.9590  -2.9366  -2.9214  -2.8920  -2.8818  -2.8435
    -2.8399  -2.8365  -2.7553  -2.7511  -2.7292  -2.7240  -2.7120  -2.6999
    -2.6907  -2.6730  -2.6618  -2.6535  -2.6399  -2.6294  -2.6288  -2.6113
    -2.5914  -2.5864  -2.5746  -2.5541  -2.5330  -2.5299  -2.5204  -2.5092
    -2.4701  -2.4574  -2.4292  -2.4244  -2.3844  -2.3742  -2.3537  -2.3523
    -2.3235  -2.3121  -2.3102  -2.2898  -2.2637  -2.2482  -2.2441  -2.2185
    -2.2070  -2.1639  -2.1505  -2.1394  -2.1265  -2.0989  -2.0859  -2.0765
    -2.0645  -2.0233  -2.0071  -1.9927  -1.9697  -1.9579  -1.9437  -1.9160
    -1.9015  -1.8965  -1.8852  -1.8663  -1.8633  -1.8304  -1.8217  -1.7905
    -1.7830  -1.7647  -1.7504  -1.7247  -1.7114  -1.6905  -1.6690  -1.6353
    -1.6274  -1.6045  -1.5988  -1.5605  -1.5348  -1.5326  -1.5060  -1.4855
    -1.4555  -1.4542  -1.4333  -1.4188  -1.3995  -1.3846  -1.3716  -1.3504
    -1.3343  -1.3254  -1.2910  -1.2708  -1.2646  -1.2094  -1.1833  -1.1706
    -1.1516  -1.1258  -1.1090  -1.0364  -0.9776  -0.8558  -0.8418  -0.8095
    -0.8049  -0.7061  -0.6715  -0.5251  -0.5219  -0.3733  -0.3114  -0.2103
     0.1460   0.1577   0.2017   0.2179   0.2287   0.2423   0.2619   0.2753
     0.2977   0.3061   0.3264   0.3453   0.3550   0.3633   0.3682   0.3750
     0.3785   0.3821   0.3862   0.4044   0.4054   0.4184   0.4227   0.4294
     0.4368   0.4405   0.4510   0.4592   0.4726   0.4762   0.4788   0.4926
     0.4974   0.5138   0.5160   0.5400   0.5467   0.5500   0.5537   0.5648
     0.5700   0.5805   0.5977   0.6048   0.6161   0.6167   0.6229   0.6282
     0.6447   0.6592   0.6616   0.6731   0.6800   0.6937   0.6953   0.7047
     0.7210   0.7284   0.7381   0.7547   0.7574   0.7688   0.7742   0.7853
     0.7913   0.7979   0.8091   0.8295   0.8407   0.8449   0.8518   0.8754
     0.9086   0.9567   0.9601   0.9718   1.0012   1.0385   1.0683   1.1343
     1.1844   1.7339   1.7391   1.7525   1.7696   1.7806   1.7845   1.8041
     1.8256   1.8616   1.8669   1.8875   1.9139   1.9375   1.9540   1.9875
     2.0215   2.0410   2.0497   2.0648   2.0709   2.0899   2.1075   2.1246
     2.1419   2.1561   2.1697   2.1984   2.2252   2.2356   2.2539   2.2726
     2.2901   2.3029   2.3036   2.3090   2.3180   2.3337   2.3452   2.3489
     2.3855   2.4185   2.4256   2.4667   2.4961   2.5015   2.5247   2.5714
     2.6088   2.6126   2.7232   2.7285   2.8033   2.8275   2.8598   3.2665
     3.4746   3.6767   3.6858   3.7206   3.7560   3.7808   3.8873   3.9151
     3.9302   3.9544   3.9630   3.9781   3.9820   4.0260   4.0375   4.0479
     4.0572   4.0751   4.1173   4.1329   4.1459   4.1851   4.1932   4.2131
     4.2172   4.2360   4.2436   4.2880   4.3412   4.3992   4.5622   4.7461
     4.7911   4.8429   4.8492   4.9036   4.9455   4.9917   5.0055   5.0375
     5.0863   5.0916   5.1277   5.1544   5.1912   5.2038   5.3336   6.1671
     6.3053   6.4087   6.4958   6.6489   6.6625   6.6836   6.7915   6.8288
     6.8708   6.9601   6.9669   6.9948   7.1796   7.2385   7.2945   7.3316
     7.3677   7.4584   7.4747   7.5143   7.5235   7.6164   7.6372   7.7164
     7.7754   7.8370   7.8574   7.8948   7.9165   7.9410   7.9817   8.0034
     8.0366   8.0579   8.0933   8.1246   8.1463   8.2043   8.2181   8.2620
     8.2716   8.2998   8.3198   8.3497   8.3664   8.3895   8.4037   8.4222
     8.4315   8.4679   8.5091   8.5285   8.5303   8.5608   8.5790   8.5958
     8.6140

     the Fermi energy is     1.6597 ev

!    total energy              =   -8078.59624447 Ry
     estimated scf accuracy    <       0.00000085 Ry
     smearing contrib. (-TS)   =      -0.02307967 Ry
     internal energy E=F+TS    =   -8078.57316480 Ry

     The total energy is F=E-TS. E is the sum of the following terms:
     one-electron contribution =  -94630.73966137 Ry
     hartree contribution      =   47898.50354022 Ry
     xc contribution           =   -2177.32921110 Ry
     ewald contribution        =   40832.76068550 Ry
     Dispersion Correction     =      -1.76853579 Ry
     electric field correction =       0.00001773 Ry

     total magnetization       =    95.84 Bohr mag/cell
     absolute magnetization    =    97.20 Bohr mag/cell

     convergence has been achieved in  61 iterations

     negative rho (up, down):  1.160E-03 6.318E-04

     Forces acting on atoms (cartesian axes, Ry/au):

     atom    1 type  1   force =     0.00007148    0.00068460    0.00021926
     atom    2 type  1   force =     0.00014819   -0.00009038    0.00006118
     atom    3 type  2   force =     0.00242976    0.00147728    0.00389121
     atom    4 type  1   force =    -0.00022395    0.00012864    0.00047615
     atom    5 type  1   force =    -0.00008477    0.00063301   -0.00007606
     atom    6 type  1   force =     0.00027045    0.00009227   -0.00003151
     atom    7 type  1   force =    -0.00014908   -0.00005648    0.00037988
     atom    8 type  2   force =    -0.00009793   -0.00027056   -0.00018703
     atom    9 type  2   force =    -0.00013914   -0.00010776   -0.00019641
     atom   10 type  1   force =    -0.00013109    0.00027200    0.00010256
     atom   11 type  1   force =    -0.00012719    0.00017699    0.00014856
     atom   12 type  1   force =    -0.00003175    0.00017540    0.00022606
     atom   13 type  3   force =     0.00014170   -0.00010953   -0.00010944
     atom   14 type  3   force =    -0.00041277   -0.00022168    0.00005894
     atom   15 type  3   force =     0.00049089   -0.00034777    0.00030058
     atom   16 type  3   force =     0.00003581   -0.00004580   -0.00026464
     atom   17 type  4   force =     0.00015449   -0.00032143   -0.00019794
     atom   18 type  4   force =    -0.00031120   -0.00068381    0.00000135
     atom   19 type  4   force =    -0.00041229   -0.00033437    0.00001571
     atom   20 type  4   force =    -0.00051729   -0.00002590    0.00006273
     atom   21 type  4   force =     0.00017080   -0.00012365   -0.00007523
     atom   22 type  4   force =    -0.00002237    0.00003774    0.00013852
     atom   23 type  4   force =    -0.00035541   -0.00008637   -0.00037911
     atom   24 type  4   force =    -0.00009793   -0.00004403   -0.00008697
     atom   25 type  4   force =    -0.00020028   -0.00016520   -0.00000371
     atom   26 type  4   force =    -0.00019925   -0.00049417   -0.00031292
     atom   27 type  4   force =    -0.00009853    0.00022444    0.00039909
     atom   28 type  4   force =     0.00056049   -0.00025781   -0.00018513
     atom   29 type  4   force =    -0.00060222   -0.00044049    0.00039920
     atom   30 type  4   force =     0.00035856   -0.00015922   -0.00034056
     atom   31 type  4   force =    -0.00040464    0.00023437   -0.00028353
     atom   32 type  4   force =    -0.00027722   -0.00013343   -0.00004505
     atom   33 type  3   force =    -0.00045548   -0.00003654   -0.00009412
     atom   34 type  3   force =    -0.00037729    0.00034210   -0.00006008
     atom   35 type  3   force =     0.00027949    0.00037751    0.00005040
     atom   36 type  3   force =    -0.00013937    0.00000162    0.00013301
     atom   37 type  4   force =     0.00010167   -0.00034143   -0.00013693
     atom   38 type  4   force =    -0.00021370   -0.00041911   -0.00026179
     atom   39 type  4   force =     0.00017059   -0.00036192   -0.00056159
     atom   40 type  4   force =    -0.00031141   -0.00028026   -0.00005162
     atom   41 type  4   force =    -0.00023968   -0.00000384    0.00023751
     atom   42 type  4   force =     0.00004649   -0.00022110    0.00004160
     atom   43 type  4   force =    -0.00015846    0.00014640   -0.00039038
     atom   44 type  4   force =    -0.00016473   -0.00000237    0.00015136
     atom   45 type  4   force =    -0.00003845    0.00002685    0.00018073
     atom   46 type  4   force =     0.00010309    0.00033720   -0.00057869
     atom   47 type  4   force =    -0.00018463   -0.00008164    0.00055521
     atom   48 type  4   force =     0.00065711    0.00007321   -0.00020088
     atom   49 type  4   force =    -0.00046704   -0.00058046    0.00027928
     atom   50 type  4   force =     0.00038503    0.00011530   -0.00037352
     atom   51 type  4   force =    -0.00026689    0.00009643   -0.00028358
     atom   52 type  4   force =     0.00004083   -0.00021542    0.00014480
     atom   53 type  1   force =     0.00080920    0.00009094   -0.00006547
     atom   54 type  1   force =     0.00094808    0.00058846   -0.00176982
     atom   55 type  2   force =     0.00087594    0.00114382    0.00541595
     atom   56 type  1   force =    -0.00078088   -0.00083292   -0.00112619
     atom   57 type  1   force =     0.00000000    0.00007608    0.00010457
     atom   58 type  1   force =    -0.00017834    0.00001386    0.00001319
     atom   59 type  1   force =     0.00151626    0.00110323    0.00048403
     atom   60 type  2   force =    -0.00013166   -0.00008227   -0.00191084
     atom   61 type  2   force =     0.00126803    0.00116887    0.00490308
     atom   62 type  1   force =    -0.00028880   -0.00069622   -0.00131764
     atom   63 type  1   force =     0.00002926    0.00022001   -0.00020546
     atom   64 type  1   force =     0.00040141   -0.00002235    0.00022564
     atom   65 type  3   force =    -0.00023995   -0.00081251   -0.00246562
     atom   66 type  3   force =     0.00047324   -0.00093013    0.00174897
     atom   67 type  3   force =     0.00038346    0.00147515    0.00122899
     atom   68 type  3   force =    -0.00083084    0.00070862   -0.00075306
     atom   69 type  4   force =    -0.00068147    0.00030880    0.00083778
     atom   70 type  4   force =    -0.00020073    0.00002887   -0.00014254
     atom   71 type  4   force =     0.00012606    0.00005407   -0.00079451
     atom   72 type  4   force =     0.00028910   -0.00040066    0.00135499
     atom   73 type  4   force =    -0.00081765    0.00068811    0.00189517
     atom   74 type  4   force =     0.00025725   -0.00056166   -0.00096123
     atom   75 type  4   force =    -0.00155841   -0.00043762    0.00106436
     atom   76 type  4   force =     0.00019159   -0.00078185    0.00141682
     atom   77 type  4   force =    -0.00046274   -0.00000719    0.00064148
     atom   78 type  4   force =    -0.00028162   -0.00024410   -0.00026639
     atom   79 type  4   force =     0.00026790    0.00030009    0.00063304
     atom   80 type  4   force =     0.00013585    0.00064962   -0.00049431
     atom   81 type  4   force =    -0.00000077   -0.00055525   -0.00056546
     atom   82 type  4   force =     0.00093378   -0.00073924    0.00077072
     atom   83 type  4   force =    -0.00002493    0.00069476    0.00038570
     atom   84 type  4   force =    -0.00055075    0.00019647    0.00063498
     atom   85 type  3   force =    -0.00019892   -0.00090127   -0.00251739
     atom   86 type  3   force =     0.00000123    0.00008041    0.00305866
     atom   87 type  3   force =     0.00056060    0.00117832    0.00271278
     atom   88 type  3   force =    -0.00062881    0.00068895   -0.00074363
     atom   89 type  4   force =    -0.00020918   -0.00016780    0.00044485
     atom   90 type  4   force =    -0.00044105   -0.00037120   -0.00114304
     atom   91 type  4   force =     0.00030402    0.00026920   -0.00134179
     atom   92 type  4   force =     0.00031109   -0.00036410    0.00108194
     atom   93 type  4   force =    -0.00010356    0.00108799    0.00104977
     atom   94 type  4   force =     0.00058605    0.00089649    0.00142617
     atom   95 type  4   force =    -0.00038506    0.00020130    0.00125416
     atom   96 type  4   force =    -0.00023522   -0.00024856    0.00110991
     atom   97 type  4   force =    -0.00010067   -0.00053244    0.00079038
     atom   98 type  4   force =     0.00005193   -0.00022565   -0.00093735
     atom   99 type  4   force =     0.00071603   -0.00008342    0.00064263
     atom  100 type  4   force =     0.00009207    0.00044083   -0.00039050
     atom  101 type  4   force =    -0.00054950   -0.00000425   -0.00021788
     atom  102 type  4   force =     0.00129463   -0.00099690   -0.00047284
     atom  103 type  4   force =     0.00032940    0.00026376    0.00031332
     atom  104 type  4   force =    -0.00004169   -0.00060869   -0.00017048
     atom  105 type  1   force =    -0.00080102    0.00189582   -0.00679503
     atom  106 type  1   force =     0.02819891    0.01358602    0.02208527
     atom  107 type  2   force =     0.00165117    0.00042014   -0.01053781
     atom  108 type  1   force =    -0.03107005    0.02302404    0.01684186
     atom  109 type  1   force =     0.00404467   -0.00291537   -0.00341126
     atom  110 type  1   force =    -0.00138159   -0.00645422   -0.00545633
     atom  111 type  1   force =    -0.00371067    0.00227891   -0.00599121
     atom  112 type  2   force =     0.03221230    0.01635784   -0.01019658
     atom  113 type  2   force =     0.00159090    0.00118396   -0.01009408
     atom  114 type  1   force =    -0.03181163    0.02428613    0.01781801
     atom  115 type  1   force =     0.00361221   -0.00483807   -0.00439477
     atom  116 type  1   force =    -0.00480127   -0.00806275   -0.00658325
     atom  117 type  3   force =    -0.02899948   -0.03570892   -0.06275605
     atom  118 type  3   force =     0.00317702    0.00035646   -0.00699306
     atom  119 type  3   force =     0.00072545   -0.00068163   -0.00917022
     atom  120 type  3   force =     0.02797071   -0.05773891   -0.08372166
     atom  121 type  4   force =    -0.00653293   -0.00321981    0.03048334
     atom  122 type  4   force =    -0.00141858   -0.00115320    0.00260585
     atom  123 type  4   force =     0.00158593   -0.00098887    0.00486346
     atom  124 type  4   force =     0.00353224    0.00316016    0.03400647
     atom  125 type  4   force =    -0.00226273   -0.00226835    0.03408997
     atom  126 type  4   force =    -0.00086271    0.00067352    0.00299297
     atom  127 type  4   force =     0.00218423    0.00312863    0.00434835
     atom  128 type  4   force =    -0.00315904   -0.00170914    0.02232184
     atom  129 type  4   force =    -0.01251490    0.03637714    0.00497311
     atom  130 type  4   force =    -0.00148861    0.00034231    0.00236874
     atom  131 type  4   force =    -0.01944725    0.00356843    0.00994476
     atom  132 type  4   force =    -0.00106558    0.00355912    0.00433996
     atom  133 type  4   force =    -0.00296071    0.00063263    0.00240617
     atom  134 type  4   force =     0.00146617   -0.00432767    0.00352584
     atom  135 type  4   force =     0.01379297    0.02361050   -0.00090311
     atom  136 type  4   force =     0.01321122   -0.00065070    0.00240373
     atom  137 type  3   force =    -0.03818167   -0.04126814   -0.06616647
     atom  138 type  3   force =     0.00646268   -0.00301361   -0.00142541
     atom  139 type  3   force =     0.00028613   -0.00157525   -0.00940903
     atom  140 type  3   force =     0.02905769   -0.05118668   -0.08327334
     atom  141 type  4   force =    -0.00102931    0.00273732    0.02934610
     atom  142 type  4   force =     0.00049179    0.00232977   -0.00625059
     atom  143 type  4   force =     0.00164617   -0.00085770    0.00427977
     atom  144 type  4   force =     0.00423029    0.00183993    0.03459827
     atom  145 type  4   force =     0.00899455    0.00384597    0.03125711
     atom  146 type  4   force =    -0.00029208    0.00052995    0.00171751
     atom  147 type  4   force =     0.00269401    0.00344460    0.00396538
     atom  148 type  4   force =    -0.00395403   -0.00136498    0.02223462
     atom  149 type  4   force =    -0.00997054    0.03016965    0.00426011
     atom  150 type  4   force =    -0.00191323    0.00042418    0.00279703
     atom  151 type  4   force =    -0.01850418    0.00504138    0.00991901
     atom  152 type  4   force =    -0.00081976    0.00343525    0.00431886
     atom  153 type  4   force =    -0.00133525    0.00026754    0.00297482
     atom  154 type  4   force =     0.00216698   -0.00249062    0.00282587
     atom  155 type  4   force =     0.01474871    0.02463026    0.00016372
     atom  156 type  4   force =     0.02235971   -0.00368080    0.00144618
     atom  157 type  4   force =    -0.00514438   -0.00110236   -0.00541048
     atom  158 type  5   force =     0.00140452   -0.00147801    0.00065858

     Total force =     0.237664     Total SCF correction =     0.003576
 
     init_run     :     10.77s CPU     11.52s WALL (       1 calls)
     electrons    :   1145.73s CPU   1195.18s WALL (       1 calls)
     forces       :      5.15s CPU      5.64s WALL (       1 calls)
     force_london :      0.12s CPU      0.12s WALL (       1 calls)

     Called by init_run:
     wfcinit      :      6.85s CPU      7.01s WALL (       1 calls)
     potinit      :      0.63s CPU      0.82s WALL (       1 calls)
     hinit0       :      1.73s CPU      1.84s WALL (       1 calls)

     Called by electrons:
     c_bands      :    912.06s CPU    937.89s WALL (      61 calls)
     sum_band     :    147.79s CPU    159.96s WALL (      61 calls)
     v_of_rho     :     20.11s CPU     21.29s WALL (      62 calls)
     newd         :     41.96s CPU     52.02s WALL (      62 calls)
     mix_rho      :     22.83s CPU     23.26s WALL (      61 calls)
     energy_londo :      0.11s CPU      0.11s WALL (       1 calls)

     Called by c_bands:
     init_us_2    :      2.26s CPU      2.33s WALL (     248 calls)
     init_us_2:cp :      2.26s CPU      2.33s WALL (     248 calls)
     regterg      :    894.12s CPU    919.67s WALL (     125 calls)

     Called by *egterg:
     rdiaghg      :    255.46s CPU    267.95s WALL (     508 calls)
     h_psi        :    358.00s CPU    364.02s WALL (     510 calls)
     s_psi        :     56.02s CPU     56.08s WALL (     510 calls)
     g_psi        :      0.42s CPU      0.43s WALL (     383 calls)

     Called by h_psi:
     h_psi:calbec :     82.64s CPU     87.19s WALL (     510 calls)
     vloc_psi     :    218.61s CPU    219.41s WALL (     510 calls)
     add_vuspsi   :     55.99s CPU     56.65s WALL (     510 calls)

     General routines
     calbec       :    121.93s CPU    128.69s WALL (     640 calls)
     fft          :     22.29s CPU     24.43s WALL (    1129 calls)
     ffts         :     13.63s CPU     13.67s WALL (    7565 calls)
     fftw         :    246.41s CPU    247.27s WALL (  214638 calls)
     interpolate  :      1.70s CPU      1.82s WALL (     124 calls)
 
     Parallel routines
 
     PWSCF        :  19m23.84s CPU  20m14.82s WALL

 
   This run was terminated on:  23:15:14  17Nov2025            

=------------------------------------------------------------------------------=
   JOB DONE.
=------------------------------------------------------------------------------=
