
     Program PWSCF v.7.2 starts on 17Nov2025 at 22:31:31 

     This program is part of the open-source Quantum ESPRESSO suite
     for quantum simulation of materials; please cite
         "P. Giannozzi et al., J. Phys.:Condens. Matter 21 395502 (2009);
         "P. Giannozzi et al., J. Phys.:Condens. Matter 29 465901 (2017);
         "P. Giannozzi et al., J. Chem. Phys. 152 154105 (2020);
          URL http://www.quantum-espresso.org", 
     in publications or presentations arising from this work. More details at
     http://www.quantum-espresso.org/quote

     Parallel version (MPI), running on    64 processors

     MPI processes distributed on     4 nodes
     462602 MiB available memory on the printing compute node when the environment starts
 
     Reading input from PWINPUT_atm157_ym

     Current dimensions of program PWSCF are:
     Max number of different atomic species (ntypx) = 10
     Max number of k-points (npk) =  40000
     Max angular momentum in pseudopotentials (lmaxx) =  4
     Presently no symmetry can be used with electric field

     file Ni.pbe-n-rrkjus_psl.1.0.0.UPF: wavefunction(s)  3D renormalized
     file Mn.pbe-spn-rrkjus_psl.0.3.1.UPF: wavefunction(s)  3D renormalized
     file O.pbe-rrkjus.UPF: wavefunction(s)  2S renormalized
     file H.pbe-rrkjus.UPF: wavefunction(s)  1S renormalized

     gamma-point specific algorithms are used
 
     R & G space division:  proc/nbgrp/npool/nimage =      64
     Subspace diagonalization in iterative solution of the eigenvalue problem:
     one sub-group per band group will be used
     custom distributed-memory algorithm (size of sub-group:  7*  7 procs)

 
     Parallelization info
     --------------------
     sticks:   dense  smooth     PW     G-vecs:    dense   smooth      PW
     Min         214      85     20                61830    15614    1928
     Max         216      86     22                61864    15658    1982
     Sum       13727    5503   1375              3958051  1001255  125211
 
     Using Slab Decomposition
 


     bravais-lattice index     =            0
     lattice parameter (alat)  =      17.8532  a.u.
     unit-cell volume          =   20962.6682 (a.u.)^3
     number of atoms/cell      =          158
     number of atomic types    =            5
     number of electrons       =      1108.00
     number of Kohn-Sham states=          665
     kinetic-energy cutoff     =      50.0000  Ry
     charge density cutoff     =     500.0000  Ry
     scf convergence threshold =      1.0E-06
     mixing beta               =       0.1000
     number of iterations used =            8  local-TF  mixing
     Exchange-correlation=  SLA  PW   PBE  PBE
                           (   1   4   3   4   0   0   0)

     celldm(1)=  17.853155  celldm(2)=   0.000000  celldm(3)=   0.000000
     celldm(4)=   0.000000  celldm(5)=   0.000000  celldm(6)=   0.000000

     crystal axes: (cart. coord. in units of alat)
               a(1) = (   1.000000   0.000000   0.000000 )  
               a(2) = (   0.003237   1.081997   0.000000 )  
               a(3) = (   0.000000   0.000000   3.404673 )  

     reciprocal axes: (cart. coord. in units 2 pi/alat)
               b(1) = (  1.000000 -0.002992  0.000000 )  
               b(2) = (  0.000000  0.924217  0.000000 )  
               b(3) = (  0.000000  0.000000  0.293714 )  


     PseudoPot. # 1 for Ni read from file:
     ~/PSEUDO/Ni.pbe-n-rrkjus_psl.1.0.0.UPF
     MD5 check sum: Not computed, couldn't open file
     Pseudo is Ultrasoft + core correction, Zval = 10.0
     Generated using "atomic" code by A. Dal Corso  v.5.1.2
     Using radial grid of 1195 points,  6 beta functions with: 
                l(1) =   0
                l(2) =   0
                l(3) =   1
                l(4) =   1
                l(5) =   2
                l(6) =   2
     Q(r) pseudized with 0 coefficients 


     PseudoPot. # 2 for Mn read from file:
     ~/PSEUDO/Mn.pbe-spn-rrkjus_psl.0.3.1.UPF
     MD5 check sum: Not computed, couldn't open file
     Pseudo is Ultrasoft + core correction, Zval = 15.0
     Generated using &quot;atomic&quot; code by A. Dal Corso  v.6.2.2
     Using radial grid of 1187 points,  6 beta functions with: 
                l(1) =   0
                l(2) =   0
                l(3) =   1
                l(4) =   1
                l(5) =   2
                l(6) =   2
     Q(r) pseudized with 0 coefficients 


     PseudoPot. # 3 for P  read from file:
     ~/PSEUDO/P.pbe-n-rrkjus_psl.1.0.0.UPF
     MD5 check sum: Not computed, couldn't open file
     Pseudo is Ultrasoft + core correction, Zval =  5.0
     Generated using "atomic" code by A. Dal Corso  v.5.1
     Using radial grid of 1147 points,  6 beta functions with: 
                l(1) =   0
                l(2) =   0
                l(3) =   1
                l(4) =   1
                l(5) =   2
                l(6) =   2
     Q(r) pseudized with 0 coefficients 


     PseudoPot. # 4 for O  read from file:
     ~/PSEUDO/O.pbe-rrkjus.UPF
     MD5 check sum: Not computed, couldn't open file
     Pseudo is Ultrasoft, Zval =  6.0
     Generated by new atomic code, or converted to UPF format
     Using radial grid of 1269 points,  4 beta functions with: 
                l(1) =   0
                l(2) =   0
                l(3) =   1
                l(4) =   1
     Q(r) pseudized with 0 coefficients 


     PseudoPot. # 5 for H  read from file:
     ~/PSEUDO/H.pbe-rrkjus.UPF
     MD5 check sum: Not computed, couldn't open file
     Pseudo is Ultrasoft, Zval =  1.0
     Generated by new atomic code, or converted to UPF format
     Using radial grid of 1061 points,  2 beta functions with: 
                l(1) =   0
                l(2) =   0
     Q(r) pseudized with 0 coefficients 


     atomic species   valence    mass     pseudopotential
     Ni               10.00    58.69300     Ni( 1.00)
     Mn               15.00    54.93800     Mn( 1.00)
     P                 5.00    30.97300     P ( 1.00)
     O                 6.00    15.99900     O ( 1.00)
     H                 1.00     1.00790     H ( 1.00)

     Starting magnetic structure 
     atomic species   magnetization
     Ni              1.000
     Mn              1.000
     P               1.000
     O               1.000
     H               0.000

     No symmetry found



   Cartesian axes

     site n.     atom                  positions (alat units)
         1        Ni     tau(   1) = (   0.2518260   0.8295784   1.6794106  )
         2        Ni     tau(   2) = (   0.4927480   0.7713237   1.3753272  )
         3        Mn     tau(   3) = (  -0.0019104   0.2893041   1.7111611  )
         4        Ni     tau(   4) = (   0.2570296   0.2258471   1.3782297  )
         5        Ni     tau(   5) = (   0.9983333   1.0731578   1.5373129  )
         6        Ni     tau(   6) = (   0.2535858   0.5283692   1.5435542  )
         7        Ni     tau(   7) = (   0.7527859   0.8301859   1.6808772  )
         8        Mn     tau(   8) = (   0.9889930   0.7674276   1.3721895  )
         9        Mn     tau(   9) = (   0.5003935   0.2926237   1.7029517  )
        10        Ni     tau(  10) = (   0.7577903   0.2268632   1.3799398  )
        11        Ni     tau(  11) = (   0.4980054   1.0712871   1.5393278  )
        12        Ni     tau(  12) = (   0.7539105   0.5321788   1.5382577  )
        13        P      tau(  13) = (   0.2118656   0.9693900   1.3793414  )
        14        P      tau(  14) = (   0.4660278   0.6478965   1.6959065  )
        15        P      tau(  15) = (   0.2832051   0.0929046   1.6945962  )
        16        P      tau(  16) = (   0.0418193   0.4207457   1.3872791  )
        17        O      tau(  17) = (   0.1336657   0.9013866   1.5145591  )
        18        O      tau(  18) = (   0.3860059   0.7008468   1.5503267  )
        19        O      tau(  19) = (   0.3599779   0.1579283   1.5547376  )
        20        O      tau(  20) = (   0.1188180   0.3521237   1.5214666  )
        21        O      tau(  21) = (   0.1529170   0.8803112   1.2547888  )
        22        O      tau(  22) = (   0.4066564   0.7467891   1.8079626  )
        23        O      tau(  23) = (   0.3410378   0.1858743   1.8146268  )
        24        O      tau(  24) = (   0.1011967   0.3326204   1.2622753  )
        25        O      tau(  25) = (   0.0991588   0.5750199   1.3866315  )
        26        O      tau(  26) = (   0.3434848   1.0201382   1.6942680  )
        27        O      tau(  27) = (   0.3789457   0.4154633   1.3977404  )
        28        O      tau(  28) = (   0.1193596   0.0996523   1.6839051  )
        29        O      tau(  29) = (   0.1276068   0.6477554   1.6810586  )
        30        O      tau(  30) = (   0.4128914   0.4905501   1.7021188  )
        31        O      tau(  31) = (   0.1478328   0.0409865   1.3813227  )
        32        O      tau(  32) = (   0.3745804   0.9617408   1.3915397  )
        33        P      tau(  33) = (   0.7074954   0.9695156   1.3792001  )
        34        P      tau(  34) = (   0.9643217   0.6427850   1.6992735  )
        35        P      tau(  35) = (   0.7838284   0.0944368   1.7001908  )
        36        P      tau(  36) = (   0.5416777   0.4260543   1.3855657  )
        37        O      tau(  37) = (   0.6306840   0.8974445   1.5137782  )
        38        O      tau(  38) = (   0.8854609   0.7040046   1.5561567  )
        39        O      tau(  39) = (   0.8648068   0.1680159   1.5645156  )
        40        O      tau(  40) = (   0.6206025   0.3577624   1.5198754  )
        41        O      tau(  41) = (   0.6483131   0.8811005   1.2540249  )
        42        O      tau(  42) = (   0.9040880   0.7389950   1.8133540  )
        43        O      tau(  43) = (   0.8397112   0.1841216   1.8224656  )
        44        O      tau(  44) = (   0.6014551   0.3360063   1.2621344  )
        45        O      tau(  45) = (   0.5989499   0.5805885   1.3836427  )
        46        O      tau(  46) = (   0.8435274   1.0213000   1.6914443  )
        47        O      tau(  47) = (   0.8784703   0.4145143   1.3944208  )
        48        O      tau(  48) = (   0.6206951   0.1010299   1.6851757  )
        49        O      tau(  49) = (   0.6298363   0.6504103   1.6806734  )
        50        O      tau(  50) = (   0.9052265   0.4866691   1.6920526  )
        51        O      tau(  51) = (   0.6468562   0.0420961   1.3852950  )
        52        O      tau(  52) = (   0.8702125   0.9631440   1.3913059  )
        53        Ni     tau(  53) = (   0.2420320   0.8169913   1.0699082  )
        54        Ni     tau(  54) = (   0.4893084   0.7542727   0.7477128  )
        55        Mn     tau(  55) = (   0.0085152   0.2729728   1.0755565  )
        56        Ni     tau(  56) = (   0.2558246   0.2079345   0.7498450  )
        57        Ni     tau(  57) = (   0.9991959   1.0516583   0.9080455  )
        58        Ni     tau(  58) = (   0.2490231   0.5149840   0.9092594  )
        59        Ni     tau(  59) = (   0.7373131   0.8159965   1.0690453  )
        60        Mn     tau(  60) = (   0.9859093   0.7511625   0.7423903  )
        61        Mn     tau(  61) = (   0.5085552   0.2755447   1.0757185  )
        62        Ni     tau(  62) = (   0.7532989   0.2074622   0.7493279  )
        63        Ni     tau(  63) = (   0.4981517   1.0523018   0.9093468  )
        64        Ni     tau(  64) = (   0.7469109   0.5147379   0.9081681  )
        65        P      tau(  65) = (   0.2119924   0.9497675   0.7533413  )
        66        P      tau(  66) = (   0.4579509   0.6252695   1.0650744  )
        67        P      tau(  67) = (   0.2855349   0.0724244   1.0650326  )
        68        P      tau(  68) = (   0.0381112   0.4032615   0.7561117  )
        69        O      tau(  69) = (   0.1352995   0.8818598   0.8892857  )
        70        O      tau(  70) = (   0.3789570   0.6924463   0.9291468  )
        71        O      tau(  71) = (   0.3610496   0.1419327   0.9291660  )
        72        O      tau(  72) = (   0.1179700   0.3356534   0.8894858  )
        73        O      tau(  73) = (   0.1524325   0.8608343   0.6290918  )
        74        O      tau(  74) = (   0.3994952   0.7128748   1.1905493  )
        75        O      tau(  75) = (   0.3426976   0.1634744   1.1889742  )
        76        O      tau(  76) = (   0.0989151   0.3155758   0.6321220  )
        77        O      tau(  77) = (   0.0942206   0.5581494   0.7569623  )
        78        O      tau(  78) = (   0.3506297   1.0014456   1.0645371  )
        79        O      tau(  79) = (   0.3750155   0.3983181   0.7655049  )
        80        O      tau(  80) = (   0.1228303   0.0764842   1.0543924  )
        81        O      tau(  81) = (   0.1204299   0.6293201   1.0530905  )
        82        O      tau(  82) = (   0.4000664   0.4708612   1.0626359  )
        83        O      tau(  83) = (   0.1483182   0.0216333   0.7546099  )
        84        O      tau(  84) = (   0.3748687   0.9435072   0.7627918  )
        85        P      tau(  85) = (   0.7056901   0.9492898   0.7521526  )
        86        P      tau(  86) = (   0.9575286   0.6220438   1.0623609  )
        87        P      tau(  87) = (   0.7847866   0.0710549   1.0641979  )
        88        P      tau(  88) = (   0.5377283   0.4083400   0.7551622  )
        89        O      tau(  89) = (   0.6295714   0.8788409   0.8879407  )
        90        O      tau(  90) = (   0.8781778   0.6902700   0.9288966  )
        91        O      tau(  91) = (   0.8603186   0.1398018   0.9279591  )
        92        O      tau(  92) = (   0.6174712   0.3389159   0.8881839  )
        93        O      tau(  93) = (   0.6471291   0.8583376   0.6285166  )
        94        O      tau(  94) = (   0.8962302   0.7094244   1.1861651  )
        95        O      tau(  95) = (   0.8420493   0.1616933   1.1885419  )
        96        O      tau(  96) = (   0.5995227   0.3203391   0.6315608  )
        97        O      tau(  97) = (   0.5932354   0.5636910   0.7569738  )
        98        O      tau(  98) = (   0.8487155   0.9994995   1.0634446  )
        99        O      tau(  99) = (   0.8751772   0.3959680   0.7655094  )
       100        O      tau( 100) = (   0.6223291   0.0767949   1.0539182  )
       101        O      tau( 101) = (   0.6209785   0.6292365   1.0537708  )
       102        O      tau( 102) = (   0.9010178   0.4674118   1.0608723  )
       103        O      tau( 103) = (   0.6430869   0.0213354   0.7538098  )
       104        O      tau( 104) = (   0.8684566   0.9446034   0.7630440  )
       105        Ni     tau( 105) = (   0.2392451   0.7980692   0.4424501  )
       106        Ni     tau( 106) = (   0.4865215   0.7353506   0.1202547  )
       107        Mn     tau( 107) = (   0.0057284   0.2540508   0.4480984  )
       108        Ni     tau( 108) = (   0.2530377   0.1890124   0.1223869  )
       109        Ni     tau( 109) = (   0.9964090   1.0327362   0.2805874  )
       110        Ni     tau( 110) = (   0.2462362   0.4960619   0.2818013  )
       111        Ni     tau( 111) = (   0.7345262   0.7970744   0.4415872  )
       112        Mn     tau( 112) = (   0.9831224   0.7322404   0.1149322  )
       113        Mn     tau( 113) = (   0.5057684   0.2566226   0.4482604  )
       114        Ni     tau( 114) = (   0.7505120   0.1885401   0.1218698  )
       115        Ni     tau( 115) = (   0.4953648   1.0333797   0.2818887  )
       116        Ni     tau( 116) = (   0.7441241   0.4958159   0.2807100  )
       117        P      tau( 117) = (   0.2092055   0.9308455   0.1258832  )
       118        P      tau( 118) = (   0.4551640   0.6063475   0.4376163  )
       119        P      tau( 119) = (   0.2827481   0.0535023   0.4375745  )
       120        P      tau( 120) = (   0.0353243   0.3843395   0.1286536  )
       121        O      tau( 121) = (   0.1325127   0.8629378   0.2618276  )
       122        O      tau( 122) = (   0.3761702   0.6735242   0.3016887  )
       123        O      tau( 123) = (   0.3582627   0.1230106   0.3017079  )
       124        O      tau( 124) = (   0.1151831   0.3167313   0.2620277  )
       125        O      tau( 125) = (   0.1496456   0.8419122   0.0016337  )
       126        O      tau( 126) = (   0.3967083   0.6939527   0.5630912  )
       127        O      tau( 127) = (   0.3399107   0.1445523   0.5615161  )
       128        O      tau( 128) = (   0.0961282   0.2966537   0.0046639  )
       129        O      tau( 129) = (   0.0914337   0.5392273   0.1295042  )
       130        O      tau( 130) = (   0.3478428   0.9825235   0.4370790  )
       131        O      tau( 131) = (   0.3722287   0.3793961   0.1380469  )
       132        O      tau( 132) = (   0.1200434   0.0575621   0.4269343  )
       133        O      tau( 133) = (   0.1176431   0.6103980   0.4256324  )
       134        O      tau( 134) = (   0.3972796   0.4519391   0.4351778  )
       135        O      tau( 135) = (   0.1455313   0.0027113   0.1271518  )
       136        O      tau( 136) = (   0.3720819   0.9245852   0.1353338  )
       137        P      tau( 137) = (   0.7029032   0.9303678   0.1246945  )
       138        P      tau( 138) = (   0.9547417   0.6031217   0.4349028  )
       139        P      tau( 139) = (   0.7819997   0.0521328   0.4367398  )
       140        P      tau( 140) = (   0.5349415   0.3894179   0.1277041  )
       141        O      tau( 141) = (   0.6267846   0.8599188   0.2604826  )
       142        O      tau( 142) = (   0.8753909   0.6713480   0.3014385  )
       143        O      tau( 143) = (   0.8575317   0.1208797   0.3005010  )
       144        O      tau( 144) = (   0.6146843   0.3199938   0.2607258  )
       145        O      tau( 145) = (   0.6443422   0.8394155   0.0010585  )
       146        O      tau( 146) = (   0.8934434   0.6905023   0.5587070  )
       147        O      tau( 147) = (   0.8392624   0.1427713   0.5610838  )
       148        O      tau( 148) = (   0.5967359   0.3014171   0.0041027  )
       149        O      tau( 149) = (   0.5904485   0.5447689   0.1295157  )
       150        O      tau( 150) = (   0.8459286   0.9805774   0.4359865  )
       151        O      tau( 151) = (   0.8723903   0.3770459   0.1380513  )
       152        O      tau( 152) = (   0.6195422   0.0578729   0.4264602  )
       153        O      tau( 153) = (   0.6181917   0.6103144   0.4263127  )
       154        O      tau( 154) = (   0.8982309   0.4484897   0.4334142  )
       155        O      tau( 155) = (   0.6403000   0.0024133   0.1263517  )
       156        O      tau( 156) = (   0.8656697   0.9256814   0.1355859  )
       157        O      tau( 157) = (   0.1071329   0.3581903   1.8457793  )
       158        H      tau( 158) = (   0.1953720   0.3041484   1.8614914  )

     -------------------------------------------------
     Parameters for Dispersion (Grimme-D2) Correction:
     -------------------------------------------------
       atom      VdW radius       C_6     

        Ni         2.952        374.666
        Mn         2.952        374.666
        P          3.222        271.980
        O          2.536         24.284
        H          1.892          4.857

     number of k points=     1  Gaussian smearing, width (Ry)=  0.0100
                       cart. coord. in units 2pi/alat
        k(    1) = (   0.0000000   0.0000000   0.0000000), wk =   1.0000000

     Dense  grid:  1979026 G-vectors     FFT dimensions: ( 128, 144, 450)

     Smooth grid:   500628 G-vectors     FFT dimensions: (  81,  90, 288)

     Estimated max dynamical RAM per process >     333.40 MB

     Estimated total dynamical RAM >      20.84 GB

     Check: negative core charge=   -0.000002
     Generating pointlists ...
     new r_m :   0.0874 (alat units)  1.5600 (a.u.) for type    1
     new r_m :   0.0769 (alat units)  1.3730 (a.u.) for type    2
     new r_m :   0.0663 (alat units)  1.1843 (a.u.) for type    3
     new r_m :   0.0432 (alat units)  0.7708 (a.u.) for type    4
     new r_m :   0.0432 (alat units)  0.7708 (a.u.) for type    5

     Initial potential from superposition of free atoms

     starting charge    1107.8886, renormalised to    1108.0000

     negative rho (up, down):  1.539E-03 4.663E-04
 
     Adding external electric field

     Computed dipole along edir(3) : 
        Dipole                1.6211 Ry au,          4.1204 Debye
        Dipole field          0.0010 Ry au, 
 
        Potential amp.       -0.1063 Ry
        Total length         54.7057 bohr
 
 
     Adding external electric field

     Computed dipole along edir(3) : 
        Dipole                1.6211 Ry au,          4.1204 Debye
        Dipole field          0.0010 Ry au, 
 
        Potential amp.       -0.1063 Ry
        Total length         54.7057 bohr
 
     Starting wfcs are  818 randomized atomic wfcs

     total cpu time spent up to now is       14.2 secs

     Self-consistent Calculation

     iteration #  1     ecut=    50.00 Ry     beta= 0.10
     Davidson diagonalization with overlap
     ethr =  1.00E-02,  avg # of iterations =  6.0

     negative rho (up, down):  4.312E-01 2.055E-07
 
     Adding external electric field

     Computed dipole along edir(3) : 
        Dipole               -3.7819 Ry au,         -9.6126 Debye
        Dipole field         -0.0023 Ry au, 
 
        Potential amp.        0.2480 Ry
        Total length         54.7057 bohr
 
 
     Adding external electric field

     Computed dipole along edir(3) : 
        Dipole               -3.7819 Ry au,         -9.6126 Debye
        Dipole field         -0.0023 Ry au, 
 
        Potential amp.        0.2480 Ry
        Total length         54.7057 bohr
 

     total cpu time spent up to now is       52.7 secs

     total energy              =   -7856.35499437 Ry
     estimated scf accuracy    <     716.53468520 Ry

     total magnetization       =   222.00 Bohr mag/cell
     absolute magnetization    =   319.91 Bohr mag/cell

     iteration #  2     ecut=    50.00 Ry     beta= 0.10
     Davidson diagonalization with overlap
     ethr =  1.00E-02,  avg # of iterations =  2.0

     negative rho (up, down):  4.094E-01 1.193E-07
 
     Adding external electric field

     Computed dipole along edir(3) : 
        Dipole               -2.4941 Ry au,         -6.3393 Debye
        Dipole field         -0.0015 Ry au, 
 
        Potential amp.        0.1636 Ry
        Total length         54.7057 bohr
 
 
     Adding external electric field

     Computed dipole along edir(3) : 
        Dipole               -2.4941 Ry au,         -6.3393 Debye
        Dipole field         -0.0015 Ry au, 
 
        Potential amp.        0.1636 Ry
        Total length         54.7057 bohr
 

     total cpu time spent up to now is       74.7 secs

     total energy              =   -7938.68161399 Ry
     estimated scf accuracy    <     221.67514186 Ry

     total magnetization       =   167.67 Bohr mag/cell
     absolute magnetization    =   214.61 Bohr mag/cell

     iteration #  3     ecut=    50.00 Ry     beta= 0.10
     Davidson diagonalization with overlap
     ethr =  1.00E-02,  avg # of iterations =  1.5

     negative rho (up, down):  3.660E-01 8.027E-08
 
     Adding external electric field

     Computed dipole along edir(3) : 
        Dipole               -2.1442 Ry au,         -5.4500 Debye
        Dipole field         -0.0013 Ry au, 
 
        Potential amp.        0.1406 Ry
        Total length         54.7057 bohr
 
 
     Adding external electric field

     Computed dipole along edir(3) : 
        Dipole               -2.1442 Ry au,         -5.4500 Debye
        Dipole field         -0.0013 Ry au, 
 
        Potential amp.        0.1406 Ry
        Total length         54.7057 bohr
 

     total cpu time spent up to now is       92.4 secs

     total energy              =   -7968.07927491 Ry
     estimated scf accuracy    <     105.49489015 Ry

     total magnetization       =   144.44 Bohr mag/cell
     absolute magnetization    =   193.13 Bohr mag/cell

     iteration #  4     ecut=    50.00 Ry     beta= 0.10
     Davidson diagonalization with overlap
     ethr =  9.52E-03,  avg # of iterations =  1.0

     negative rho (up, down):  2.974E-01 1.390E-08
 
     Adding external electric field

     Computed dipole along edir(3) : 
        Dipole               -2.0710 Ry au,         -5.2640 Debye
        Dipole field         -0.0012 Ry au, 
 
        Potential amp.        0.1358 Ry
        Total length         54.7057 bohr
 
 
     Adding external electric field

     Computed dipole along edir(3) : 
        Dipole               -2.0710 Ry au,         -5.2640 Debye
        Dipole field         -0.0012 Ry au, 
 
        Potential amp.        0.1358 Ry
        Total length         54.7057 bohr
 

     total cpu time spent up to now is      109.0 secs

     total energy              =   -7997.55154831 Ry
     estimated scf accuracy    <      86.05426043 Ry

     total magnetization       =   129.08 Bohr mag/cell
     absolute magnetization    =   179.09 Bohr mag/cell

     iteration #  5     ecut=    50.00 Ry     beta= 0.10
     Davidson diagonalization with overlap
     ethr =  7.77E-03,  avg # of iterations =  1.0

     negative rho (up, down):  7.313E-02 2.933E-09
 
     Adding external electric field

     Computed dipole along edir(3) : 
        Dipole               -1.6815 Ry au,         -4.2741 Debye
        Dipole field         -0.0010 Ry au, 
 
        Potential amp.        0.1103 Ry
        Total length         54.7057 bohr
 
 
     Adding external electric field

     Computed dipole along edir(3) : 
        Dipole               -1.6815 Ry au,         -4.2741 Debye
        Dipole field         -0.0010 Ry au, 
 
        Potential amp.        0.1103 Ry
        Total length         54.7057 bohr
 

     total cpu time spent up to now is      125.5 secs

     total energy              =   -8056.57261030 Ry
     estimated scf accuracy    <      71.97048495 Ry

     total magnetization       =   108.02 Bohr mag/cell
     absolute magnetization    =   161.59 Bohr mag/cell

     iteration #  6     ecut=    50.00 Ry     beta= 0.10
     Davidson diagonalization with overlap
     ethr =  6.50E-03,  avg # of iterations =  1.0

     negative rho (up, down):  8.655E-04 2.336E-03
 
     Adding external electric field

     Computed dipole along edir(3) : 
        Dipole               -1.2157 Ry au,         -3.0899 Debye
        Dipole field         -0.0007 Ry au, 
 
        Potential amp.        0.0797 Ry
        Total length         54.7057 bohr
 
 
     Adding external electric field

     Computed dipole along edir(3) : 
        Dipole               -1.2157 Ry au,         -3.0899 Debye
        Dipole field         -0.0007 Ry au, 
 
        Potential amp.        0.0797 Ry
        Total length         54.7057 bohr
 

     total cpu time spent up to now is      143.7 secs

     total energy              =   -8075.77578649 Ry
     estimated scf accuracy    <      22.06591658 Ry

     total magnetization       =   100.00 Bohr mag/cell
     absolute magnetization    =   136.17 Bohr mag/cell

     iteration #  7     ecut=    50.00 Ry     beta= 0.10
     Davidson diagonalization with overlap
     ethr =  1.99E-03,  avg # of iterations =  6.5

     negative rho (up, down):  8.270E-04 2.210E-03
 
     Adding external electric field

     Computed dipole along edir(3) : 
        Dipole               -1.2032 Ry au,         -3.0584 Debye
        Dipole field         -0.0007 Ry au, 
 
        Potential amp.        0.0789 Ry
        Total length         54.7057 bohr
 
 
     Adding external electric field

     Computed dipole along edir(3) : 
        Dipole               -1.2032 Ry au,         -3.0584 Debye
        Dipole field         -0.0007 Ry au, 
 
        Potential amp.        0.0789 Ry
        Total length         54.7057 bohr
 

     total cpu time spent up to now is      172.3 secs

     total energy              =   -8078.99812769 Ry
     estimated scf accuracy    <      42.47361662 Ry

     total magnetization       =    64.33 Bohr mag/cell
     absolute magnetization    =    82.47 Bohr mag/cell

     iteration #  8     ecut=    50.00 Ry     beta= 0.10
     Davidson diagonalization with overlap
     ethr =  1.99E-03,  avg # of iterations =  1.0

     negative rho (up, down):  8.035E-04 2.112E-03
 
     Adding external electric field

     Computed dipole along edir(3) : 
        Dipole               -1.1927 Ry au,         -3.0314 Debye
        Dipole field         -0.0007 Ry au, 
 
        Potential amp.        0.0782 Ry
        Total length         54.7057 bohr
 
 
     Adding external electric field

     Computed dipole along edir(3) : 
        Dipole               -1.1927 Ry au,         -3.0314 Debye
        Dipole field         -0.0007 Ry au, 
 
        Potential amp.        0.0782 Ry
        Total length         54.7057 bohr
 

     total cpu time spent up to now is      189.0 secs

     total energy              =   -8079.05205608 Ry
     estimated scf accuracy    <      39.78471640 Ry

     total magnetization       =    65.32 Bohr mag/cell
     absolute magnetization    =    82.78 Bohr mag/cell

     iteration #  9     ecut=    50.00 Ry     beta= 0.10
     Davidson diagonalization with overlap
     ethr =  1.99E-03,  avg # of iterations =  1.0

     negative rho (up, down):  8.320E-04 2.141E-03
 
     Adding external electric field

     Computed dipole along edir(3) : 
        Dipole               -1.2108 Ry au,         -3.0776 Debye
        Dipole field         -0.0007 Ry au, 
 
        Potential amp.        0.0794 Ry
        Total length         54.7057 bohr
 
 
     Adding external electric field

     Computed dipole along edir(3) : 
        Dipole               -1.2108 Ry au,         -3.0776 Debye
        Dipole field         -0.0007 Ry au, 
 
        Potential amp.        0.0794 Ry
        Total length         54.7057 bohr
 

     total cpu time spent up to now is      205.1 secs

     total energy              =   -8079.10953124 Ry
     estimated scf accuracy    <      38.29218336 Ry

     total magnetization       =    65.78 Bohr mag/cell
     absolute magnetization    =    82.78 Bohr mag/cell

     iteration # 10     ecut=    50.00 Ry     beta= 0.10
     Davidson diagonalization with overlap
     ethr =  1.99E-03,  avg # of iterations =  1.0

     negative rho (up, down):  1.070E-03 2.745E-03
 
     Adding external electric field

     Computed dipole along edir(3) : 
        Dipole               -0.9594 Ry au,         -2.4386 Debye
        Dipole field         -0.0006 Ry au, 
 
        Potential amp.        0.0629 Ry
        Total length         54.7057 bohr
 
 
     Adding external electric field

     Computed dipole along edir(3) : 
        Dipole               -0.9594 Ry au,         -2.4386 Debye
        Dipole field         -0.0006 Ry au, 
 
        Potential amp.        0.0629 Ry
        Total length         54.7057 bohr
 

     total cpu time spent up to now is      220.6 secs

     total energy              =   -8078.32383482 Ry
     estimated scf accuracy    <      39.49623481 Ry

     total magnetization       =    65.54 Bohr mag/cell
     absolute magnetization    =    82.42 Bohr mag/cell

     iteration # 11     ecut=    50.00 Ry     beta= 0.10
     Davidson diagonalization with overlap
     ethr =  1.99E-03,  avg # of iterations =  1.0

     negative rho (up, down):  9.253E-04 2.631E-03
 
     Adding external electric field

     Computed dipole along edir(3) : 
        Dipole               -0.9737 Ry au,         -2.4749 Debye
        Dipole field         -0.0006 Ry au, 
 
        Potential amp.        0.0639 Ry
        Total length         54.7057 bohr
 
 
     Adding external electric field

     Computed dipole along edir(3) : 
        Dipole               -0.9737 Ry au,         -2.4749 Debye
        Dipole field         -0.0006 Ry au, 
 
        Potential amp.        0.0639 Ry
        Total length         54.7057 bohr
 

     total cpu time spent up to now is      236.9 secs

     total energy              =   -8078.49946512 Ry
     estimated scf accuracy    <      17.36226605 Ry

     total magnetization       =    75.49 Bohr mag/cell
     absolute magnetization    =    89.49 Bohr mag/cell

     iteration # 12     ecut=    50.00 Ry     beta= 0.10
     Davidson diagonalization with overlap
     ethr =  1.57E-03,  avg # of iterations =  1.0

     negative rho (up, down):  6.799E-04 1.941E-03
 
     Adding external electric field

     Computed dipole along edir(3) : 
        Dipole               -1.0318 Ry au,         -2.6226 Debye
        Dipole field         -0.0006 Ry au, 
 
        Potential amp.        0.0677 Ry
        Total length         54.7057 bohr
 
 
     Adding external electric field

     Computed dipole along edir(3) : 
        Dipole               -1.0318 Ry au,         -2.6226 Debye
        Dipole field         -0.0006 Ry au, 
 
        Potential amp.        0.0677 Ry
        Total length         54.7057 bohr
 

     total cpu time spent up to now is      252.4 secs

     total energy              =   -8078.73602505 Ry
     estimated scf accuracy    <      18.79075394 Ry

     total magnetization       =    73.78 Bohr mag/cell
     absolute magnetization    =    87.78 Bohr mag/cell

     iteration # 13     ecut=    50.00 Ry     beta= 0.10
     Davidson diagonalization with overlap
     ethr =  1.57E-03,  avg # of iterations =  1.0

     negative rho (up, down):  1.800E-03 4.629E-03
 
     Adding external electric field

     Computed dipole along edir(3) : 
        Dipole               -1.0024 Ry au,         -2.5480 Debye
        Dipole field         -0.0006 Ry au, 
 
        Potential amp.        0.0657 Ry
        Total length         54.7057 bohr
 
 
     Adding external electric field

     Computed dipole along edir(3) : 
        Dipole               -1.0024 Ry au,         -2.5480 Debye
        Dipole field         -0.0006 Ry au, 
 
        Potential amp.        0.0657 Ry
        Total length         54.7057 bohr
 

     total cpu time spent up to now is      268.0 secs

     total energy              =   -8078.21231394 Ry
     estimated scf accuracy    <      27.97781675 Ry

     total magnetization       =    68.47 Bohr mag/cell
     absolute magnetization    =    83.48 Bohr mag/cell

     iteration # 14     ecut=    50.00 Ry     beta= 0.10
     Davidson diagonalization with overlap
     ethr =  1.57E-03,  avg # of iterations =  1.0

     negative rho (up, down):  1.477E-02 1.571E-02
 
     Adding external electric field

     Computed dipole along edir(3) : 
        Dipole               -0.7835 Ry au,         -1.9915 Debye
        Dipole field         -0.0005 Ry au, 
 
        Potential amp.        0.0514 Ry
        Total length         54.7057 bohr
 
 
     Adding external electric field

     Computed dipole along edir(3) : 
        Dipole               -0.7835 Ry au,         -1.9915 Debye
        Dipole field         -0.0005 Ry au, 
 
        Potential amp.        0.0514 Ry
        Total length         54.7057 bohr
 

     total cpu time spent up to now is      283.3 secs

     total energy              =   -8077.82820328 Ry
     estimated scf accuracy    <      12.03472752 Ry

     total magnetization       =    80.16 Bohr mag/cell
     absolute magnetization    =    92.20 Bohr mag/cell

     iteration # 15     ecut=    50.00 Ry     beta= 0.10
     Davidson diagonalization with overlap
     ethr =  1.09E-03,  avg # of iterations =  1.5

     negative rho (up, down):  1.182E-02 1.458E-02
 
     Adding external electric field

     Computed dipole along edir(3) : 
        Dipole               -0.7310 Ry au,         -1.8581 Debye
        Dipole field         -0.0004 Ry au, 
 
        Potential amp.        0.0479 Ry
        Total length         54.7057 bohr
 
 
     Adding external electric field

     Computed dipole along edir(3) : 
        Dipole               -0.7310 Ry au,         -1.8581 Debye
        Dipole field         -0.0004 Ry au, 
 
        Potential amp.        0.0479 Ry
        Total length         54.7057 bohr
 

     total cpu time spent up to now is      300.4 secs

     total energy              =   -8078.40353742 Ry
     estimated scf accuracy    <       1.34899187 Ry

     total magnetization       =    97.64 Bohr mag/cell
     absolute magnetization    =   105.35 Bohr mag/cell

     iteration # 16     ecut=    50.00 Ry     beta= 0.10
     Davidson diagonalization with overlap
     ethr =  1.22E-04,  avg # of iterations =  6.5

     negative rho (up, down):  2.845E-03 7.066E-03
 
     Adding external electric field

     Computed dipole along edir(3) : 
        Dipole               -0.5809 Ry au,         -1.4764 Debye
        Dipole field         -0.0003 Ry au, 
 
        Potential amp.        0.0381 Ry
        Total length         54.7057 bohr
 
 
     Adding external electric field

     Computed dipole along edir(3) : 
        Dipole               -0.5809 Ry au,         -1.4764 Debye
        Dipole field         -0.0003 Ry au, 
 
        Potential amp.        0.0381 Ry
        Total length         54.7057 bohr
 

     total cpu time spent up to now is      321.5 secs

     total energy              =   -8078.29594251 Ry
     estimated scf accuracy    <       1.08528837 Ry

     total magnetization       =    97.56 Bohr mag/cell
     absolute magnetization    =   104.80 Bohr mag/cell

     iteration # 17     ecut=    50.00 Ry     beta= 0.10
     Davidson diagonalization with overlap
     ethr =  9.80E-05,  avg # of iterations = 12.5

     negative rho (up, down):  5.452E-03 1.167E-02
 
     Adding external electric field

     Computed dipole along edir(3) : 
        Dipole               -0.5869 Ry au,         -1.4917 Debye
        Dipole field         -0.0004 Ry au, 
 
        Potential amp.        0.0385 Ry
        Total length         54.7057 bohr
 
 
     Adding external electric field

     Computed dipole along edir(3) : 
        Dipole               -0.5869 Ry au,         -1.4917 Debye
        Dipole field         -0.0004 Ry au, 
 
        Potential amp.        0.0385 Ry
        Total length         54.7057 bohr
 

     total cpu time spent up to now is      353.7 secs

     total energy              =   -8078.35218143 Ry
     estimated scf accuracy    <       2.65610845 Ry

     total magnetization       =    92.52 Bohr mag/cell
     absolute magnetization    =    99.04 Bohr mag/cell

     iteration # 18     ecut=    50.00 Ry     beta= 0.10
     Davidson diagonalization with overlap
     ethr =  9.80E-05,  avg # of iterations =  1.5

     negative rho (up, down):  1.583E-04 1.018E-03
 
     Adding external electric field

     Computed dipole along edir(3) : 
        Dipole               -0.6486 Ry au,         -1.6485 Debye
        Dipole field         -0.0004 Ry au, 
 
        Potential amp.        0.0425 Ry
        Total length         54.7057 bohr
 
 
     Adding external electric field

     Computed dipole along edir(3) : 
        Dipole               -0.6486 Ry au,         -1.6485 Debye
        Dipole field         -0.0004 Ry au, 
 
        Potential amp.        0.0425 Ry
        Total length         54.7057 bohr
 

     total cpu time spent up to now is      370.8 secs

     total energy              =   -8078.41487221 Ry
     estimated scf accuracy    <       2.42193397 Ry

     total magnetization       =    93.11 Bohr mag/cell
     absolute magnetization    =    99.48 Bohr mag/cell

     iteration # 19     ecut=    50.00 Ry     beta= 0.10
     Davidson diagonalization with overlap
     ethr =  9.80E-05,  avg # of iterations =  1.5

     negative rho (up, down):  1.095E-05 1.821E-05
 
     Adding external electric field

     Computed dipole along edir(3) : 
        Dipole               -0.7546 Ry au,         -1.9180 Debye
        Dipole field         -0.0005 Ry au, 
 
        Potential amp.        0.0495 Ry
        Total length         54.7057 bohr
 
 
     Adding external electric field

     Computed dipole along edir(3) : 
        Dipole               -0.7546 Ry au,         -1.9180 Debye
        Dipole field         -0.0005 Ry au, 
 
        Potential amp.        0.0495 Ry
        Total length         54.7057 bohr
 

     total cpu time spent up to now is      387.4 secs

     total energy              =   -8078.46426757 Ry
     estimated scf accuracy    <       1.46587203 Ry

     total magnetization       =    93.23 Bohr mag/cell
     absolute magnetization    =    98.93 Bohr mag/cell

     iteration # 20     ecut=    50.00 Ry     beta= 0.10
     Davidson diagonalization with overlap
     ethr =  9.80E-05,  avg # of iterations =  1.5

     negative rho (up, down):  2.372E-05 2.284E-05
 
     Adding external electric field

     Computed dipole along edir(3) : 
        Dipole               -0.7542 Ry au,         -1.9169 Debye
        Dipole field         -0.0005 Ry au, 
 
        Potential amp.        0.0495 Ry
        Total length         54.7057 bohr
 
 
     Adding external electric field

     Computed dipole along edir(3) : 
        Dipole               -0.7542 Ry au,         -1.9169 Debye
        Dipole field         -0.0005 Ry au, 
 
        Potential amp.        0.0495 Ry
        Total length         54.7057 bohr
 

     total cpu time spent up to now is      403.6 secs

     total energy              =   -8078.53007517 Ry
     estimated scf accuracy    <       0.21489652 Ry

     total magnetization       =    95.58 Bohr mag/cell
     absolute magnetization    =   100.03 Bohr mag/cell

     iteration # 21     ecut=    50.00 Ry     beta= 0.10
     Davidson diagonalization with overlap
     c_bands:  1 eigenvalues not converged
     ethr =  1.94E-05,  avg # of iterations = 11.0

     negative rho (up, down):  2.993E-05 4.664E-05
 
     Adding external electric field

     Computed dipole along edir(3) : 
        Dipole               -0.6996 Ry au,         -1.7781 Debye
        Dipole field         -0.0004 Ry au, 
 
        Potential amp.        0.0459 Ry
        Total length         54.7057 bohr
 
 
     Adding external electric field

     Computed dipole along edir(3) : 
        Dipole               -0.6996 Ry au,         -1.7781 Debye
        Dipole field         -0.0004 Ry au, 
 
        Potential amp.        0.0459 Ry
        Total length         54.7057 bohr
 

     total cpu time spent up to now is      433.5 secs

     total energy              =   -8078.56481181 Ry
     estimated scf accuracy    <       0.16063750 Ry

     total magnetization       =    95.76 Bohr mag/cell
     absolute magnetization    =    99.42 Bohr mag/cell

     iteration # 22     ecut=    50.00 Ry     beta= 0.10
     Davidson diagonalization with overlap
     ethr =  1.45E-05,  avg # of iterations =  2.0

     negative rho (up, down):  6.027E-07 1.039E-06
 
     Adding external electric field

     Computed dipole along edir(3) : 
        Dipole               -0.6645 Ry au,         -1.6890 Debye
        Dipole field         -0.0004 Ry au, 
 
        Potential amp.        0.0436 Ry
        Total length         54.7057 bohr
 
 
     Adding external electric field

     Computed dipole along edir(3) : 
        Dipole               -0.6645 Ry au,         -1.6890 Debye
        Dipole field         -0.0004 Ry au, 
 
        Potential amp.        0.0436 Ry
        Total length         54.7057 bohr
 

     total cpu time spent up to now is      451.0 secs

     total energy              =   -8078.58837722 Ry
     estimated scf accuracy    <       0.09276952 Ry

     total magnetization       =    95.52 Bohr mag/cell
     absolute magnetization    =    98.17 Bohr mag/cell

     iteration # 23     ecut=    50.00 Ry     beta= 0.10
     Davidson diagonalization with overlap
     ethr =  8.37E-06,  avg # of iterations = 12.5

     negative rho (up, down):  8.327E-05 1.017E-04
 
     Adding external electric field

     Computed dipole along edir(3) : 
        Dipole               -0.6283 Ry au,         -1.5971 Debye
        Dipole field         -0.0004 Ry au, 
 
        Potential amp.        0.0412 Ry
        Total length         54.7057 bohr
 
 
     Adding external electric field

     Computed dipole along edir(3) : 
        Dipole               -0.6283 Ry au,         -1.5971 Debye
        Dipole field         -0.0004 Ry au, 
 
        Potential amp.        0.0412 Ry
        Total length         54.7057 bohr
 

     total cpu time spent up to now is      483.9 secs

     total energy              =   -8078.59548750 Ry
     estimated scf accuracy    <       0.09506644 Ry

     total magnetization       =    96.56 Bohr mag/cell
     absolute magnetization    =    98.43 Bohr mag/cell

     iteration # 24     ecut=    50.00 Ry     beta= 0.10
     Davidson diagonalization with overlap
     ethr =  8.37E-06,  avg # of iterations =  2.0

     negative rho (up, down):  3.634E-05 5.300E-05
 
     Adding external electric field

     Computed dipole along edir(3) : 
        Dipole               -0.6018 Ry au,         -1.5296 Debye
        Dipole field         -0.0004 Ry au, 
 
        Potential amp.        0.0395 Ry
        Total length         54.7057 bohr
 
 
     Adding external electric field

     Computed dipole along edir(3) : 
        Dipole               -0.6018 Ry au,         -1.5296 Debye
        Dipole field         -0.0004 Ry au, 
 
        Potential amp.        0.0395 Ry
        Total length         54.7057 bohr
 

     total cpu time spent up to now is      502.8 secs

     total energy              =   -8078.59567318 Ry
     estimated scf accuracy    <       0.06387885 Ry

     total magnetization       =    95.99 Bohr mag/cell
     absolute magnetization    =    97.36 Bohr mag/cell

     iteration # 25     ecut=    50.00 Ry     beta= 0.10
     Davidson diagonalization with overlap
     ethr =  5.77E-06,  avg # of iterations =  2.0

     negative rho (up, down):  6.109E-08 8.278E-08
 
     Adding external electric field

     Computed dipole along edir(3) : 
        Dipole               -0.5794 Ry au,         -1.4728 Debye
        Dipole field         -0.0003 Ry au, 
 
        Potential amp.        0.0380 Ry
        Total length         54.7057 bohr
 
 
     Adding external electric field

     Computed dipole along edir(3) : 
        Dipole               -0.5794 Ry au,         -1.4728 Debye
        Dipole field         -0.0003 Ry au, 
 
        Potential amp.        0.0380 Ry
        Total length         54.7057 bohr
 

     total cpu time spent up to now is      520.0 secs

     total energy              =   -8078.59537925 Ry
     estimated scf accuracy    <       0.06496001 Ry

     total magnetization       =    95.38 Bohr mag/cell
     absolute magnetization    =    96.74 Bohr mag/cell

     iteration # 26     ecut=    50.00 Ry     beta= 0.10
     Davidson diagonalization with overlap
     ethr =  5.77E-06,  avg # of iterations =  2.0

     negative rho (up, down):  1.237E-08 2.469E-08
 
     Adding external electric field

     Computed dipole along edir(3) : 
        Dipole               -0.4878 Ry au,         -1.2400 Debye
        Dipole field         -0.0003 Ry au, 
 
        Potential amp.        0.0320 Ry
        Total length         54.7057 bohr
 
 
     Adding external electric field

     Computed dipole along edir(3) : 
        Dipole               -0.4878 Ry au,         -1.2400 Debye
        Dipole field         -0.0003 Ry au, 
 
        Potential amp.        0.0320 Ry
        Total length         54.7057 bohr
 

     total cpu time spent up to now is      538.2 secs

     total energy              =   -8078.59546562 Ry
     estimated scf accuracy    <       0.04658096 Ry

     total magnetization       =    95.88 Bohr mag/cell
     absolute magnetization    =    97.26 Bohr mag/cell

     iteration # 27     ecut=    50.00 Ry     beta= 0.10
     Davidson diagonalization with overlap
     ethr =  4.20E-06,  avg # of iterations =  2.0

     negative rho (up, down):  1.925E-08 3.302E-08
 
     Adding external electric field

     Computed dipole along edir(3) : 
        Dipole               -0.5397 Ry au,         -1.3719 Debye
        Dipole field         -0.0003 Ry au, 
 
        Potential amp.        0.0354 Ry
        Total length         54.7057 bohr
 
 
     Adding external electric field

     Computed dipole along edir(3) : 
        Dipole               -0.5397 Ry au,         -1.3719 Debye
        Dipole field         -0.0003 Ry au, 
 
        Potential amp.        0.0354 Ry
        Total length         54.7057 bohr
 

     total cpu time spent up to now is      555.6 secs

     total energy              =   -8078.59703954 Ry
     estimated scf accuracy    <       0.05334653 Ry

     total magnetization       =    95.46 Bohr mag/cell
     absolute magnetization    =    96.77 Bohr mag/cell

     iteration # 28     ecut=    50.00 Ry     beta= 0.10
     Davidson diagonalization with overlap
     ethr =  4.20E-06,  avg # of iterations =  2.0

     negative rho (up, down):  1.421E-08 2.513E-08
 
     Adding external electric field

     Computed dipole along edir(3) : 
        Dipole               -0.5435 Ry au,         -1.3815 Debye
        Dipole field         -0.0003 Ry au, 
 
        Potential amp.        0.0356 Ry
        Total length         54.7057 bohr
 
 
     Adding external electric field

     Computed dipole along edir(3) : 
        Dipole               -0.5435 Ry au,         -1.3815 Debye
        Dipole field         -0.0003 Ry au, 
 
        Potential amp.        0.0356 Ry
        Total length         54.7057 bohr
 

     total cpu time spent up to now is      573.3 secs

     total energy              =   -8078.59695378 Ry
     estimated scf accuracy    <       0.06292827 Ry

     total magnetization       =    95.21 Bohr mag/cell
     absolute magnetization    =    96.52 Bohr mag/cell

     iteration # 29     ecut=    50.00 Ry     beta= 0.10
     Davidson diagonalization with overlap
     ethr =  4.20E-06,  avg # of iterations =  1.5

     negative rho (up, down):  3.799E-07 1.111E-06
 
     Adding external electric field

     Computed dipole along edir(3) : 
        Dipole               -0.5497 Ry au,         -1.3972 Debye
        Dipole field         -0.0003 Ry au, 
 
        Potential amp.        0.0361 Ry
        Total length         54.7057 bohr
 
 
     Adding external electric field

     Computed dipole along edir(3) : 
        Dipole               -0.5497 Ry au,         -1.3972 Debye
        Dipole field         -0.0003 Ry au, 
 
        Potential amp.        0.0361 Ry
        Total length         54.7057 bohr
 

     total cpu time spent up to now is      589.3 secs

     total energy              =   -8078.59738751 Ry
     estimated scf accuracy    <       0.07128563 Ry

     total magnetization       =    95.04 Bohr mag/cell
     absolute magnetization    =    96.37 Bohr mag/cell

     iteration # 30     ecut=    50.00 Ry     beta= 0.10
     Davidson diagonalization with overlap
     ethr =  4.20E-06,  avg # of iterations = 13.5

     negative rho (up, down):  5.582E-07 1.341E-06
 
     Adding external electric field

     Computed dipole along edir(3) : 
        Dipole               -0.5152 Ry au,         -1.3094 Debye
        Dipole field         -0.0003 Ry au, 
 
        Potential amp.        0.0338 Ry
        Total length         54.7057 bohr
 
 
     Adding external electric field

     Computed dipole along edir(3) : 
        Dipole               -0.5152 Ry au,         -1.3094 Debye
        Dipole field         -0.0003 Ry au, 
 
        Potential amp.        0.0338 Ry
        Total length         54.7057 bohr
 

     total cpu time spent up to now is      622.0 secs

     total energy              =   -8078.59817176 Ry
     estimated scf accuracy    <       0.05503249 Ry

     total magnetization       =    95.23 Bohr mag/cell
     absolute magnetization    =    96.58 Bohr mag/cell

     iteration # 31     ecut=    50.00 Ry     beta= 0.10
     Davidson diagonalization with overlap
     ethr =  4.20E-06,  avg # of iterations =  2.0

     negative rho (up, down):  2.490E-06 3.143E-06
 
     Adding external electric field

     Computed dipole along edir(3) : 
        Dipole               -0.4131 Ry au,         -1.0499 Debye
        Dipole field         -0.0002 Ry au, 
 
        Potential amp.        0.0271 Ry
        Total length         54.7057 bohr
 
 
     Adding external electric field

     Computed dipole along edir(3) : 
        Dipole               -0.4131 Ry au,         -1.0499 Debye
        Dipole field         -0.0002 Ry au, 
 
        Potential amp.        0.0271 Ry
        Total length         54.7057 bohr
 

     total cpu time spent up to now is      640.4 secs

     total energy              =   -8078.59850072 Ry
     estimated scf accuracy    <       0.06352639 Ry

     total magnetization       =    95.08 Bohr mag/cell
     absolute magnetization    =    96.52 Bohr mag/cell

     iteration # 32     ecut=    50.00 Ry     beta= 0.10
     Davidson diagonalization with overlap
     ethr =  4.20E-06,  avg # of iterations =  2.0

     negative rho (up, down):  1.517E-05 1.578E-05
 
     Adding external electric field

     Computed dipole along edir(3) : 
        Dipole               -0.3836 Ry au,         -0.9751 Debye
        Dipole field         -0.0002 Ry au, 
 
        Potential amp.        0.0252 Ry
        Total length         54.7057 bohr
 
 
     Adding external electric field

     Computed dipole along edir(3) : 
        Dipole               -0.3836 Ry au,         -0.9751 Debye
        Dipole field         -0.0002 Ry au, 
 
        Potential amp.        0.0252 Ry
        Total length         54.7057 bohr
 

     total cpu time spent up to now is      657.9 secs

     total energy              =   -8078.59916321 Ry
     estimated scf accuracy    <       0.03361885 Ry

     total magnetization       =    95.74 Bohr mag/cell
     absolute magnetization    =    97.13 Bohr mag/cell

     iteration # 33     ecut=    50.00 Ry     beta= 0.10
     Davidson diagonalization with overlap
     ethr =  3.03E-06,  avg # of iterations =  2.0

     negative rho (up, down):  2.370E-05 2.361E-05
 
     Adding external electric field

     Computed dipole along edir(3) : 
        Dipole               -0.3834 Ry au,         -0.9745 Debye
        Dipole field         -0.0002 Ry au, 
 
        Potential amp.        0.0251 Ry
        Total length         54.7057 bohr
 
 
     Adding external electric field

     Computed dipole along edir(3) : 
        Dipole               -0.3834 Ry au,         -0.9745 Debye
        Dipole field         -0.0002 Ry au, 
 
        Potential amp.        0.0251 Ry
        Total length         54.7057 bohr
 

     total cpu time spent up to now is      676.6 secs

     total energy              =   -8078.59945130 Ry
     estimated scf accuracy    <       0.03309365 Ry

     total magnetization       =    95.83 Bohr mag/cell
     absolute magnetization    =    97.30 Bohr mag/cell

     iteration # 34     ecut=    50.00 Ry     beta= 0.10
     Davidson diagonalization with overlap
     ethr =  2.99E-06,  avg # of iterations =  2.0

     negative rho (up, down):  1.736E-05 1.821E-05
 
     Adding external electric field

     Computed dipole along edir(3) : 
        Dipole               -0.4081 Ry au,         -1.0372 Debye
        Dipole field         -0.0002 Ry au, 
 
        Potential amp.        0.0268 Ry
        Total length         54.7057 bohr
 
 
     Adding external electric field

     Computed dipole along edir(3) : 
        Dipole               -0.4081 Ry au,         -1.0372 Debye
        Dipole field         -0.0002 Ry au, 
 
        Potential amp.        0.0268 Ry
        Total length         54.7057 bohr
 

     total cpu time spent up to now is      694.4 secs

     total energy              =   -8078.59957849 Ry
     estimated scf accuracy    <       0.03356514 Ry

     total magnetization       =    95.95 Bohr mag/cell
     absolute magnetization    =    97.33 Bohr mag/cell

     iteration # 35     ecut=    50.00 Ry     beta= 0.10
     Davidson diagonalization with overlap
     ethr =  2.99E-06,  avg # of iterations =  2.0

     negative rho (up, down):  5.200E-06 5.751E-06
 
     Adding external electric field

     Computed dipole along edir(3) : 
        Dipole               -0.2911 Ry au,         -0.7399 Debye
        Dipole field         -0.0002 Ry au, 
 
        Potential amp.        0.0191 Ry
        Total length         54.7057 bohr
 
 
     Adding external electric field

     Computed dipole along edir(3) : 
        Dipole               -0.2911 Ry au,         -0.7399 Debye
        Dipole field         -0.0002 Ry au, 
 
        Potential amp.        0.0191 Ry
        Total length         54.7057 bohr
 

     total cpu time spent up to now is      712.6 secs

     total energy              =   -8078.59869899 Ry
     estimated scf accuracy    <       0.03327332 Ry

     total magnetization       =    95.92 Bohr mag/cell
     absolute magnetization    =    97.29 Bohr mag/cell

     iteration # 36     ecut=    50.00 Ry     beta= 0.10
     Davidson diagonalization with overlap
     c_bands:  1 eigenvalues not converged
     ethr =  2.99E-06,  avg # of iterations = 11.0

     negative rho (up, down):  1.323E-05 1.410E-05
 
     Adding external electric field

     Computed dipole along edir(3) : 
        Dipole               -0.2910 Ry au,         -0.7396 Debye
        Dipole field         -0.0002 Ry au, 
 
        Potential amp.        0.0191 Ry
        Total length         54.7057 bohr
 
 
     Adding external electric field

     Computed dipole along edir(3) : 
        Dipole               -0.2910 Ry au,         -0.7396 Debye
        Dipole field         -0.0002 Ry au, 
 
        Potential amp.        0.0191 Ry
        Total length         54.7057 bohr
 

     total cpu time spent up to now is      738.8 secs

     total energy              =   -8078.59895295 Ry
     estimated scf accuracy    <       0.03294310 Ry

     total magnetization       =    95.79 Bohr mag/cell
     absolute magnetization    =    97.19 Bohr mag/cell

     iteration # 37     ecut=    50.00 Ry     beta= 0.10
     Davidson diagonalization with overlap
     ethr =  2.97E-06,  avg # of iterations =  1.0

     negative rho (up, down):  5.101E-06 5.323E-06
 
     Adding external electric field

     Computed dipole along edir(3) : 
        Dipole               -0.3640 Ry au,         -0.9252 Debye
        Dipole field         -0.0002 Ry au, 
 
        Potential amp.        0.0239 Ry
        Total length         54.7057 bohr
 
 
     Adding external electric field

     Computed dipole along edir(3) : 
        Dipole               -0.3640 Ry au,         -0.9252 Debye
        Dipole field         -0.0002 Ry au, 
 
        Potential amp.        0.0239 Ry
        Total length         54.7057 bohr
 

     total cpu time spent up to now is      754.5 secs

     total energy              =   -8078.59935736 Ry
     estimated scf accuracy    <       0.03285078 Ry

     total magnetization       =    95.74 Bohr mag/cell
     absolute magnetization    =    97.14 Bohr mag/cell

     iteration # 38     ecut=    50.00 Ry     beta= 0.10
     Davidson diagonalization with overlap
     ethr =  2.96E-06,  avg # of iterations =  1.5

     negative rho (up, down):  6.208E-06 5.935E-06
 
     Adding external electric field

     Computed dipole along edir(3) : 
        Dipole               -0.4069 Ry au,         -1.0344 Debye
        Dipole field         -0.0002 Ry au, 
 
        Potential amp.        0.0267 Ry
        Total length         54.7057 bohr
 
 
     Adding external electric field

     Computed dipole along edir(3) : 
        Dipole               -0.4069 Ry au,         -1.0344 Debye
        Dipole field         -0.0002 Ry au, 
 
        Potential amp.        0.0267 Ry
        Total length         54.7057 bohr
 

     total cpu time spent up to now is      770.3 secs

     total energy              =   -8078.59968417 Ry
     estimated scf accuracy    <       0.03254861 Ry

     total magnetization       =    95.89 Bohr mag/cell
     absolute magnetization    =    97.31 Bohr mag/cell

     iteration # 39     ecut=    50.00 Ry     beta= 0.10
     Davidson diagonalization with overlap
     ethr =  2.94E-06,  avg # of iterations =  1.0

     negative rho (up, down):  4.944E-06 6.812E-06
 
     Adding external electric field

     Computed dipole along edir(3) : 
        Dipole               -0.2753 Ry au,         -0.6997 Debye
        Dipole field         -0.0002 Ry au, 
 
        Potential amp.        0.0181 Ry
        Total length         54.7057 bohr
 
 
     Adding external electric field

     Computed dipole along edir(3) : 
        Dipole               -0.2753 Ry au,         -0.6997 Debye
        Dipole field         -0.0002 Ry au, 
 
        Potential amp.        0.0181 Ry
        Total length         54.7057 bohr
 

     total cpu time spent up to now is      786.7 secs

     total energy              =   -8078.59654005 Ry
     estimated scf accuracy    <       0.03532364 Ry

     total magnetization       =    95.90 Bohr mag/cell
     absolute magnetization    =    97.25 Bohr mag/cell

     iteration # 40     ecut=    50.00 Ry     beta= 0.10
     Davidson diagonalization with overlap
     ethr =  2.94E-06,  avg # of iterations =  1.5

     negative rho (up, down):  1.677E-05 1.952E-05
 
     Adding external electric field

     Computed dipole along edir(3) : 
        Dipole               -0.3063 Ry au,         -0.7786 Debye
        Dipole field         -0.0002 Ry au, 
 
        Potential amp.        0.0201 Ry
        Total length         54.7057 bohr
 
 
     Adding external electric field

     Computed dipole along edir(3) : 
        Dipole               -0.3063 Ry au,         -0.7786 Debye
        Dipole field         -0.0002 Ry au, 
 
        Potential amp.        0.0201 Ry
        Total length         54.7057 bohr
 

     total cpu time spent up to now is      802.7 secs

     total energy              =   -8078.59826442 Ry
     estimated scf accuracy    <       0.03118271 Ry

     total magnetization       =    95.78 Bohr mag/cell
     absolute magnetization    =    97.26 Bohr mag/cell

     iteration # 41     ecut=    50.00 Ry     beta= 0.10
     Davidson diagonalization with overlap
     ethr =  2.81E-06,  avg # of iterations =  1.0

     negative rho (up, down):  7.217E-06 8.247E-06
 
     Adding external electric field

     Computed dipole along edir(3) : 
        Dipole               -0.2892 Ry au,         -0.7350 Debye
        Dipole field         -0.0002 Ry au, 
 
        Potential amp.        0.0190 Ry
        Total length         54.7057 bohr
 
 
     Adding external electric field

     Computed dipole along edir(3) : 
        Dipole               -0.2892 Ry au,         -0.7350 Debye
        Dipole field         -0.0002 Ry au, 
 
        Potential amp.        0.0190 Ry
        Total length         54.7057 bohr
 

     total cpu time spent up to now is      818.1 secs

     total energy              =   -8078.59845537 Ry
     estimated scf accuracy    <       0.03165285 Ry

     total magnetization       =    95.84 Bohr mag/cell
     absolute magnetization    =    97.28 Bohr mag/cell

     iteration # 42     ecut=    50.00 Ry     beta= 0.10
     Davidson diagonalization with overlap
     ethr =  2.81E-06,  avg # of iterations =  1.0

     negative rho (up, down):  1.698E-05 1.588E-05
 
     Adding external electric field

     Computed dipole along edir(3) : 
        Dipole               -0.2184 Ry au,         -0.5552 Debye
        Dipole field         -0.0001 Ry au, 
 
        Potential amp.        0.0143 Ry
        Total length         54.7057 bohr
 
 
     Adding external electric field

     Computed dipole along edir(3) : 
        Dipole               -0.2184 Ry au,         -0.5552 Debye
        Dipole field         -0.0001 Ry au, 
 
        Potential amp.        0.0143 Ry
        Total length         54.7057 bohr
 

     total cpu time spent up to now is      833.1 secs

     total energy              =   -8078.59759432 Ry
     estimated scf accuracy    <       0.03031778 Ry

     total magnetization       =    95.86 Bohr mag/cell
     absolute magnetization    =    97.32 Bohr mag/cell

     iteration # 43     ecut=    50.00 Ry     beta= 0.10
     Davidson diagonalization with overlap
     ethr =  2.74E-06,  avg # of iterations =  1.5

     negative rho (up, down):  1.497E-05 1.422E-05
 
     Adding external electric field

     Computed dipole along edir(3) : 
        Dipole               -0.2851 Ry au,         -0.7247 Debye
        Dipole field         -0.0002 Ry au, 
 
        Potential amp.        0.0187 Ry
        Total length         54.7057 bohr
 
 
     Adding external electric field

     Computed dipole along edir(3) : 
        Dipole               -0.2851 Ry au,         -0.7247 Debye
        Dipole field         -0.0002 Ry au, 
 
        Potential amp.        0.0187 Ry
        Total length         54.7057 bohr
 

     total cpu time spent up to now is      849.2 secs

     total energy              =   -8078.59807768 Ry
     estimated scf accuracy    <       0.02819745 Ry

     total magnetization       =    95.95 Bohr mag/cell
     absolute magnetization    =    97.49 Bohr mag/cell

     iteration # 44     ecut=    50.00 Ry     beta= 0.10
     Davidson diagonalization with overlap
     ethr =  2.54E-06,  avg # of iterations =  1.5

     negative rho (up, down):  1.697E-05 1.556E-05
 
     Adding external electric field

     Computed dipole along edir(3) : 
        Dipole               -0.1713 Ry au,         -0.4354 Debye
        Dipole field         -0.0001 Ry au, 
 
        Potential amp.        0.0112 Ry
        Total length         54.7057 bohr
 
 
     Adding external electric field

     Computed dipole along edir(3) : 
        Dipole               -0.1713 Ry au,         -0.4354 Debye
        Dipole field         -0.0001 Ry au, 
 
        Potential amp.        0.0112 Ry
        Total length         54.7057 bohr
 

     total cpu time spent up to now is      866.5 secs

     total energy              =   -8078.59802513 Ry
     estimated scf accuracy    <       0.02863194 Ry

     total magnetization       =    95.95 Bohr mag/cell
     absolute magnetization    =    97.49 Bohr mag/cell

     iteration # 45     ecut=    50.00 Ry     beta= 0.10
     Davidson diagonalization with overlap
     ethr =  2.54E-06,  avg # of iterations =  1.5

     negative rho (up, down):  4.935E-05 4.496E-05
 
     Adding external electric field

     Computed dipole along edir(3) : 
        Dipole               -0.0804 Ry au,         -0.2043 Debye
        Dipole field         -0.0000 Ry au, 
 
        Potential amp.        0.0053 Ry
        Total length         54.7057 bohr
 
 
     Adding external electric field

     Computed dipole along edir(3) : 
        Dipole               -0.0804 Ry au,         -0.2043 Debye
        Dipole field         -0.0000 Ry au, 
 
        Potential amp.        0.0053 Ry
        Total length         54.7057 bohr
 

     total cpu time spent up to now is      884.6 secs

     total energy              =   -8078.59686197 Ry
     estimated scf accuracy    <       0.02804068 Ry

     total magnetization       =    95.94 Bohr mag/cell
     absolute magnetization    =    97.42 Bohr mag/cell

     iteration # 46     ecut=    50.00 Ry     beta= 0.10
     Davidson diagonalization with overlap
     ethr =  2.53E-06,  avg # of iterations =  2.0

     negative rho (up, down):  2.934E-05 2.730E-05
 
     Adding external electric field

     Computed dipole along edir(3) : 
        Dipole               -0.1446 Ry au,         -0.3675 Debye
        Dipole field         -0.0001 Ry au, 
 
        Potential amp.        0.0095 Ry
        Total length         54.7057 bohr
 
 
     Adding external electric field

     Computed dipole along edir(3) : 
        Dipole               -0.1446 Ry au,         -0.3675 Debye
        Dipole field         -0.0001 Ry au, 
 
        Potential amp.        0.0095 Ry
        Total length         54.7057 bohr
 

     total cpu time spent up to now is      902.4 secs

     total energy              =   -8078.59777747 Ry
     estimated scf accuracy    <       0.02907316 Ry

     total magnetization       =    95.90 Bohr mag/cell
     absolute magnetization    =    97.45 Bohr mag/cell

     iteration # 47     ecut=    50.00 Ry     beta= 0.10
     Davidson diagonalization with overlap
     ethr =  2.53E-06,  avg # of iterations =  1.5

     negative rho (up, down):  2.574E-05 2.465E-05
 
     Adding external electric field

     Computed dipole along edir(3) : 
        Dipole               -0.0992 Ry au,         -0.2521 Debye
        Dipole field         -0.0001 Ry au, 
 
        Potential amp.        0.0065 Ry
        Total length         54.7057 bohr
 
 
     Adding external electric field

     Computed dipole along edir(3) : 
        Dipole               -0.0992 Ry au,         -0.2521 Debye
        Dipole field         -0.0001 Ry au, 
 
        Potential amp.        0.0065 Ry
        Total length         54.7057 bohr
 

     total cpu time spent up to now is      919.4 secs

     total energy              =   -8078.59741835 Ry
     estimated scf accuracy    <       0.02806506 Ry

     total magnetization       =    95.95 Bohr mag/cell
     absolute magnetization    =    97.46 Bohr mag/cell

     iteration # 48     ecut=    50.00 Ry     beta= 0.10
     Davidson diagonalization with overlap
     ethr =  2.53E-06,  avg # of iterations =  1.5

     negative rho (up, down):  5.365E-05 5.261E-05
 
     Adding external electric field

     Computed dipole along edir(3) : 
        Dipole               -0.0374 Ry au,         -0.0952 Debye
        Dipole field         -0.0000 Ry au, 
 
        Potential amp.        0.0025 Ry
        Total length         54.7057 bohr
 
 
     Adding external electric field

     Computed dipole along edir(3) : 
        Dipole               -0.0374 Ry au,         -0.0952 Debye
        Dipole field         -0.0000 Ry au, 
 
        Potential amp.        0.0025 Ry
        Total length         54.7057 bohr
 

     total cpu time spent up to now is      935.7 secs

     total energy              =   -8078.59720188 Ry
     estimated scf accuracy    <       0.02649333 Ry

     total magnetization       =    95.88 Bohr mag/cell
     absolute magnetization    =    97.40 Bohr mag/cell

     iteration # 49     ecut=    50.00 Ry     beta= 0.10
     Davidson diagonalization with overlap
     ethr =  2.39E-06,  avg # of iterations =  1.5

     negative rho (up, down):  7.732E-04 6.924E-04
 
     Adding external electric field

     Computed dipole along edir(3) : 
        Dipole                0.1287 Ry au,          0.3271 Debye
        Dipole field          0.0001 Ry au, 
 
        Potential amp.       -0.0084 Ry
        Total length         54.7057 bohr
 
 
     Adding external electric field

     Computed dipole along edir(3) : 
        Dipole                0.1287 Ry au,          0.3271 Debye
        Dipole field          0.0001 Ry au, 
 
        Potential amp.       -0.0084 Ry
        Total length         54.7057 bohr
 

     total cpu time spent up to now is      951.6 secs

     total energy              =   -8078.59642681 Ry
     estimated scf accuracy    <       0.02257809 Ry

     total magnetization       =    95.86 Bohr mag/cell
     absolute magnetization    =    97.34 Bohr mag/cell

     iteration # 50     ecut=    50.00 Ry     beta= 0.10
     Davidson diagonalization with overlap
     ethr =  2.04E-06,  avg # of iterations = 12.5

     negative rho (up, down):  1.229E-03 1.024E-03
 
     Adding external electric field

     Computed dipole along edir(3) : 
        Dipole                0.2018 Ry au,          0.5129 Debye
        Dipole field          0.0001 Ry au, 
 
        Potential amp.       -0.0132 Ry
        Total length         54.7057 bohr
 
 
     Adding external electric field

     Computed dipole along edir(3) : 
        Dipole                0.2018 Ry au,          0.5129 Debye
        Dipole field          0.0001 Ry au, 
 
        Potential amp.       -0.0132 Ry
        Total length         54.7057 bohr
 

     total cpu time spent up to now is      984.9 secs

     total energy              =   -8078.59556136 Ry
     estimated scf accuracy    <       0.01368827 Ry

     total magnetization       =    95.92 Bohr mag/cell
     absolute magnetization    =    97.29 Bohr mag/cell

     iteration # 51     ecut=    50.00 Ry     beta= 0.10
     Davidson diagonalization with overlap
     ethr =  1.24E-06,  avg # of iterations =  2.0

     negative rho (up, down):  1.465E-03 1.278E-03
 
     Adding external electric field

     Computed dipole along edir(3) : 
        Dipole                0.2314 Ry au,          0.5883 Debye
        Dipole field          0.0001 Ry au, 
 
        Potential amp.       -0.0152 Ry
        Total length         54.7057 bohr
 
 
     Adding external electric field

     Computed dipole along edir(3) : 
        Dipole                0.2314 Ry au,          0.5883 Debye
        Dipole field          0.0001 Ry au, 
 
        Potential amp.       -0.0152 Ry
        Total length         54.7057 bohr
 

     total cpu time spent up to now is     1002.4 secs

     total energy              =   -8078.59550044 Ry
     estimated scf accuracy    <       0.00792956 Ry

     total magnetization       =    95.88 Bohr mag/cell
     absolute magnetization    =    97.16 Bohr mag/cell

     iteration # 52     ecut=    50.00 Ry     beta= 0.10
     Davidson diagonalization with overlap
     ethr =  7.16E-07,  avg # of iterations =  2.0

     negative rho (up, down):  1.988E-05 6.593E-06
 
     Adding external electric field

     Computed dipole along edir(3) : 
        Dipole                0.1502 Ry au,          0.3817 Debye
        Dipole field          0.0001 Ry au, 
 
        Potential amp.       -0.0098 Ry
        Total length         54.7057 bohr
 
 
     Adding external electric field

     Computed dipole along edir(3) : 
        Dipole                0.1502 Ry au,          0.3817 Debye
        Dipole field          0.0001 Ry au, 
 
        Potential amp.       -0.0098 Ry
        Total length         54.7057 bohr
 

     total cpu time spent up to now is     1020.8 secs

     total energy              =   -8078.59570164 Ry
     estimated scf accuracy    <       0.00434194 Ry

     total magnetization       =    95.88 Bohr mag/cell
     absolute magnetization    =    97.16 Bohr mag/cell

     iteration # 53     ecut=    50.00 Ry     beta= 0.10
     Davidson diagonalization with overlap
     c_bands:  1 eigenvalues not converged
     ethr =  3.92E-07,  avg # of iterations = 11.0

     negative rho (up, down):  4.845E-08 5.093E-09
 
     Adding external electric field

     Computed dipole along edir(3) : 
        Dipole                0.1252 Ry au,          0.3182 Debye
        Dipole field          0.0001 Ry au, 
 
        Potential amp.       -0.0082 Ry
        Total length         54.7057 bohr
 
 
     Adding external electric field

     Computed dipole along edir(3) : 
        Dipole                0.1252 Ry au,          0.3182 Debye
        Dipole field          0.0001 Ry au, 
 
        Potential amp.       -0.0082 Ry
        Total length         54.7057 bohr
 

     total cpu time spent up to now is     1045.3 secs

     total energy              =   -8078.59586241 Ry
     estimated scf accuracy    <       0.00229150 Ry

     total magnetization       =    95.82 Bohr mag/cell
     absolute magnetization    =    97.17 Bohr mag/cell

     iteration # 54     ecut=    50.00 Ry     beta= 0.10
     Davidson diagonalization with overlap
     ethr =  2.07E-07,  avg # of iterations =  2.0

     negative rho (up, down):  1.449E-06 1.189E-07
 
     Adding external electric field

     Computed dipole along edir(3) : 
        Dipole                0.1405 Ry au,          0.3572 Debye
        Dipole field          0.0001 Ry au, 
 
        Potential amp.       -0.0092 Ry
        Total length         54.7057 bohr
 
 
     Adding external electric field

     Computed dipole along edir(3) : 
        Dipole                0.1405 Ry au,          0.3572 Debye
        Dipole field          0.0001 Ry au, 
 
        Potential amp.       -0.0092 Ry
        Total length         54.7057 bohr
 

     total cpu time spent up to now is     1062.7 secs

     total energy              =   -8078.59586806 Ry
     estimated scf accuracy    <       0.00169716 Ry

     total magnetization       =    95.82 Bohr mag/cell
     absolute magnetization    =    97.18 Bohr mag/cell

     iteration # 55     ecut=    50.00 Ry     beta= 0.10
     Davidson diagonalization with overlap
     ethr =  1.53E-07,  avg # of iterations =  2.0

     negative rho (up, down):  2.363E-06 2.925E-07
 
     Adding external electric field

     Computed dipole along edir(3) : 
        Dipole                0.1335 Ry au,          0.3394 Debye
        Dipole field          0.0001 Ry au, 
 
        Potential amp.       -0.0088 Ry
        Total length         54.7057 bohr
 
 
     Adding external electric field

     Computed dipole along edir(3) : 
        Dipole                0.1335 Ry au,          0.3394 Debye
        Dipole field          0.0001 Ry au, 
 
        Potential amp.       -0.0088 Ry
        Total length         54.7057 bohr
 

     total cpu time spent up to now is     1081.4 secs

     total energy              =   -8078.59594290 Ry
     estimated scf accuracy    <       0.00119145 Ry

     total magnetization       =    95.83 Bohr mag/cell
     absolute magnetization    =    97.17 Bohr mag/cell

     iteration # 56     ecut=    50.00 Ry     beta= 0.10
     Davidson diagonalization with overlap
     ethr =  1.08E-07,  avg # of iterations =  2.0

     negative rho (up, down):  7.901E-06 1.957E-06
 
     Adding external electric field

     Computed dipole along edir(3) : 
        Dipole                0.1316 Ry au,          0.3345 Debye
        Dipole field          0.0001 Ry au, 
 
        Potential amp.       -0.0086 Ry
        Total length         54.7057 bohr
 
 
     Adding external electric field

     Computed dipole along edir(3) : 
        Dipole                0.1316 Ry au,          0.3345 Debye
        Dipole field          0.0001 Ry au, 
 
        Potential amp.       -0.0086 Ry
        Total length         54.7057 bohr
 

     total cpu time spent up to now is     1099.2 secs

     total energy              =   -8078.59598149 Ry
     estimated scf accuracy    <       0.00105466 Ry

     total magnetization       =    95.83 Bohr mag/cell
     absolute magnetization    =    97.18 Bohr mag/cell

     iteration # 57     ecut=    50.00 Ry     beta= 0.10
     Davidson diagonalization with overlap
     ethr =  9.52E-08,  avg # of iterations =  2.0

     negative rho (up, down):  1.875E-05 7.143E-06
 
     Adding external electric field

     Computed dipole along edir(3) : 
        Dipole                0.1265 Ry au,          0.3216 Debye
        Dipole field          0.0001 Ry au, 
 
        Potential amp.       -0.0083 Ry
        Total length         54.7057 bohr
 
 
     Adding external electric field

     Computed dipole along edir(3) : 
        Dipole                0.1265 Ry au,          0.3216 Debye
        Dipole field          0.0001 Ry au, 
 
        Potential amp.       -0.0083 Ry
        Total length         54.7057 bohr
 

     total cpu time spent up to now is     1117.0 secs

     total energy              =   -8078.59599448 Ry
     estimated scf accuracy    <       0.00097135 Ry

     total magnetization       =    95.83 Bohr mag/cell
     absolute magnetization    =    97.18 Bohr mag/cell

     iteration # 58     ecut=    50.00 Ry     beta= 0.10
     Davidson diagonalization with overlap
     ethr =  8.77E-08,  avg # of iterations =  2.0

     negative rho (up, down):  3.629E-05 1.918E-05
 
     Adding external electric field

     Computed dipole along edir(3) : 
        Dipole                0.1161 Ry au,          0.2950 Debye
        Dipole field          0.0001 Ry au, 
 
[...]
    -6.0182  -6.0087  -5.9924  -5.9556  -5.9216  -5.9146  -5.9063  -5.8804
    -5.8687  -5.8503  -5.8254  -5.7981  -5.7887  -5.7552  -5.7489  -5.7466
    -5.7084  -5.7008  -5.6646  -5.6433  -5.6194  -5.6038  -5.5947  -5.5725
    -5.5605  -5.5494  -5.5329  -5.5051  -5.5015  -5.4892  -5.4555  -5.4177
    -5.4061  -5.3835  -5.3368  -5.3137  -5.2709  -5.2331  -5.2086  -5.2059
    -5.2026  -5.1943  -5.1379  -5.1069  -5.0300  -4.9955  -4.9832  -4.9578
    -4.9487  -4.9158  -4.8859  -4.8302  -4.8112  -4.7653  -4.7493  -4.7440
    -4.7320  -4.6836  -4.6345  -4.6092  -4.5971  -4.5354  -4.4854  -4.4373
    -4.4272  -4.4053  -4.3853  -4.3606  -4.3311  -4.2870  -4.2664  -4.2175
    -4.1667  -4.1446  -4.1244  -4.0977  -4.0833  -4.0632  -4.0313  -3.9931
    -3.9189  -3.9031  -3.8777  -3.8628  -3.8339  -3.8010  -3.7791  -3.7729
    -3.7466  -3.7396  -3.7109  -3.6478  -3.6367  -3.6203  -3.6163  -3.6082
    -3.5997  -3.5729  -3.5443  -3.5369  -3.5290  -3.5134  -3.5113  -3.4709
    -3.4481  -3.4363  -3.4312  -3.4226  -3.3629  -3.3574  -3.3440  -3.3390
    -3.3231  -3.3191  -3.2944  -3.2811  -3.2522  -3.2278  -3.2205  -3.2160
    -3.1566  -3.1462  -3.1037  -3.0742  -3.0595  -3.0467  -3.0350  -3.0172
    -3.0116  -2.9991  -2.9573  -2.9344  -2.9191  -2.8900  -2.8795  -2.8416
    -2.8410  -2.8343  -2.7530  -2.7490  -2.7273  -2.7217  -2.7099  -2.6975
    -2.6885  -2.6705  -2.6598  -2.6517  -2.6389  -2.6273  -2.6266  -2.6090
    -2.5895  -2.5840  -2.5733  -2.5520  -2.5310  -2.5276  -2.5180  -2.5070
    -2.4677  -2.4552  -2.4271  -2.4221  -2.3826  -2.3724  -2.3517  -2.3503
    -2.3213  -2.3100  -2.3083  -2.2876  -2.2616  -2.2467  -2.2418  -2.2165
    -2.2049  -2.1618  -2.1490  -2.1369  -2.1248  -2.0972  -2.0835  -2.0750
    -2.0625  -2.0227  -2.0060  -1.9902  -1.9674  -1.9574  -1.9412  -1.9139
    -1.8991  -1.8942  -1.8829  -1.8638  -1.8613  -1.8283  -1.8200  -1.7884
    -1.7806  -1.7624  -1.7485  -1.7241  -1.7108  -1.6881  -1.6678  -1.6328
    -1.6249  -1.6021  -1.5968  -1.5584  -1.5327  -1.5301  -1.5035  -1.4829
    -1.4539  -1.4528  -1.4335  -1.4166  -1.3971  -1.3835  -1.3701  -1.3480
    -1.3318  -1.3230  -1.2906  -1.2708  -1.2621  -1.2086  -1.1822  -1.1682
    -1.1517  -1.1289  -1.1077  -1.0343  -0.9749  -0.8533  -0.8415  -0.8094
    -0.8023  -0.7035  -0.6717  -0.5737  -0.5192  -0.3706  -0.3088  -0.2076
     0.1484   0.1601   0.2041   0.2203   0.2311   0.2445   0.2643   0.2775
     0.2998   0.3079   0.3286   0.3475   0.3574   0.3658   0.3702   0.3775
     0.3810   0.3843   0.3883   0.4068   0.4077   0.4208   0.4252   0.4318
     0.4393   0.4428   0.4535   0.4616   0.4751   0.4786   0.4813   0.4949
     0.4997   0.5163   0.5185   0.5424   0.5491   0.5525   0.5560   0.5673
     0.5725   0.5829   0.5999   0.6067   0.6184   0.6191   0.6254   0.6307
     0.6470   0.6616   0.6641   0.6755   0.6824   0.6962   0.6977   0.7071
     0.7235   0.7308   0.7405   0.7572   0.7598   0.7712   0.7767   0.7878
     0.7937   0.8003   0.8115   0.8320   0.8432   0.8474   0.8543   0.8778
     0.9111   0.9590   0.9625   0.9741   1.0037   1.0404   1.0708   1.1369
     1.1870   1.7364   1.7415   1.7550   1.7720   1.7831   1.7870   1.8066
     1.8282   1.8642   1.8694   1.8901   1.9164   1.9401   1.9564   1.9899
     2.0241   2.0435   2.0521   2.0673   2.0733   2.0925   2.1098   2.1270
     2.1440   2.1586   2.1721   2.2009   2.2275   2.2377   2.2564   2.2748
     2.2926   2.3054   2.3061   2.3113   2.3205   2.3363   2.3478   2.3513
     2.3880   2.4210   2.4281   2.4692   2.4985   2.5040   2.5272   2.5739
     2.6113   2.6151   2.7257   2.7307   2.8058   2.8299   2.8623   3.2754
     3.4762   3.6881   3.6892   3.7226   3.7583   3.7825   3.8897   3.9175
     3.9327   3.9567   3.9655   3.9801   3.9846   4.0285   4.0398   4.0504
     4.0597   4.0778   4.1199   4.1354   4.1484   4.1878   4.1959   4.2156
     4.2197   4.2384   4.2464   4.2905   4.3501   4.4068   4.5653   4.7484
     4.7936   4.8456   4.8516   4.9060   4.9480   4.9940   5.0080   5.0398
     5.0890   5.0941   5.1302   5.1571   5.1939   5.2066   5.3358   6.1686
     6.3079   6.4110   6.4984   6.6506   6.6642   6.6853   6.7926   6.8310
     6.8727   6.9623   6.9692   6.9965   7.1811   7.2409   7.2962   7.3339
     7.3696   7.4571   7.4761   7.5141   7.5245   7.6189   7.6392   7.7186
     7.7774   7.8388   7.8595   7.8968   7.9181   7.9432   7.9835   8.0057
     8.0389   8.0598   8.0955   8.1264   8.1481   8.2053   8.2201   8.2637
     8.2738   8.3020   8.3214   8.3510   8.3685   8.3913   8.4047   8.4225
     8.4334   8.4692   8.5104   8.5296   8.5322   8.5630   8.5800   8.5975
     8.6145

     the Fermi energy is     1.6622 ev

!    total energy              =   -8078.59623076 Ry
     estimated scf accuracy    <       0.00000080 Ry
     smearing contrib. (-TS)   =      -0.02309384 Ry
     internal energy E=F+TS    =   -8078.57313692 Ry

     The total energy is F=E-TS. E is the sum of the following terms:
     one-electron contribution =  -94635.09562834 Ry
     hartree contribution      =   47900.73127828 Ry
     xc contribution           =   -2177.33715042 Ry
     ewald contribution        =   40834.89692505 Ry
     Dispersion Correction     =      -1.76857811 Ry
     electric field correction =       0.00001661 Ry

     total magnetization       =    95.84 Bohr mag/cell
     absolute magnetization    =    97.19 Bohr mag/cell

     convergence has been achieved in  73 iterations

     negative rho (up, down):  1.160E-03 6.320E-04

     Forces acting on atoms (cartesian axes, Ry/au):

     atom    1 type  1   force =     0.00008906    0.00085780    0.00005472
     atom    2 type  1   force =     0.00020944   -0.00006921   -0.00018831
     atom    3 type  2   force =    -0.00135866   -0.00232090   -0.00233143
     atom    4 type  1   force =    -0.00022927    0.00014137    0.00010528
     atom    5 type  1   force =    -0.00013456    0.00062739   -0.00041702
     atom    6 type  1   force =     0.00033307    0.00003224   -0.00055256
     atom    7 type  1   force =    -0.00031933    0.00008465    0.00019763
     atom    8 type  2   force =    -0.00012727   -0.00023621   -0.00059088
     atom    9 type  2   force =    -0.00012127   -0.00023865   -0.00055748
     atom   10 type  1   force =    -0.00013153    0.00025117   -0.00024633
     atom   11 type  1   force =    -0.00004111    0.00013811   -0.00016024
     atom   12 type  1   force =    -0.00009456    0.00014906   -0.00015497
     atom   13 type  3   force =     0.00014134   -0.00009515   -0.00005255
     atom   14 type  3   force =    -0.00037124   -0.00013224   -0.00000063
     atom   15 type  3   force =     0.00042395   -0.00032529    0.00030624
     atom   16 type  3   force =     0.00002997   -0.00009764   -0.00020586
     atom   17 type  4   force =     0.00010830   -0.00041171   -0.00010847
     atom   18 type  4   force =    -0.00031185   -0.00066968   -0.00004139
     atom   19 type  4   force =    -0.00035708   -0.00027781   -0.00004178
     atom   20 type  4   force =    -0.00043261   -0.00005048    0.00010479
     atom   21 type  4   force =     0.00014562   -0.00014846   -0.00009676
     atom   22 type  4   force =    -0.00008411    0.00017177    0.00049687
     atom   23 type  4   force =    -0.00002840   -0.00006785    0.00007561
     atom   24 type  4   force =    -0.00009314   -0.00005453   -0.00011059
     atom   25 type  4   force =    -0.00015217   -0.00004888   -0.00002599
     atom   26 type  4   force =    -0.00011034   -0.00065981   -0.00022018
     atom   27 type  4   force =    -0.00019093    0.00022510    0.00038447
     atom   28 type  4   force =     0.00025144   -0.00047998   -0.00033854
     atom   29 type  4   force =    -0.00037163   -0.00057164    0.00056601
     atom   30 type  4   force =     0.00019765   -0.00035731   -0.00017764
     atom   31 type  4   force =    -0.00043202    0.00029113   -0.00031874
     atom   32 type  4   force =    -0.00018564   -0.00013386   -0.00005931
     atom   33 type  3   force =    -0.00045142   -0.00002501   -0.00004947
     atom   34 type  3   force =    -0.00061496    0.00043632   -0.00021044
     atom   35 type  3   force =     0.00035912    0.00044567   -0.00004467
     atom   36 type  3   force =    -0.00011404   -0.00000997    0.00017189
     atom   37 type  4   force =     0.00006660   -0.00040168   -0.00005335
     atom   38 type  4   force =    -0.00019243   -0.00038230   -0.00030868
     atom   39 type  4   force =     0.00004187   -0.00033571   -0.00064722
     atom   40 type  4   force =    -0.00025482   -0.00033987    0.00001365
     atom   41 type  4   force =    -0.00024810   -0.00000975    0.00023329
     atom   42 type  4   force =     0.00002078   -0.00008960    0.00042197
     atom   43 type  4   force =    -0.00017201    0.00024124    0.00012319
     atom   44 type  4   force =    -0.00015818   -0.00001183    0.00014319
     atom   45 type  4   force =    -0.00000948    0.00009475    0.00016387
     atom   46 type  4   force =     0.00017456    0.00013502   -0.00049437
     atom   47 type  4   force =    -0.00026449   -0.00007000    0.00053240
     atom   48 type  4   force =     0.00045080    0.00003638   -0.00013971
     atom   49 type  4   force =    -0.00032317   -0.00060316    0.00034413
     atom   50 type  4   force =     0.00035120    0.00005760   -0.00016456
     atom   51 type  4   force =    -0.00030018    0.00012960   -0.00029846
     atom   52 type  4   force =     0.00013128   -0.00023029    0.00012396
     atom   53 type  1   force =     0.00078908    0.00011765   -0.00023547
     atom   54 type  1   force =     0.00096843    0.00061994   -0.00186868
     atom   55 type  2   force =     0.00081965    0.00105979    0.00525476
     atom   56 type  1   force =    -0.00076391   -0.00086617   -0.00115248
     atom   57 type  1   force =    -0.00003207    0.00013483    0.00002471
     atom   58 type  1   force =    -0.00019357   -0.00002414   -0.00008235
     atom   59 type  1   force =     0.00150951    0.00117969    0.00032506
     atom   60 type  2   force =    -0.00013906   -0.00002724   -0.00208432
     atom   61 type  2   force =     0.00126448    0.00106285    0.00473805
     atom   62 type  1   force =    -0.00027435   -0.00072141   -0.00131611
     atom   63 type  1   force =     0.00006394    0.00025765   -0.00030541
     atom   64 type  1   force =     0.00042411   -0.00008492    0.00011386
     atom   65 type  3   force =    -0.00023493   -0.00081227   -0.00240846
     atom   66 type  3   force =     0.00047475   -0.00093447    0.00181005
     atom   67 type  3   force =     0.00038219    0.00146911    0.00128847
     atom   68 type  3   force =    -0.00083719    0.00070229   -0.00070369
     atom   69 type  4   force =    -0.00065300    0.00034187    0.00080827
     atom   70 type  4   force =    -0.00017601   -0.00000043   -0.00008115
     atom   71 type  4   force =     0.00009189    0.00000753   -0.00071863
     atom   72 type  4   force =     0.00025036   -0.00037498    0.00132555
     atom   73 type  4   force =    -0.00077124    0.00073463    0.00199920
     atom   74 type  4   force =     0.00025608   -0.00056281   -0.00095183
     atom   75 type  4   force =    -0.00156336   -0.00044390    0.00105654
     atom   76 type  4   force =     0.00016252   -0.00073883    0.00152614
     atom   77 type  4   force =    -0.00049639   -0.00009645    0.00067809
     atom   78 type  4   force =    -0.00030561   -0.00020202   -0.00026038
     atom   79 type  4   force =     0.00036854    0.00029051    0.00065967
     atom   80 type  4   force =     0.00016078    0.00066413   -0.00048147
     atom   81 type  4   force =    -0.00003300   -0.00056208   -0.00054976
     atom   82 type  4   force =     0.00094701   -0.00073857    0.00078724
     atom   83 type  4   force =     0.00002943    0.00059336    0.00042991
     atom   84 type  4   force =    -0.00064518    0.00018832    0.00066705
     atom   85 type  3   force =    -0.00020285   -0.00090310   -0.00246243
     atom   86 type  3   force =     0.00000530    0.00007279    0.00312096
     atom   87 type  3   force =     0.00055347    0.00117225    0.00277543
     atom   88 type  3   force =    -0.00063044    0.00069437   -0.00068573
     atom   89 type  4   force =    -0.00017764   -0.00012703    0.00039836
     atom   90 type  4   force =    -0.00042160   -0.00040514   -0.00108387
     atom   91 type  4   force =     0.00026807    0.00022221   -0.00126031
     atom   92 type  4   force =     0.00028373   -0.00034197    0.00105258
     atom   93 type  4   force =    -0.00004792    0.00114880    0.00117075
     atom   94 type  4   force =     0.00058042    0.00089658    0.00145239
     atom   95 type  4   force =    -0.00039851    0.00019052    0.00123588
     atom   96 type  4   force =    -0.00028247   -0.00020907    0.00121238
     atom   97 type  4   force =    -0.00014114   -0.00063144    0.00082553
     atom   98 type  4   force =     0.00002336   -0.00017324   -0.00093482
     atom   99 type  4   force =     0.00081938   -0.00009137    0.00067507
     atom  100 type  4   force =     0.00012960    0.00045133   -0.00037679
     atom  101 type  4   force =    -0.00058045   -0.00000957   -0.00020404
     atom  102 type  4   force =     0.00131392   -0.00099249   -0.00045948
     atom  103 type  4   force =     0.00038591    0.00015482    0.00035554
     atom  104 type  4   force =    -0.00013352   -0.00061335   -0.00014128
     atom  105 type  1   force =    -0.00080887    0.00184739   -0.00688427
     atom  106 type  1   force =     0.02814911    0.01357907    0.02201211
     atom  107 type  2   force =     0.00160437    0.00039832   -0.01061435
     atom  108 type  1   force =    -0.03099169    0.02296796    0.01674286
     atom  109 type  1   force =     0.00403239   -0.00295201   -0.00346656
     atom  110 type  1   force =    -0.00135558   -0.00638288   -0.00547172
     atom  111 type  1   force =    -0.00369488    0.00227269   -0.00605817
     atom  112 type  2   force =     0.03224934    0.01643865   -0.01021657
     atom  113 type  2   force =     0.00154588    0.00113968   -0.01021989
     atom  114 type  1   force =    -0.03176308    0.02424772    0.01770384
     atom  115 type  1   force =     0.00362729   -0.00484802   -0.00444385
     atom  116 type  1   force =    -0.00480688   -0.00803436   -0.00661193
     atom  117 type  3   force =    -0.02900063   -0.03571289   -0.06271295
     atom  118 type  3   force =     0.00317988    0.00035654   -0.00693976
     atom  119 type  3   force =     0.00071712   -0.00069028   -0.00912112
     atom  120 type  3   force =     0.02797246   -0.05774950   -0.08368478
     atom  121 type  4   force =    -0.00646013   -0.00313187    0.03039597
     atom  122 type  4   force =    -0.00135098   -0.00123751    0.00276073
     atom  123 type  4   force =     0.00152894   -0.00107121    0.00499730
     atom  124 type  4   force =     0.00347837    0.00323452    0.03391217
     atom  125 type  4   force =    -0.00220422   -0.00216099    0.03434503
     atom  126 type  4   force =    -0.00079984    0.00060259    0.00290199
     atom  127 type  4   force =     0.00214013    0.00306674    0.00427710
     atom  128 type  4   force =    -0.00321854   -0.00160102    0.02258527
     atom  129 type  4   force =    -0.01258395    0.03620681    0.00503695
     atom  130 type  4   force =    -0.00155908    0.00047501    0.00236442
     atom  131 type  4   force =    -0.01925228    0.00356712    0.00999957
     atom  132 type  4   force =    -0.00093087    0.00354155    0.00435412
     atom  133 type  4   force =    -0.00310809    0.00063583    0.00242179
     atom  134 type  4   force =     0.00154019   -0.00420961    0.00353121
     atom  135 type  4   force =     0.01388728    0.02343747   -0.00083701
     atom  136 type  4   force =     0.01302853   -0.00066282    0.00245885
     atom  137 type  3   force =    -0.03818332   -0.04127526   -0.06613131
     atom  138 type  3   force =     0.00646881   -0.00302751   -0.00137635
     atom  139 type  3   force =     0.00028813   -0.00158019   -0.00935710
     atom  140 type  3   force =     0.02905522   -0.05119059   -0.08324288
     atom  141 type  4   force =    -0.00095880    0.00283380    0.02924509
     atom  142 type  4   force =     0.00054095    0.00225513   -0.00610703
     atom  143 type  4   force =     0.00157079   -0.00093895    0.00440094
     atom  144 type  4   force =     0.00415671    0.00191673    0.03450775
     atom  145 type  4   force =     0.00904722    0.00396732    0.03153604
     atom  146 type  4   force =    -0.00023950    0.00047183    0.00164330
     atom  147 type  4   force =     0.00263119    0.00337785    0.00390800
     atom  148 type  4   force =    -0.00401256   -0.00125703    0.02251131
     atom  149 type  4   force =    -0.01005293    0.02998509    0.00433362
     atom  150 type  4   force =    -0.00199891    0.00056368    0.00279168
     atom  151 type  4   force =    -0.01832811    0.00503137    0.00996770
     atom  152 type  4   force =    -0.00067632    0.00344913    0.00433538
     atom  153 type  4   force =    -0.00149360    0.00027406    0.00298764
     atom  154 type  4   force =     0.00220373   -0.00235977    0.00283351
     atom  155 type  4   force =     0.01484406    0.02445243    0.00023667
     atom  156 type  4   force =     0.02217369   -0.00368257    0.00149687
     atom  157 type  4   force =    -0.00604311    0.00717152    0.00106109
     atom  158 type  5   force =     0.00628038   -0.00533795    0.00078660

     Total force =     0.237723     Total SCF correction =     0.004272
 
     init_run     :     11.02s CPU     11.77s WALL (       1 calls)
     electrons    :   1328.03s CPU   1383.93s WALL (       1 calls)
     forces       :      5.00s CPU      5.50s WALL (       1 calls)
     force_london :      0.11s CPU      0.11s WALL (       1 calls)

     Called by init_run:
     wfcinit      :      6.81s CPU      7.04s WALL (       1 calls)
     potinit      :      0.63s CPU      0.82s WALL (       1 calls)
     hinit0       :      1.71s CPU      1.84s WALL (       1 calls)

     Called by electrons:
     c_bands      :   1048.00s CPU   1076.62s WALL (      73 calls)
     sum_band     :    176.74s CPU    190.85s WALL (      73 calls)
     v_of_rho     :     24.16s CPU     25.47s WALL (      74 calls)
     newd         :     49.69s CPU     61.46s WALL (      74 calls)
     mix_rho      :     28.24s CPU     28.33s WALL (      73 calls)
     energy_londo :      0.11s CPU      0.11s WALL (       1 calls)

     Called by c_bands:
     init_us_2    :      2.63s CPU      2.71s WALL (     296 calls)
     init_us_2:cp :      2.63s CPU      2.71s WALL (     296 calls)
     regterg      :   1026.95s CPU   1055.19s WALL (     150 calls)

     Called by *egterg:
     rdiaghg      :    276.37s CPU    289.09s WALL (     561 calls)
     h_psi        :    418.69s CPU    426.50s WALL (     563 calls)
     s_psi        :     64.71s CPU     64.76s WALL (     563 calls)
     g_psi        :      0.49s CPU      0.49s WALL (     411 calls)

     Called by h_psi:
     h_psi:calbec :     96.85s CPU    102.82s WALL (     563 calls)
     vloc_psi     :    256.01s CPU    257.04s WALL (     563 calls)
     add_vuspsi   :     64.96s CPU     65.75s WALL (     563 calls)

     General routines
     calbec       :    143.47s CPU    152.08s WALL (     717 calls)
     fft          :     28.60s CPU     30.67s WALL (    1345 calls)
     ffts         :     16.33s CPU     16.37s WALL (    9071 calls)
     fftw         :    290.05s CPU    291.16s WALL (  255470 calls)
     interpolate  :      1.87s CPU      2.14s WALL (     148 calls)
 
     Parallel routines
 
     PWSCF        :  22m26.30s CPU  23m23.77s WALL

 
   This run was terminated on:  22:54:55  17Nov2025            

=------------------------------------------------------------------------------=
   JOB DONE.
=------------------------------------------------------------------------------=
