
     Program PWSCF v.7.2 starts on 18Nov2025 at  1:38:50 

     This program is part of the open-source Quantum ESPRESSO suite
     for quantum simulation of materials; please cite
         "P. Giannozzi et al., J. Phys.:Condens. Matter 21 395502 (2009);
         "P. Giannozzi et al., J. Phys.:Condens. Matter 29 465901 (2017);
         "P. Giannozzi et al., J. Chem. Phys. 152 154105 (2020);
          URL http://www.quantum-espresso.org", 
     in publications or presentations arising from this work. More details at
     http://www.quantum-espresso.org/quote

     Parallel version (MPI), running on    64 processors

     MPI processes distributed on     4 nodes
     460698 MiB available memory on the printing compute node when the environment starts
 
     Reading input from PWINPUT_atm158_zp

     Current dimensions of program PWSCF are:
     Max number of different atomic species (ntypx) = 10
     Max number of k-points (npk) =  40000
     Max angular momentum in pseudopotentials (lmaxx) =  4
     Presently no symmetry can be used with electric field

     file Ni.pbe-n-rrkjus_psl.1.0.0.UPF: wavefunction(s)  3D renormalized
     file Mn.pbe-spn-rrkjus_psl.0.3.1.UPF: wavefunction(s)  3D renormalized
     file O.pbe-rrkjus.UPF: wavefunction(s)  2S renormalized
     file H.pbe-rrkjus.UPF: wavefunction(s)  1S renormalized

     gamma-point specific algorithms are used
 
     R & G space division:  proc/nbgrp/npool/nimage =      64
     Subspace diagonalization in iterative solution of the eigenvalue problem:
     one sub-group per band group will be used
     custom distributed-memory algorithm (size of sub-group:  7*  7 procs)

 
     Parallelization info
     --------------------
     sticks:   dense  smooth     PW     G-vecs:    dense   smooth      PW
     Min         214      85     20                61830    15614    1928
     Max         216      86     22                61864    15658    1982
     Sum       13727    5503   1375              3958051  1001255  125211
 
     Using Slab Decomposition
 


     bravais-lattice index     =            0
     lattice parameter (alat)  =      17.8532  a.u.
     unit-cell volume          =   20962.6682 (a.u.)^3
     number of atoms/cell      =          158
     number of atomic types    =            5
     number of electrons       =      1108.00
     number of Kohn-Sham states=          665
     kinetic-energy cutoff     =      50.0000  Ry
     charge density cutoff     =     500.0000  Ry
     scf convergence threshold =      1.0E-06
     mixing beta               =       0.1000
     number of iterations used =            8  local-TF  mixing
     Exchange-correlation=  SLA  PW   PBE  PBE
                           (   1   4   3   4   0   0   0)

     celldm(1)=  17.853155  celldm(2)=   0.000000  celldm(3)=   0.000000
     celldm(4)=   0.000000  celldm(5)=   0.000000  celldm(6)=   0.000000

     crystal axes: (cart. coord. in units of alat)
               a(1) = (   1.000000   0.000000   0.000000 )  
               a(2) = (   0.003237   1.081997   0.000000 )  
               a(3) = (   0.000000   0.000000   3.404673 )  

     reciprocal axes: (cart. coord. in units 2 pi/alat)
               b(1) = (  1.000000 -0.002992  0.000000 )  
               b(2) = (  0.000000  0.924217  0.000000 )  
               b(3) = (  0.000000  0.000000  0.293714 )  


     PseudoPot. # 1 for Ni read from file:
     ~/PSEUDO/Ni.pbe-n-rrkjus_psl.1.0.0.UPF
     MD5 check sum: Not computed, couldn't open file
     Pseudo is Ultrasoft + core correction, Zval = 10.0
     Generated using "atomic" code by A. Dal Corso  v.5.1.2
     Using radial grid of 1195 points,  6 beta functions with: 
                l(1) =   0
                l(2) =   0
                l(3) =   1
                l(4) =   1
                l(5) =   2
                l(6) =   2
     Q(r) pseudized with 0 coefficients 


     PseudoPot. # 2 for Mn read from file:
     ~/PSEUDO/Mn.pbe-spn-rrkjus_psl.0.3.1.UPF
     MD5 check sum: Not computed, couldn't open file
     Pseudo is Ultrasoft + core correction, Zval = 15.0
     Generated using &quot;atomic&quot; code by A. Dal Corso  v.6.2.2
     Using radial grid of 1187 points,  6 beta functions with: 
                l(1) =   0
                l(2) =   0
                l(3) =   1
                l(4) =   1
                l(5) =   2
                l(6) =   2
     Q(r) pseudized with 0 coefficients 


     PseudoPot. # 3 for P  read from file:
     ~/PSEUDO/P.pbe-n-rrkjus_psl.1.0.0.UPF
     MD5 check sum: Not computed, couldn't open file
     Pseudo is Ultrasoft + core correction, Zval =  5.0
     Generated using "atomic" code by A. Dal Corso  v.5.1
     Using radial grid of 1147 points,  6 beta functions with: 
                l(1) =   0
                l(2) =   0
                l(3) =   1
                l(4) =   1
                l(5) =   2
                l(6) =   2
     Q(r) pseudized with 0 coefficients 


     PseudoPot. # 4 for O  read from file:
     ~/PSEUDO/O.pbe-rrkjus.UPF
     MD5 check sum: Not computed, couldn't open file
     Pseudo is Ultrasoft, Zval =  6.0
     Generated by new atomic code, or converted to UPF format
     Using radial grid of 1269 points,  4 beta functions with: 
                l(1) =   0
                l(2) =   0
                l(3) =   1
                l(4) =   1
     Q(r) pseudized with 0 coefficients 


     PseudoPot. # 5 for H  read from file:
     ~/PSEUDO/H.pbe-rrkjus.UPF
     MD5 check sum: Not computed, couldn't open file
     Pseudo is Ultrasoft, Zval =  1.0
     Generated by new atomic code, or converted to UPF format
     Using radial grid of 1061 points,  2 beta functions with: 
                l(1) =   0
                l(2) =   0
     Q(r) pseudized with 0 coefficients 


     atomic species   valence    mass     pseudopotential
     Ni               10.00    58.69300     Ni( 1.00)
     Mn               15.00    54.93800     Mn( 1.00)
     P                 5.00    30.97300     P ( 1.00)
     O                 6.00    15.99900     O ( 1.00)
     H                 1.00     1.00790     H ( 1.00)

     Starting magnetic structure 
     atomic species   magnetization
     Ni              1.000
     Mn              1.000
     P               1.000
     O               1.000
     H               0.000

     No symmetry found



   Cartesian axes

     site n.     atom                  positions (alat units)
         1        Ni     tau(   1) = (   0.2518260   0.8295784   1.6794106  )
         2        Ni     tau(   2) = (   0.4927480   0.7713237   1.3753272  )
         3        Mn     tau(   3) = (  -0.0019104   0.2893041   1.7111611  )
         4        Ni     tau(   4) = (   0.2570296   0.2258471   1.3782297  )
         5        Ni     tau(   5) = (   0.9983333   1.0731578   1.5373129  )
         6        Ni     tau(   6) = (   0.2535858   0.5283692   1.5435542  )
         7        Ni     tau(   7) = (   0.7527859   0.8301859   1.6808772  )
         8        Mn     tau(   8) = (   0.9889930   0.7674276   1.3721895  )
         9        Mn     tau(   9) = (   0.5003935   0.2926237   1.7029517  )
        10        Ni     tau(  10) = (   0.7577903   0.2268632   1.3799398  )
        11        Ni     tau(  11) = (   0.4980054   1.0712871   1.5393278  )
        12        Ni     tau(  12) = (   0.7539105   0.5321788   1.5382577  )
        13        P      tau(  13) = (   0.2118656   0.9693900   1.3793414  )
        14        P      tau(  14) = (   0.4660278   0.6478965   1.6959065  )
        15        P      tau(  15) = (   0.2832051   0.0929046   1.6945962  )
        16        P      tau(  16) = (   0.0418193   0.4207457   1.3872791  )
        17        O      tau(  17) = (   0.1336657   0.9013866   1.5145591  )
        18        O      tau(  18) = (   0.3860059   0.7008468   1.5503267  )
        19        O      tau(  19) = (   0.3599779   0.1579283   1.5547376  )
        20        O      tau(  20) = (   0.1188180   0.3521237   1.5214666  )
        21        O      tau(  21) = (   0.1529170   0.8803112   1.2547888  )
        22        O      tau(  22) = (   0.4066564   0.7467891   1.8079626  )
        23        O      tau(  23) = (   0.3410378   0.1858743   1.8146268  )
        24        O      tau(  24) = (   0.1011967   0.3326204   1.2622753  )
        25        O      tau(  25) = (   0.0991588   0.5750199   1.3866315  )
        26        O      tau(  26) = (   0.3434848   1.0201382   1.6942680  )
        27        O      tau(  27) = (   0.3789457   0.4154633   1.3977404  )
        28        O      tau(  28) = (   0.1193596   0.0996523   1.6839051  )
        29        O      tau(  29) = (   0.1276068   0.6477554   1.6810586  )
        30        O      tau(  30) = (   0.4128914   0.4905501   1.7021188  )
        31        O      tau(  31) = (   0.1478328   0.0409865   1.3813227  )
        32        O      tau(  32) = (   0.3745804   0.9617408   1.3915397  )
        33        P      tau(  33) = (   0.7074954   0.9695156   1.3792001  )
        34        P      tau(  34) = (   0.9643217   0.6427850   1.6992735  )
        35        P      tau(  35) = (   0.7838284   0.0944368   1.7001908  )
        36        P      tau(  36) = (   0.5416777   0.4260543   1.3855657  )
        37        O      tau(  37) = (   0.6306840   0.8974445   1.5137782  )
        38        O      tau(  38) = (   0.8854609   0.7040046   1.5561567  )
        39        O      tau(  39) = (   0.8648068   0.1680159   1.5645156  )
        40        O      tau(  40) = (   0.6206025   0.3577624   1.5198754  )
        41        O      tau(  41) = (   0.6483131   0.8811005   1.2540249  )
        42        O      tau(  42) = (   0.9040880   0.7389950   1.8133540  )
        43        O      tau(  43) = (   0.8397112   0.1841216   1.8224656  )
        44        O      tau(  44) = (   0.6014551   0.3360063   1.2621344  )
        45        O      tau(  45) = (   0.5989499   0.5805885   1.3836427  )
        46        O      tau(  46) = (   0.8435274   1.0213000   1.6914443  )
        47        O      tau(  47) = (   0.8784703   0.4145143   1.3944208  )
        48        O      tau(  48) = (   0.6206951   0.1010299   1.6851757  )
        49        O      tau(  49) = (   0.6298363   0.6504103   1.6806734  )
        50        O      tau(  50) = (   0.9052265   0.4866691   1.6920526  )
        51        O      tau(  51) = (   0.6468562   0.0420961   1.3852950  )
        52        O      tau(  52) = (   0.8702125   0.9631440   1.3913059  )
        53        Ni     tau(  53) = (   0.2420320   0.8169913   1.0699082  )
        54        Ni     tau(  54) = (   0.4893084   0.7542727   0.7477128  )
        55        Mn     tau(  55) = (   0.0085152   0.2729728   1.0755565  )
        56        Ni     tau(  56) = (   0.2558246   0.2079345   0.7498450  )
        57        Ni     tau(  57) = (   0.9991959   1.0516583   0.9080455  )
        58        Ni     tau(  58) = (   0.2490231   0.5149840   0.9092594  )
        59        Ni     tau(  59) = (   0.7373131   0.8159965   1.0690453  )
        60        Mn     tau(  60) = (   0.9859093   0.7511625   0.7423903  )
        61        Mn     tau(  61) = (   0.5085552   0.2755447   1.0757185  )
        62        Ni     tau(  62) = (   0.7532989   0.2074622   0.7493279  )
        63        Ni     tau(  63) = (   0.4981517   1.0523018   0.9093468  )
        64        Ni     tau(  64) = (   0.7469109   0.5147379   0.9081681  )
        65        P      tau(  65) = (   0.2119924   0.9497675   0.7533413  )
        66        P      tau(  66) = (   0.4579509   0.6252695   1.0650744  )
        67        P      tau(  67) = (   0.2855349   0.0724244   1.0650326  )
        68        P      tau(  68) = (   0.0381112   0.4032615   0.7561117  )
        69        O      tau(  69) = (   0.1352995   0.8818598   0.8892857  )
        70        O      tau(  70) = (   0.3789570   0.6924463   0.9291468  )
        71        O      tau(  71) = (   0.3610496   0.1419327   0.9291660  )
        72        O      tau(  72) = (   0.1179700   0.3356534   0.8894858  )
        73        O      tau(  73) = (   0.1524325   0.8608343   0.6290918  )
        74        O      tau(  74) = (   0.3994952   0.7128748   1.1905493  )
        75        O      tau(  75) = (   0.3426976   0.1634744   1.1889742  )
        76        O      tau(  76) = (   0.0989151   0.3155758   0.6321220  )
        77        O      tau(  77) = (   0.0942206   0.5581494   0.7569623  )
        78        O      tau(  78) = (   0.3506297   1.0014456   1.0645371  )
        79        O      tau(  79) = (   0.3750155   0.3983181   0.7655049  )
        80        O      tau(  80) = (   0.1228303   0.0764842   1.0543924  )
        81        O      tau(  81) = (   0.1204299   0.6293201   1.0530905  )
        82        O      tau(  82) = (   0.4000664   0.4708612   1.0626359  )
        83        O      tau(  83) = (   0.1483182   0.0216333   0.7546099  )
        84        O      tau(  84) = (   0.3748687   0.9435072   0.7627918  )
        85        P      tau(  85) = (   0.7056901   0.9492898   0.7521526  )
        86        P      tau(  86) = (   0.9575286   0.6220438   1.0623609  )
        87        P      tau(  87) = (   0.7847866   0.0710549   1.0641979  )
        88        P      tau(  88) = (   0.5377283   0.4083400   0.7551622  )
        89        O      tau(  89) = (   0.6295714   0.8788409   0.8879407  )
        90        O      tau(  90) = (   0.8781778   0.6902700   0.9288966  )
        91        O      tau(  91) = (   0.8603186   0.1398018   0.9279591  )
        92        O      tau(  92) = (   0.6174712   0.3389159   0.8881839  )
        93        O      tau(  93) = (   0.6471291   0.8583376   0.6285166  )
        94        O      tau(  94) = (   0.8962302   0.7094244   1.1861651  )
        95        O      tau(  95) = (   0.8420493   0.1616933   1.1885419  )
        96        O      tau(  96) = (   0.5995227   0.3203391   0.6315608  )
        97        O      tau(  97) = (   0.5932354   0.5636910   0.7569738  )
        98        O      tau(  98) = (   0.8487155   0.9994995   1.0634446  )
        99        O      tau(  99) = (   0.8751772   0.3959680   0.7655094  )
       100        O      tau( 100) = (   0.6223291   0.0767949   1.0539182  )
       101        O      tau( 101) = (   0.6209785   0.6292365   1.0537708  )
       102        O      tau( 102) = (   0.9010178   0.4674118   1.0608723  )
       103        O      tau( 103) = (   0.6430869   0.0213354   0.7538098  )
       104        O      tau( 104) = (   0.8684566   0.9446034   0.7630440  )
       105        Ni     tau( 105) = (   0.2392451   0.7980692   0.4424501  )
       106        Ni     tau( 106) = (   0.4865215   0.7353506   0.1202547  )
       107        Mn     tau( 107) = (   0.0057284   0.2540508   0.4480984  )
       108        Ni     tau( 108) = (   0.2530377   0.1890124   0.1223869  )
       109        Ni     tau( 109) = (   0.9964090   1.0327362   0.2805874  )
       110        Ni     tau( 110) = (   0.2462362   0.4960619   0.2818013  )
       111        Ni     tau( 111) = (   0.7345262   0.7970744   0.4415872  )
       112        Mn     tau( 112) = (   0.9831224   0.7322404   0.1149322  )
       113        Mn     tau( 113) = (   0.5057684   0.2566226   0.4482604  )
       114        Ni     tau( 114) = (   0.7505120   0.1885401   0.1218698  )
       115        Ni     tau( 115) = (   0.4953648   1.0333797   0.2818887  )
       116        Ni     tau( 116) = (   0.7441241   0.4958159   0.2807100  )
       117        P      tau( 117) = (   0.2092055   0.9308455   0.1258832  )
       118        P      tau( 118) = (   0.4551640   0.6063475   0.4376163  )
       119        P      tau( 119) = (   0.2827481   0.0535023   0.4375745  )
       120        P      tau( 120) = (   0.0353243   0.3843395   0.1286536  )
       121        O      tau( 121) = (   0.1325127   0.8629378   0.2618276  )
       122        O      tau( 122) = (   0.3761702   0.6735242   0.3016887  )
       123        O      tau( 123) = (   0.3582627   0.1230106   0.3017079  )
       124        O      tau( 124) = (   0.1151831   0.3167313   0.2620277  )
       125        O      tau( 125) = (   0.1496456   0.8419122   0.0016337  )
       126        O      tau( 126) = (   0.3967083   0.6939527   0.5630912  )
       127        O      tau( 127) = (   0.3399107   0.1445523   0.5615161  )
       128        O      tau( 128) = (   0.0961282   0.2966537   0.0046639  )
       129        O      tau( 129) = (   0.0914337   0.5392273   0.1295042  )
       130        O      tau( 130) = (   0.3478428   0.9825235   0.4370790  )
       131        O      tau( 131) = (   0.3722287   0.3793961   0.1380469  )
       132        O      tau( 132) = (   0.1200434   0.0575621   0.4269343  )
       133        O      tau( 133) = (   0.1176431   0.6103980   0.4256324  )
       134        O      tau( 134) = (   0.3972796   0.4519391   0.4351778  )
       135        O      tau( 135) = (   0.1455313   0.0027113   0.1271518  )
       136        O      tau( 136) = (   0.3720819   0.9245852   0.1353338  )
       137        P      tau( 137) = (   0.7029032   0.9303678   0.1246945  )
       138        P      tau( 138) = (   0.9547417   0.6031217   0.4349028  )
       139        P      tau( 139) = (   0.7819997   0.0521328   0.4367398  )
       140        P      tau( 140) = (   0.5349415   0.3894179   0.1277041  )
       141        O      tau( 141) = (   0.6267846   0.8599188   0.2604826  )
       142        O      tau( 142) = (   0.8753909   0.6713480   0.3014385  )
       143        O      tau( 143) = (   0.8575317   0.1208797   0.3005010  )
       144        O      tau( 144) = (   0.6146843   0.3199938   0.2607258  )
       145        O      tau( 145) = (   0.6443422   0.8394155   0.0010585  )
       146        O      tau( 146) = (   0.8934434   0.6905023   0.5587070  )
       147        O      tau( 147) = (   0.8392624   0.1427713   0.5610838  )
       148        O      tau( 148) = (   0.5967359   0.3014171   0.0041027  )
       149        O      tau( 149) = (   0.5904485   0.5447689   0.1295157  )
       150        O      tau( 150) = (   0.8459286   0.9805774   0.4359865  )
       151        O      tau( 151) = (   0.8723903   0.3770459   0.1380513  )
       152        O      tau( 152) = (   0.6195422   0.0578729   0.4264602  )
       153        O      tau( 153) = (   0.6181917   0.6103144   0.4263127  )
       154        O      tau( 154) = (   0.8982309   0.4484897   0.4334142  )
       155        O      tau( 155) = (   0.6403000   0.0024133   0.1263517  )
       156        O      tau( 156) = (   0.8656697   0.9256814   0.1355859  )
       157        O      tau( 157) = (   0.1071329   0.3592488   1.8457793  )
       158        H      tau( 158) = (   0.1953720   0.3041484   1.8625499  )

     -------------------------------------------------
     Parameters for Dispersion (Grimme-D2) Correction:
     -------------------------------------------------
       atom      VdW radius       C_6     

        Ni         2.952        374.666
        Mn         2.952        374.666
        P          3.222        271.980
        O          2.536         24.284
        H          1.892          4.857

     number of k points=     1  Gaussian smearing, width (Ry)=  0.0100
                       cart. coord. in units 2pi/alat
        k(    1) = (   0.0000000   0.0000000   0.0000000), wk =   1.0000000

     Dense  grid:  1979026 G-vectors     FFT dimensions: ( 128, 144, 450)

     Smooth grid:   500628 G-vectors     FFT dimensions: (  81,  90, 288)

     Estimated max dynamical RAM per process >     333.40 MB

     Estimated total dynamical RAM >      20.84 GB

     Check: negative core charge=   -0.000002
     Generating pointlists ...
     new r_m :   0.0874 (alat units)  1.5600 (a.u.) for type    1
     new r_m :   0.0771 (alat units)  1.3759 (a.u.) for type    2
     new r_m :   0.0663 (alat units)  1.1843 (a.u.) for type    3
     new r_m :   0.0435 (alat units)  0.7760 (a.u.) for type    4
     new r_m :   0.0435 (alat units)  0.7760 (a.u.) for type    5

     Initial potential from superposition of free atoms

     starting charge    1107.8886, renormalised to    1108.0000

     negative rho (up, down):  1.538E-03 4.664E-04
 
     Adding external electric field

     Computed dipole along edir(3) : 
        Dipole                1.6229 Ry au,          4.1250 Debye
        Dipole field          0.0010 Ry au, 
 
        Potential amp.       -0.1064 Ry
        Total length         54.7057 bohr
 
 
     Adding external electric field

     Computed dipole along edir(3) : 
        Dipole                1.6229 Ry au,          4.1250 Debye
        Dipole field          0.0010 Ry au, 
 
        Potential amp.       -0.1064 Ry
        Total length         54.7057 bohr
 
     Starting wfcs are  818 randomized atomic wfcs

     total cpu time spent up to now is       12.7 secs

     Self-consistent Calculation

     iteration #  1     ecut=    50.00 Ry     beta= 0.10
     Davidson diagonalization with overlap
     ethr =  1.00E-02,  avg # of iterations =  6.0

     negative rho (up, down):  4.377E-01 3.258E-07
 
     Adding external electric field

     Computed dipole along edir(3) : 
        Dipole               -3.6944 Ry au,         -9.3902 Debye
        Dipole field         -0.0022 Ry au, 
 
        Potential amp.        0.2423 Ry
        Total length         54.7057 bohr
 
 
     Adding external electric field

     Computed dipole along edir(3) : 
        Dipole               -3.6944 Ry au,         -9.3902 Debye
        Dipole field         -0.0022 Ry au, 
 
        Potential amp.        0.2423 Ry
        Total length         54.7057 bohr
 

     total cpu time spent up to now is       52.4 secs

     total energy              =   -7857.32484606 Ry
     estimated scf accuracy    <     716.36656891 Ry

     total magnetization       =   222.00 Bohr mag/cell
     absolute magnetization    =   319.98 Bohr mag/cell

     iteration #  2     ecut=    50.00 Ry     beta= 0.10
     Davidson diagonalization with overlap
     ethr =  1.00E-02,  avg # of iterations =  2.0

     negative rho (up, down):  4.113E-01 1.831E-07
 
     Adding external electric field

     Computed dipole along edir(3) : 
        Dipole               -2.4995 Ry au,         -6.3532 Debye
        Dipole field         -0.0015 Ry au, 
 
        Potential amp.        0.1639 Ry
        Total length         54.7057 bohr
 
 
     Adding external electric field

     Computed dipole along edir(3) : 
        Dipole               -2.4995 Ry au,         -6.3532 Debye
        Dipole field         -0.0015 Ry au, 
 
        Potential amp.        0.1639 Ry
        Total length         54.7057 bohr
 

     total cpu time spent up to now is       74.1 secs

     total energy              =   -7939.16842712 Ry
     estimated scf accuracy    <     203.23922388 Ry

     total magnetization       =   165.76 Bohr mag/cell
     absolute magnetization    =   213.41 Bohr mag/cell

     iteration #  3     ecut=    50.00 Ry     beta= 0.10
     Davidson diagonalization with overlap
     ethr =  1.00E-02,  avg # of iterations =  1.5

     negative rho (up, down):  3.654E-01 1.346E-07
 
     Adding external electric field

     Computed dipole along edir(3) : 
        Dipole               -2.1210 Ry au,         -5.3910 Debye
        Dipole field         -0.0013 Ry au, 
 
        Potential amp.        0.1391 Ry
        Total length         54.7057 bohr
 
 
     Adding external electric field

     Computed dipole along edir(3) : 
        Dipole               -2.1210 Ry au,         -5.3910 Debye
        Dipole field         -0.0013 Ry au, 
 
        Potential amp.        0.1391 Ry
        Total length         54.7057 bohr
 

     total cpu time spent up to now is       91.8 secs

     total energy              =   -7969.72686965 Ry
     estimated scf accuracy    <     104.86622150 Ry

     total magnetization       =   143.19 Bohr mag/cell
     absolute magnetization    =   192.69 Bohr mag/cell

     iteration #  4     ecut=    50.00 Ry     beta= 0.10
     Davidson diagonalization with overlap
     ethr =  9.46E-03,  avg # of iterations =  1.0

     negative rho (up, down):  2.951E-01 2.605E-08
 
     Adding external electric field

     Computed dipole along edir(3) : 
        Dipole               -2.0911 Ry au,         -5.3149 Debye
        Dipole field         -0.0013 Ry au, 
 
        Potential amp.        0.1371 Ry
        Total length         54.7057 bohr
 
 
     Adding external electric field

     Computed dipole along edir(3) : 
        Dipole               -2.0911 Ry au,         -5.3149 Debye
        Dipole field         -0.0013 Ry au, 
 
        Potential amp.        0.1371 Ry
        Total length         54.7057 bohr
 

     total cpu time spent up to now is      109.3 secs

     total energy              =   -7999.26610836 Ry
     estimated scf accuracy    <      84.42783813 Ry

     total magnetization       =   127.71 Bohr mag/cell
     absolute magnetization    =   178.73 Bohr mag/cell

     iteration #  5     ecut=    50.00 Ry     beta= 0.10
     Davidson diagonalization with overlap
     ethr =  7.62E-03,  avg # of iterations =  1.0

     negative rho (up, down):  5.743E-02 0.000E+00
 
     Adding external electric field

     Computed dipole along edir(3) : 
        Dipole               -1.7463 Ry au,         -4.4387 Debye
        Dipole field         -0.0010 Ry au, 
 
        Potential amp.        0.1145 Ry
        Total length         54.7057 bohr
 
 
     Adding external electric field

     Computed dipole along edir(3) : 
        Dipole               -1.7463 Ry au,         -4.4387 Debye
        Dipole field         -0.0010 Ry au, 
 
        Potential amp.        0.1145 Ry
        Total length         54.7057 bohr
 

     total cpu time spent up to now is      125.6 secs

     total energy              =   -8059.11333817 Ry
     estimated scf accuracy    <      69.99055745 Ry

     total magnetization       =   107.09 Bohr mag/cell
     absolute magnetization    =   161.41 Bohr mag/cell

     iteration #  6     ecut=    50.00 Ry     beta= 0.10
     Davidson diagonalization with overlap
     ethr =  6.32E-03,  avg # of iterations =  1.0

     negative rho (up, down):  5.455E-04 1.307E-03
 
     Adding external electric field

     Computed dipole along edir(3) : 
        Dipole               -1.3185 Ry au,         -3.3513 Debye
        Dipole field         -0.0008 Ry au, 
 
        Potential amp.        0.0865 Ry
        Total length         54.7057 bohr
 
 
     Adding external electric field

     Computed dipole along edir(3) : 
        Dipole               -1.3185 Ry au,         -3.3513 Debye
        Dipole field         -0.0008 Ry au, 
 
        Potential amp.        0.0865 Ry
        Total length         54.7057 bohr
 

     total cpu time spent up to now is      142.3 secs

     total energy              =   -8075.76539493 Ry
     estimated scf accuracy    <      19.25952378 Ry

     total magnetization       =   100.00 Bohr mag/cell
     absolute magnetization    =   135.39 Bohr mag/cell

     iteration #  7     ecut=    50.00 Ry     beta= 0.10
     Davidson diagonalization with overlap
     ethr =  1.74E-03,  avg # of iterations =  6.0

     negative rho (up, down):  5.089E-04 1.216E-03
 
     Adding external electric field

     Computed dipole along edir(3) : 
        Dipole               -1.2905 Ry au,         -3.2800 Debye
        Dipole field         -0.0008 Ry au, 
 
        Potential amp.        0.0846 Ry
        Total length         54.7057 bohr
 
 
     Adding external electric field

     Computed dipole along edir(3) : 
        Dipole               -1.2905 Ry au,         -3.2800 Debye
        Dipole field         -0.0008 Ry au, 
 
        Potential amp.        0.0846 Ry
        Total length         54.7057 bohr
 

     total cpu time spent up to now is      170.1 secs

     total energy              =   -8078.95173709 Ry
     estimated scf accuracy    <      42.60812966 Ry

     total magnetization       =    64.61 Bohr mag/cell
     absolute magnetization    =    83.19 Bohr mag/cell

     iteration #  8     ecut=    50.00 Ry     beta= 0.10
     Davidson diagonalization with overlap
     ethr =  1.74E-03,  avg # of iterations =  1.0

     negative rho (up, down):  4.959E-04 1.180E-03
 
     Adding external electric field

     Computed dipole along edir(3) : 
        Dipole               -1.2732 Ry au,         -3.2360 Debye
        Dipole field         -0.0008 Ry au, 
 
        Potential amp.        0.0835 Ry
        Total length         54.7057 bohr
 
 
     Adding external electric field

     Computed dipole along edir(3) : 
        Dipole               -1.2732 Ry au,         -3.2360 Debye
        Dipole field         -0.0008 Ry au, 
 
        Potential amp.        0.0835 Ry
        Total length         54.7057 bohr
 

     total cpu time spent up to now is      186.3 secs

     total energy              =   -8079.01110243 Ry
     estimated scf accuracy    <      39.27660431 Ry

     total magnetization       =    65.63 Bohr mag/cell
     absolute magnetization    =    83.59 Bohr mag/cell

     iteration #  9     ecut=    50.00 Ry     beta= 0.10
     Davidson diagonalization with overlap
     ethr =  1.74E-03,  avg # of iterations =  1.0

     negative rho (up, down):  5.955E-04 1.241E-03
 
     Adding external electric field

     Computed dipole along edir(3) : 
        Dipole               -1.3613 Ry au,         -3.4602 Debye
        Dipole field         -0.0008 Ry au, 
 
        Potential amp.        0.0893 Ry
        Total length         54.7057 bohr
 
 
     Adding external electric field

     Computed dipole along edir(3) : 
        Dipole               -1.3613 Ry au,         -3.4602 Debye
        Dipole field         -0.0008 Ry au, 
 
        Potential amp.        0.0893 Ry
        Total length         54.7057 bohr
 

     total cpu time spent up to now is      201.5 secs

     total energy              =   -8079.11817679 Ry
     estimated scf accuracy    <      38.38316502 Ry

     total magnetization       =    65.87 Bohr mag/cell
     absolute magnetization    =    83.44 Bohr mag/cell

     iteration # 10     ecut=    50.00 Ry     beta= 0.10
     Davidson diagonalization with overlap
     ethr =  1.74E-03,  avg # of iterations =  1.0

     negative rho (up, down):  1.439E-02 1.888E-02
 
     Adding external electric field

     Computed dipole along edir(3) : 
        Dipole               -0.6348 Ry au,         -1.6135 Debye
        Dipole field         -0.0004 Ry au, 
 
        Potential amp.        0.0416 Ry
        Total length         54.7057 bohr
 
 
     Adding external electric field

     Computed dipole along edir(3) : 
        Dipole               -0.6348 Ry au,         -1.6135 Debye
        Dipole field         -0.0004 Ry au, 
 
        Potential amp.        0.0416 Ry
        Total length         54.7057 bohr
 

     total cpu time spent up to now is      216.5 secs

     total energy              =   -8078.08967490 Ry
     estimated scf accuracy    <      41.34209031 Ry

     total magnetization       =    65.09 Bohr mag/cell
     absolute magnetization    =    82.70 Bohr mag/cell

     iteration # 11     ecut=    50.00 Ry     beta= 0.10
     Davidson diagonalization with overlap
     ethr =  1.74E-03,  avg # of iterations =  1.0

     negative rho (up, down):  7.519E-03 1.254E-02
 
     Adding external electric field

     Computed dipole along edir(3) : 
        Dipole               -0.7553 Ry au,         -1.9197 Debye
        Dipole field         -0.0005 Ry au, 
 
        Potential amp.        0.0495 Ry
        Total length         54.7057 bohr
 
 
     Adding external electric field

     Computed dipole along edir(3) : 
        Dipole               -0.7553 Ry au,         -1.9197 Debye
        Dipole field         -0.0005 Ry au, 
 
        Potential amp.        0.0495 Ry
        Total length         54.7057 bohr
 

     total cpu time spent up to now is      231.6 secs

     total energy              =   -8078.45162069 Ry
     estimated scf accuracy    <      12.49159855 Ry

     total magnetization       =    79.94 Bohr mag/cell
     absolute magnetization    =    93.08 Bohr mag/cell

     iteration # 12     ecut=    50.00 Ry     beta= 0.10
     Davidson diagonalization with overlap
     ethr =  1.13E-03,  avg # of iterations =  1.5

     negative rho (up, down):  4.388E-03 9.286E-03
 
     Adding external electric field

     Computed dipole along edir(3) : 
        Dipole               -0.8401 Ry au,         -2.1353 Debye
        Dipole field         -0.0005 Ry au, 
 
        Potential amp.        0.0551 Ry
        Total length         54.7057 bohr
 
 
     Adding external electric field

     Computed dipole along edir(3) : 
        Dipole               -0.8401 Ry au,         -2.1353 Debye
        Dipole field         -0.0005 Ry au, 
 
        Potential amp.        0.0551 Ry
        Total length         54.7057 bohr
 

     total cpu time spent up to now is      247.7 secs

     total energy              =   -8078.58233356 Ry
     estimated scf accuracy    <      16.89038702 Ry

     total magnetization       =    74.95 Bohr mag/cell
     absolute magnetization    =    88.67 Bohr mag/cell

     iteration # 13     ecut=    50.00 Ry     beta= 0.10
     Davidson diagonalization with overlap
     ethr =  1.13E-03,  avg # of iterations =  1.0

     negative rho (up, down):  8.468E-03 1.655E-02
 
     Adding external electric field

     Computed dipole along edir(3) : 
        Dipole               -0.6878 Ry au,         -1.7482 Debye
        Dipole field         -0.0004 Ry au, 
 
        Potential amp.        0.0451 Ry
        Total length         54.7057 bohr
 
 
     Adding external electric field

     Computed dipole along edir(3) : 
        Dipole               -0.6878 Ry au,         -1.7482 Debye
        Dipole field         -0.0004 Ry au, 
 
        Potential amp.        0.0451 Ry
        Total length         54.7057 bohr
 

     total cpu time spent up to now is      263.6 secs

     total energy              =   -8078.53247121 Ry
     estimated scf accuracy    <      22.51065032 Ry

     total magnetization       =    71.01 Bohr mag/cell
     absolute magnetization    =    85.32 Bohr mag/cell

     iteration # 14     ecut=    50.00 Ry     beta= 0.10
     Davidson diagonalization with overlap
     ethr =  1.13E-03,  avg # of iterations =  1.0

     negative rho (up, down):  8.343E-02 7.860E-02
 
     Adding external electric field

     Computed dipole along edir(3) : 
        Dipole                0.4369 Ry au,          1.1104 Debye
        Dipole field          0.0003 Ry au, 
 
        Potential amp.       -0.0287 Ry
        Total length         54.7057 bohr
 
 
     Adding external electric field

     Computed dipole along edir(3) : 
        Dipole                0.4369 Ry au,          1.1104 Debye
        Dipole field          0.0003 Ry au, 
 
        Potential amp.       -0.0287 Ry
        Total length         54.7057 bohr
 

     total cpu time spent up to now is      278.1 secs

     total energy              =   -8077.57765672 Ry
     estimated scf accuracy    <      19.70951602 Ry

     total magnetization       =    72.31 Bohr mag/cell
     absolute magnetization    =    85.76 Bohr mag/cell

     iteration # 15     ecut=    50.00 Ry     beta= 0.10
     Davidson diagonalization with overlap
     ethr =  1.13E-03,  avg # of iterations =  1.0

     negative rho (up, down):  5.367E-02 6.126E-02
 
     Adding external electric field

     Computed dipole along edir(3) : 
        Dipole                0.3797 Ry au,          0.9651 Debye
        Dipole field          0.0002 Ry au, 
 
        Potential amp.       -0.0249 Ry
        Total length         54.7057 bohr
 
 
     Adding external electric field

     Computed dipole along edir(3) : 
        Dipole                0.3797 Ry au,          0.9651 Debye
        Dipole field          0.0002 Ry au, 
 
        Potential amp.       -0.0249 Ry
        Total length         54.7057 bohr
 

     total cpu time spent up to now is      293.1 secs

     total energy              =   -8078.35218873 Ry
     estimated scf accuracy    <       4.51120326 Ry

     total magnetization       =    94.00 Bohr mag/cell
     absolute magnetization    =   102.89 Bohr mag/cell

     iteration # 16     ecut=    50.00 Ry     beta= 0.10
     Davidson diagonalization with overlap
     ethr =  4.07E-04,  avg # of iterations =  1.5

     negative rho (up, down):  3.208E-02 4.313E-02
 
     Adding external electric field

     Computed dipole along edir(3) : 
        Dipole                0.3003 Ry au,          0.7633 Debye
        Dipole field          0.0002 Ry au, 
 
        Potential amp.       -0.0197 Ry
        Total length         54.7057 bohr
 
 
     Adding external electric field

     Computed dipole along edir(3) : 
        Dipole                0.3003 Ry au,          0.7633 Debye
        Dipole field          0.0002 Ry au, 
 
        Potential amp.       -0.0197 Ry
        Total length         54.7057 bohr
 

     total cpu time spent up to now is      309.2 secs

     total energy              =   -8078.24337950 Ry
     estimated scf accuracy    <       4.38308758 Ry

     total magnetization       =    93.02 Bohr mag/cell
     absolute magnetization    =   101.07 Bohr mag/cell

     iteration # 17     ecut=    50.00 Ry     beta= 0.10
     Davidson diagonalization with overlap
     ethr =  3.96E-04,  avg # of iterations =  1.0

     negative rho (up, down):  1.989E-02 2.817E-02
 
     Adding external electric field

     Computed dipole along edir(3) : 
        Dipole                0.3660 Ry au,          0.9303 Debye
        Dipole field          0.0002 Ry au, 
 
        Potential amp.       -0.0240 Ry
        Total length         54.7057 bohr
 
 
     Adding external electric field

     Computed dipole along edir(3) : 
        Dipole                0.3660 Ry au,          0.9303 Debye
        Dipole field          0.0002 Ry au, 
 
        Potential amp.       -0.0240 Ry
        Total length         54.7057 bohr
 

     total cpu time spent up to now is      324.5 secs

     total energy              =   -8078.31438771 Ry
     estimated scf accuracy    <       4.38415902 Ry

     total magnetization       =    91.38 Bohr mag/cell
     absolute magnetization    =    98.94 Bohr mag/cell

     iteration # 18     ecut=    50.00 Ry     beta= 0.10
     Davidson diagonalization with overlap
     ethr =  3.96E-04,  avg # of iterations =  1.0

     negative rho (up, down):  1.971E-02 3.034E-02
 
     Adding external electric field

     Computed dipole along edir(3) : 
        Dipole                0.5499 Ry au,          1.3977 Debye
        Dipole field          0.0003 Ry au, 
 
        Potential amp.       -0.0361 Ry
        Total length         54.7057 bohr
 
 
     Adding external electric field

     Computed dipole along edir(3) : 
        Dipole                0.5499 Ry au,          1.3977 Debye
        Dipole field          0.0003 Ry au, 
 
        Potential amp.       -0.0361 Ry
        Total length         54.7057 bohr
 

     total cpu time spent up to now is      339.4 secs

     total energy              =   -8078.38847252 Ry
     estimated scf accuracy    <       4.67548695 Ry

     total magnetization       =    89.44 Bohr mag/cell
     absolute magnetization    =    96.91 Bohr mag/cell

     iteration # 19     ecut=    50.00 Ry     beta= 0.10
     Davidson diagonalization with overlap
     ethr =  3.96E-04,  avg # of iterations =  1.0

     negative rho (up, down):  3.702E-02 4.765E-02
 
     Adding external electric field

     Computed dipole along edir(3) : 
        Dipole                0.5779 Ry au,          1.4689 Debye
        Dipole field          0.0003 Ry au, 
 
        Potential amp.       -0.0379 Ry
        Total length         54.7057 bohr
 
 
     Adding external electric field

     Computed dipole along edir(3) : 
        Dipole                0.5779 Ry au,          1.4689 Debye
        Dipole field          0.0003 Ry au, 
 
        Potential amp.       -0.0379 Ry
        Total length         54.7057 bohr
 

     total cpu time spent up to now is      354.8 secs

     total energy              =   -8078.35679489 Ry
     estimated scf accuracy    <       8.69691755 Ry

     total magnetization       =    90.10 Bohr mag/cell
     absolute magnetization    =    96.63 Bohr mag/cell

     iteration # 20     ecut=    50.00 Ry     beta= 0.10
     Davidson diagonalization with overlap
     ethr =  3.96E-04,  avg # of iterations =  1.0

     negative rho (up, down):  2.225E-02 2.901E-02
 
     Adding external electric field

     Computed dipole along edir(3) : 
        Dipole                0.2920 Ry au,          0.7421 Debye
        Dipole field          0.0002 Ry au, 
 
        Potential amp.       -0.0191 Ry
        Total length         54.7057 bohr
 
 
     Adding external electric field

     Computed dipole along edir(3) : 
        Dipole                0.2920 Ry au,          0.7421 Debye
        Dipole field          0.0002 Ry au, 
 
        Potential amp.       -0.0191 Ry
        Total length         54.7057 bohr
 

     total cpu time spent up to now is      371.1 secs

     total energy              =   -8078.38948716 Ry
     estimated scf accuracy    <       3.47375465 Ry

     total magnetization       =    93.23 Bohr mag/cell
     absolute magnetization    =    99.40 Bohr mag/cell

     iteration # 21     ecut=    50.00 Ry     beta= 0.10
     Davidson diagonalization with overlap
     ethr =  3.14E-04,  avg # of iterations =  1.5

     negative rho (up, down):  6.545E-03 1.046E-02
 
     Adding external electric field

     Computed dipole along edir(3) : 
        Dipole               -0.0716 Ry au,         -0.1819 Debye
        Dipole field         -0.0000 Ry au, 
 
        Potential amp.        0.0047 Ry
        Total length         54.7057 bohr
 
 
     Adding external electric field

     Computed dipole along edir(3) : 
        Dipole               -0.0716 Ry au,         -0.1819 Debye
        Dipole field         -0.0000 Ry au, 
 
        Potential amp.        0.0047 Ry
        Total length         54.7057 bohr
 

     total cpu time spent up to now is      386.4 secs

     total energy              =   -8078.38910850 Ry
     estimated scf accuracy    <       1.97928093 Ry

     total magnetization       =    94.19 Bohr mag/cell
     absolute magnetization    =   100.40 Bohr mag/cell

     iteration # 22     ecut=    50.00 Ry     beta= 0.10
     Davidson diagonalization with overlap
     ethr =  1.79E-04,  avg # of iterations =  2.0

     negative rho (up, down):  1.275E-03 2.954E-03
 
     Adding external electric field

     Computed dipole along edir(3) : 
        Dipole               -0.4434 Ry au,         -1.1270 Debye
        Dipole field         -0.0003 Ry au, 
 
        Potential amp.        0.0291 Ry
        Total length         54.7057 bohr
 
 
     Adding external electric field

     Computed dipole along edir(3) : 
        Dipole               -0.4434 Ry au,         -1.1270 Debye
        Dipole field         -0.0003 Ry au, 
 
        Potential amp.        0.0291 Ry
        Total length         54.7057 bohr
 

     total cpu time spent up to now is      403.6 secs

     total energy              =   -8078.42552792 Ry
     estimated scf accuracy    <       1.36584432 Ry

     total magnetization       =    93.82 Bohr mag/cell
     absolute magnetization    =    99.67 Bohr mag/cell

     iteration # 23     ecut=    50.00 Ry     beta= 0.10
     Davidson diagonalization with overlap
     ethr =  1.23E-04,  avg # of iterations =  1.5

     negative rho (up, down):  1.613E-03 2.989E-03
 
     Adding external electric field

     Computed dipole along edir(3) : 
        Dipole               -0.4925 Ry au,         -1.2518 Debye
        Dipole field         -0.0003 Ry au, 
 
        Potential amp.        0.0323 Ry
        Total length         54.7057 bohr
 
 
     Adding external electric field

     Computed dipole along edir(3) : 
        Dipole               -0.4925 Ry au,         -1.2518 Debye
        Dipole field         -0.0003 Ry au, 
 
        Potential amp.        0.0323 Ry
        Total length         54.7057 bohr
 

     total cpu time spent up to now is      419.5 secs

     total energy              =   -8078.48893769 Ry
     estimated scf accuracy    <       0.53067289 Ry

     total magnetization       =    94.52 Bohr mag/cell
     absolute magnetization    =    99.29 Bohr mag/cell

     iteration # 24     ecut=    50.00 Ry     beta= 0.10
     Davidson diagonalization with overlap
     c_bands:  5 eigenvalues not converged
     ethr =  4.79E-05,  avg # of iterations = 11.0

     negative rho (up, down):  1.912E-04 1.911E-04
 
     Adding external electric field

     Computed dipole along edir(3) : 
        Dipole               -0.7857 Ry au,         -1.9970 Debye
        Dipole field         -0.0005 Ry au, 
 
        Potential amp.        0.0515 Ry
        Total length         54.7057 bohr
 
 
     Adding external electric field

     Computed dipole along edir(3) : 
        Dipole               -0.7857 Ry au,         -1.9970 Debye
        Dipole field         -0.0005 Ry au, 
 
        Potential amp.        0.0515 Ry
        Total length         54.7057 bohr
 

     total cpu time spent up to now is      445.7 secs

     total energy              =   -8078.55061351 Ry
     estimated scf accuracy    <       0.32649186 Ry

     total magnetization       =    95.86 Bohr mag/cell
     absolute magnetization    =   100.17 Bohr mag/cell

     iteration # 25     ecut=    50.00 Ry     beta= 0.10
     Davidson diagonalization with overlap
     ethr =  2.95E-05,  avg # of iterations =  2.0

     negative rho (up, down):  2.947E-04 3.336E-04
 
     Adding external electric field

     Computed dipole along edir(3) : 
        Dipole               -0.6262 Ry au,         -1.5916 Debye
        Dipole field         -0.0004 Ry au, 
 
        Potential amp.        0.0411 Ry
        Total length         54.7057 bohr
 
 
     Adding external electric field

     Computed dipole along edir(3) : 
        Dipole               -0.6262 Ry au,         -1.5916 Debye
        Dipole field         -0.0004 Ry au, 
 
        Potential amp.        0.0411 Ry
        Total length         54.7057 bohr
 

     total cpu time spent up to now is      463.0 secs

     total energy              =   -8078.56148156 Ry
     estimated scf accuracy    <       0.28006623 Ry

     total magnetization       =    95.43 Bohr mag/cell
     absolute magnetization    =    98.86 Bohr mag/cell

     iteration # 26     ecut=    50.00 Ry     beta= 0.10
     Davidson diagonalization with overlap
     ethr =  2.53E-05,  avg # of iterations =  3.0

     negative rho (up, down):  4.226E-05 5.801E-05
 
     Adding external electric field

     Computed dipole along edir(3) : 
        Dipole               -0.7248 Ry au,         -1.8424 Debye
        Dipole field         -0.0004 Ry au, 
 
        Potential amp.        0.0475 Ry
        Total length         54.7057 bohr
 
 
     Adding external electric field

     Computed dipole along edir(3) : 
        Dipole               -0.7248 Ry au,         -1.8424 Debye
        Dipole field         -0.0004 Ry au, 
 
        Potential amp.        0.0475 Ry
        Total length         54.7057 bohr
 

     total cpu time spent up to now is      480.4 secs

     total energy              =   -8078.59088050 Ry
     estimated scf accuracy    <       0.11562390 Ry

     total magnetization       =    96.21 Bohr mag/cell
     absolute magnetization    =    99.20 Bohr mag/cell

     iteration # 27     ecut=    50.00 Ry     beta= 0.10
     Davidson diagonalization with overlap
     ethr =  1.04E-05,  avg # of iterations = 12.0

     negative rho (up, down):  4.716E-05 8.104E-05
 
     Adding external electric field

     Computed dipole along edir(3) : 
        Dipole               -0.7092 Ry au,         -1.8026 Debye
        Dipole field         -0.0004 Ry au, 
 
        Potential amp.        0.0465 Ry
        Total length         54.7057 bohr
 
 
     Adding external electric field

     Computed dipole along edir(3) : 
        Dipole               -0.7092 Ry au,         -1.8026 Debye
        Dipole field         -0.0004 Ry au, 
 
        Potential amp.        0.0465 Ry
        Total length         54.7057 bohr
 

     total cpu time spent up to now is      514.9 secs

     total energy              =   -8078.59484170 Ry
     estimated scf accuracy    <       0.22219389 Ry

     total magnetization       =    95.17 Bohr mag/cell
     absolute magnetization    =    97.47 Bohr mag/cell

     iteration # 28     ecut=    50.00 Ry     beta= 0.10
     Davidson diagonalization with overlap
     ethr =  1.04E-05,  avg # of iterations =  1.0

     negative rho (up, down):  5.802E-05 7.130E-05
 
     Adding external electric field

     Computed dipole along edir(3) : 
        Dipole               -0.7710 Ry au,         -1.9598 Debye
        Dipole field         -0.0005 Ry au, 
 
        Potential amp.        0.0506 Ry
        Total length         54.7057 bohr
 
 
     Adding external electric field

     Computed dipole along edir(3) : 
        Dipole               -0.7710 Ry au,         -1.9598 Debye
        Dipole field         -0.0005 Ry au, 
 
        Potential amp.        0.0506 Ry
        Total length         54.7057 bohr
 

     total cpu time spent up to now is      529.8 secs

     total energy              =   -8078.60315315 Ry
     estimated scf accuracy    <       0.17263917 Ry

     total magnetization       =    95.33 Bohr mag/cell
     absolute magnetization    =    97.64 Bohr mag/cell

     iteration # 29     ecut=    50.00 Ry     beta= 0.10
     Davidson diagonalization with overlap
     ethr =  1.04E-05,  avg # of iterations =  1.0

     negative rho (up, down):  1.747E-04 2.264E-04
 
     Adding external electric field

     Computed dipole along edir(3) : 
        Dipole               -0.7672 Ry au,         -1.9500 Debye
        Dipole field         -0.0005 Ry au, 
 
        Potential amp.        0.0503 Ry
        Total length         54.7057 bohr
 
 
     Adding external electric field

     Computed dipole along edir(3) : 
        Dipole               -0.7672 Ry au,         -1.9500 Debye
        Dipole field         -0.0005 Ry au, 
 
        Potential amp.        0.0503 Ry
        Total length         54.7057 bohr
 

     total cpu time spent up to now is      545.7 secs

     total energy              =   -8078.60226418 Ry
     estimated scf accuracy    <       0.53772261 Ry

     total magnetization       =    94.77 Bohr mag/cell
     absolute magnetization    =    96.94 Bohr mag/cell

     iteration # 30     ecut=    50.00 Ry     beta= 0.10
     Davidson diagonalization with overlap
     ethr =  1.04E-05,  avg # of iterations =  1.0

     negative rho (up, down):  2.512E-04 3.044E-04
 
     Adding external electric field

     Computed dipole along edir(3) : 
        Dipole               -0.7470 Ry au,         -1.8986 Debye
        Dipole field         -0.0004 Ry au, 
 
        Potential amp.        0.0490 Ry
        Total length         54.7057 bohr
 
 
     Adding external electric field

     Computed dipole along edir(3) : 
        Dipole               -0.7470 Ry au,         -1.8986 Debye
        Dipole field         -0.0004 Ry au, 
 
        Potential amp.        0.0490 Ry
        Total length         54.7057 bohr
 

     total cpu time spent up to now is      560.9 secs

     total energy              =   -8078.60173296 Ry
     estimated scf accuracy    <       0.25262649 Ry

     total magnetization       =    94.91 Bohr mag/cell
     absolute magnetization    =    96.73 Bohr mag/cell

     iteration # 31     ecut=    50.00 Ry     beta= 0.10
     Davidson diagonalization with overlap
     ethr =  1.04E-05,  avg # of iterations =  1.0

     negative rho (up, down):  3.905E-04 4.018E-04
 
     Adding external electric field

     Computed dipole along edir(3) : 
        Dipole               -0.7347 Ry au,         -1.8675 Debye
        Dipole field         -0.0004 Ry au, 
 
        Potential amp.        0.0482 Ry
        Total length         54.7057 bohr
 
 
     Adding external electric field

     Computed dipole along edir(3) : 
        Dipole               -0.7347 Ry au,         -1.8675 Debye
        Dipole field         -0.0004 Ry au, 
 
        Potential amp.        0.0482 Ry
        Total length         54.7057 bohr
 

     total cpu time spent up to now is      575.7 secs

     total energy              =   -8078.60226981 Ry
     estimated scf accuracy    <       0.08951638 Ry

     total magnetization       =    95.50 Bohr mag/cell
     absolute magnetization    =    97.20 Bohr mag/cell

     iteration # 32     ecut=    50.00 Ry     beta= 0.10
     Davidson diagonalization with overlap
     ethr =  8.08E-06,  avg # of iterations =  1.0

     negative rho (up, down):  2.603E-04 1.675E-04
 
     Adding external electric field

     Computed dipole along edir(3) : 
        Dipole               -0.6654 Ry au,         -1.6914 Debye
        Dipole field         -0.0004 Ry au, 
 
        Potential amp.        0.0436 Ry
        Total length         54.7057 bohr
 
 
     Adding external electric field

     Computed dipole along edir(3) : 
        Dipole               -0.6654 Ry au,         -1.6914 Debye
        Dipole field         -0.0004 Ry au, 
 
        Potential amp.        0.0436 Ry
        Total length         54.7057 bohr
 

     total cpu time spent up to now is      590.2 secs

     total energy              =   -8078.59839312 Ry
     estimated scf accuracy    <       0.04288344 Ry

     total magnetization       =    95.85 Bohr mag/cell
     absolute magnetization    =    97.33 Bohr mag/cell

     iteration # 33     ecut=    50.00 Ry     beta= 0.10
     Davidson diagonalization with overlap
     ethr =  3.87E-06,  avg # of iterations =  2.0

     negative rho (up, down):  2.363E-04 1.328E-04
 
     Adding external electric field

     Computed dipole along edir(3) : 
        Dipole               -0.6593 Ry au,         -1.6757 Debye
        Dipole field         -0.0004 Ry au, 
 
        Potential amp.        0.0432 Ry
        Total length         54.7057 bohr
 
 
     Adding external electric field

     Computed dipole along edir(3) : 
        Dipole               -0.6593 Ry au,         -1.6757 Debye
        Dipole field         -0.0004 Ry au, 
 
        Potential amp.        0.0432 Ry
        Total length         54.7057 bohr
 

     total cpu time spent up to now is      607.4 secs

     total energy              =   -8078.59946922 Ry
     estimated scf accuracy    <       0.03830599 Ry

     total magnetization       =    96.11 Bohr mag/cell
     absolute magnetization    =    97.47 Bohr mag/cell

     iteration # 34     ecut=    50.00 Ry     beta= 0.10
     Davidson diagonalization with overlap
     ethr =  3.46E-06,  avg # of iterations =  1.5

     negative rho (up, down):  3.527E-04 1.788E-04
 
     Adding external electric field

     Computed dipole along edir(3) : 
        Dipole               -0.6646 Ry au,         -1.6893 Debye
        Dipole field         -0.0004 Ry au, 
 
        Potential amp.        0.0436 Ry
        Total length         54.7057 bohr
 
 
     Adding external electric field

     Computed dipole along edir(3) : 
        Dipole               -0.6646 Ry au,         -1.6893 Debye
        Dipole field         -0.0004 Ry au, 
 
        Potential amp.        0.0436 Ry
        Total length         54.7057 bohr
 

     total cpu time spent up to now is      623.7 secs

     total energy              =   -8078.59733328 Ry
     estimated scf accuracy    <       0.03520113 Ry

     total magnetization       =    96.09 Bohr mag/cell
     absolute magnetization    =    97.46 Bohr mag/cell

     iteration # 35     ecut=    50.00 Ry     beta= 0.10
     Davidson diagonalization with overlap
     ethr =  3.18E-06,  avg # of iterations =  2.0

     negative rho (up, down):  3.367E-04 1.577E-04
 
     Adding external electric field

     Computed dipole along edir(3) : 
        Dipole               -0.6367 Ry au,         -1.6183 Debye
        Dipole field         -0.0004 Ry au, 
 
        Potential amp.        0.0418 Ry
        Total length         54.7057 bohr
 
 
     Adding external electric field

     Computed dipole along edir(3) : 
        Dipole               -0.6367 Ry au,         -1.6183 Debye
        Dipole field         -0.0004 Ry au, 
 
        Potential amp.        0.0418 Ry
        Total length         54.7057 bohr
 

     total cpu time spent up to now is      642.0 secs

     total energy              =   -8078.59718213 Ry
     estimated scf accuracy    <       0.02517860 Ry

     total magnetization       =    95.95 Bohr mag/cell
     absolute magnetization    =    97.29 Bohr mag/cell

     iteration # 36     ecut=    50.00 Ry     beta= 0.10
     Davidson diagonalization with overlap
     ethr =  2.27E-06,  avg # of iterations = 12.0

     negative rho (up, down):  3.424E-04 1.514E-04
 
     Adding external electric field

     Computed dipole along edir(3) : 
        Dipole               -0.6231 Ry au,         -1.5839 Debye
        Dipole field         -0.0004 Ry au, 
 
        Potential amp.        0.0409 Ry
        Total length         54.7057 bohr
 
 
     Adding external electric field

     Computed dipole along edir(3) : 
        Dipole               -0.6231 Ry au,         -1.5839 Debye
        Dipole field         -0.0004 Ry au, 
 
        Potential amp.        0.0409 Ry
        Total length         54.7057 bohr
 

     total cpu time spent up to now is      673.9 secs

     total energy              =   -8078.59681386 Ry
     estimated scf accuracy    <       0.03104118 Ry

     total magnetization       =    95.83 Bohr mag/cell
     absolute magnetization    =    97.16 Bohr mag/cell

     iteration # 37     ecut=    50.00 Ry     beta= 0.10
     Davidson diagonalization with overlap
     ethr =  2.27E-06,  avg # of iterations =  1.5

     negative rho (up, down):  1.827E-04 7.106E-05
 
     Adding external electric field

     Computed dipole along edir(3) : 
        Dipole               -0.6522 Ry au,         -1.6577 Debye
        Dipole field         -0.0004 Ry au, 
 
        Potential amp.        0.0428 Ry
        Total length         54.7057 bohr
 
 
     Adding external electric field

     Computed dipole along edir(3) : 
        Dipole               -0.6522 Ry au,         -1.6577 Debye
        Dipole field         -0.0004 Ry au, 
 
        Potential amp.        0.0428 Ry
        Total length         54.7057 bohr
 

     total cpu time spent up to now is      689.7 secs

     total energy              =   -8078.59814808 Ry
     estimated scf accuracy    <       0.02983364 Ry

     total magnetization       =    95.86 Bohr mag/cell
     absolute magnetization    =    97.18 Bohr mag/cell

     iteration # 38     ecut=    50.00 Ry     beta= 0.10
     Davidson diagonalization with overlap
     ethr =  2.27E-06,  avg # of iterations =  2.0

     negative rho (up, down):  1.132E-04 6.264E-05
 
     Adding external electric field

     Computed dipole along edir(3) : 
        Dipole               -0.6673 Ry au,         -1.6962 Debye
        Dipole field         -0.0004 Ry au, 
 
        Potential amp.        0.0438 Ry
        Total length         54.7057 bohr
 
 
     Adding external electric field

     Computed dipole along edir(3) : 
        Dipole               -0.6673 Ry au,         -1.6962 Debye
        Dipole field         -0.0004 Ry au, 
 
        Potential amp.        0.0438 Ry
        Total length         54.7057 bohr
 

     total cpu time spent up to now is      706.5 secs

     total energy              =   -8078.59995740 Ry
     estimated scf accuracy    <       0.02329277 Ry

     total magnetization       =    95.86 Bohr mag/cell
     absolute magnetization    =    97.16 Bohr mag/cell

     iteration # 39     ecut=    50.00 Ry     beta= 0.10
     Davidson diagonalization with overlap
     ethr =  2.10E-06,  avg # of iterations =  1.5

     negative rho (up, down):  1.006E-04 6.709E-05
 
     Adding external electric field

     Computed dipole along edir(3) : 
        Dipole               -0.6778 Ry au,         -1.7228 Debye
        Dipole field         -0.0004 Ry au, 
 
        Potential amp.        0.0445 Ry
        Total length         54.7057 bohr
 
 
     Adding external electric field

     Computed dipole along edir(3) : 
        Dipole               -0.6778 Ry au,         -1.7228 Debye
        Dipole field         -0.0004 Ry au, 
 
        Potential amp.        0.0445 Ry
        Total length         54.7057 bohr
 

     total cpu time spent up to now is      722.5 secs

     total energy              =   -8078.60030735 Ry
     estimated scf accuracy    <       0.02789210 Ry

     total magnetization       =    95.73 Bohr mag/cell
     absolute magnetization    =    97.03 Bohr mag/cell

     iteration # 40     ecut=    50.00 Ry     beta= 0.10
     Davidson diagonalization with overlap
     ethr =  2.10E-06,  avg # of iterations =  2.0

     negative rho (up, down):  1.830E-04 1.282E-04
 
     Adding external electric field

     Computed dipole along edir(3) : 
        Dipole               -0.6791 Ry au,         -1.7262 Debye
        Dipole field         -0.0004 Ry au, 
 
        Potential amp.        0.0445 Ry
        Total length         54.7057 bohr
 
 
     Adding external electric field

     Computed dipole along edir(3) : 
        Dipole               -0.6791 Ry au,         -1.7262 Debye
        Dipole field         -0.0004 Ry au, 
 
        Potential amp.        0.0445 Ry
        Total length         54.7057 bohr
 

     total cpu time spent up to now is      738.5 secs

     total energy              =   -8078.59988880 Ry
     estimated scf accuracy    <       0.02412541 Ry

     total magnetization       =    95.78 Bohr mag/cell
     absolute magnetization    =    97.06 Bohr mag/cell

     iteration # 41     ecut=    50.00 Ry     beta= 0.10
     Davidson diagonalization with overlap
     ethr =  2.10E-06,  avg # of iterations =  1.5

     negative rho (up, down):  9.881E-05 6.816E-05
 
     Adding external electric field

     Computed dipole along edir(3) : 
        Dipole               -0.6903 Ry au,         -1.7547 Debye
        Dipole field         -0.0004 Ry au, 
 
        Potential amp.        0.0453 Ry
        Total length         54.7057 bohr
 
 
     Adding external electric field

     Computed dipole along edir(3) : 
        Dipole               -0.6903 Ry au,         -1.7547 Debye
        Dipole field         -0.0004 Ry au, 
 
        Potential amp.        0.0453 Ry
        Total length         54.7057 bohr
 

     total cpu time spent up to now is      754.9 secs

     total energy              =   -8078.60018297 Ry
     estimated scf accuracy    <       0.02359151 Ry

     total magnetization       =    95.79 Bohr mag/cell
     absolute magnetization    =    97.04 Bohr mag/cell

     iteration # 42     ecut=    50.00 Ry     beta= 0.10
     Davidson diagonalization with overlap
     ethr =  2.10E-06,  avg # of iterations =  2.0

     negative rho (up, down):  4.083E-05 2.383E-05
 
     Adding external electric field

     Computed dipole along edir(3) : 
        Dipole               -0.6243 Ry au,         -1.5868 Debye
        Dipole field         -0.0004 Ry au, 
 
        Potential amp.        0.0409 Ry
        Total length         54.7057 bohr
 
 
     Adding external electric field

     Computed dipole along edir(3) : 
        Dipole               -0.6243 Ry au,         -1.5868 Debye
        Dipole field         -0.0004 Ry au, 
 
        Potential amp.        0.0409 Ry
        Total length         54.7057 bohr
 

     total cpu time spent up to now is      772.1 secs

     total energy              =   -8078.59999517 Ry
     estimated scf accuracy    <       0.02204778 Ry

     total magnetization       =    95.84 Bohr mag/cell
     absolute magnetization    =    97.11 Bohr mag/cell

     iteration # 43     ecut=    50.00 Ry     beta= 0.10
     Davidson diagonalization with overlap
     ethr =  1.99E-06,  avg # of iterations =  1.5

     negative rho (up, down):  2.236E-05 1.558E-05
 
     Adding external electric field

     Computed dipole along edir(3) : 
        Dipole               -0.6213 Ry au,         -1.5792 Debye
        Dipole field         -0.0004 Ry au, 
 
        Potential amp.        0.0407 Ry
        Total length         54.7057 bohr
 
 
     Adding external electric field

     Computed dipole along edir(3) : 
        Dipole               -0.6213 Ry au,         -1.5792 Debye
        Dipole field         -0.0004 Ry au, 
 
        Potential amp.        0.0407 Ry
        Total length         54.7057 bohr
 

     total cpu time spent up to now is      788.8 secs

     total energy              =   -8078.60045032 Ry
     estimated scf accuracy    <       0.02168674 Ry

     total magnetization       =    95.78 Bohr mag/cell
     absolute magnetization    =    97.10 Bohr mag/cell

     iteration # 44     ecut=    50.00 Ry     beta= 0.10
     Davidson diagonalization with overlap
     ethr =  1.96E-06,  avg # of iterations =  1.5

     negative rho (up, down):  6.575E-05 4.014E-05
 
     Adding external electric field

     Computed dipole along edir(3) : 
        Dipole               -0.6441 Ry au,         -1.6370 Debye
        Dipole field         -0.0004 Ry au, 
 
        Potential amp.        0.0422 Ry
        Total length         54.7057 bohr
 
 
     Adding external electric field

     Computed dipole along edir(3) : 
        Dipole               -0.6441 Ry au,         -1.6370 Debye
        Dipole field         -0.0004 Ry au, 
 
        Potential amp.        0.0422 Ry
        Total length         54.7057 bohr
 

     total cpu time spent up to now is      804.5 secs

     total energy              =   -8078.59969394 Ry
     estimated scf accuracy    <       0.02379496 Ry

     total magnetization       =    95.83 Bohr mag/cell
     absolute magnetization    =    97.15 Bohr mag/cell

     iteration # 45     ecut=    50.00 Ry     beta= 0.10
     Davidson diagonalization with overlap
     ethr =  1.96E-06,  avg # of iterations =  1.5

     negative rho (up, down):  3.921E-05 2.262E-05
 
     Adding external electric field

     Computed dipole along edir(3) : 
        Dipole               -0.6734 Ry au,         -1.7117 Debye
        Dipole field         -0.0004 Ry au, 
 
        Potential amp.        0.0442 Ry
        Total length         54.7057 bohr
 
 
     Adding external electric field

     Computed dipole along edir(3) : 
        Dipole               -0.6734 Ry au,         -1.7117 Debye
        Dipole field         -0.0004 Ry au, 
 
        Potential amp.        0.0442 Ry
        Total length         54.7057 bohr
 

     total cpu time spent up to now is      821.5 secs

     total energy              =   -8078.60056132 Ry
     estimated scf accuracy    <       0.02108992 Ry

     total magnetization       =    95.87 Bohr mag/cell
     absolute magnetization    =    97.17 Bohr mag/cell

     iteration # 46     ecut=    50.00 Ry     beta= 0.10
     Davidson diagonalization with overlap
     ethr =  1.90E-06,  avg # of iterations =  1.0

     negative rho (up, down):  5.083E-05 2.195E-05
 
     Adding external electric field

     Computed dipole along edir(3) : 
        Dipole               -0.6644 Ry au,         -1.6887 Debye
        Dipole field         -0.0004 Ry au, 
 
        Potential amp.        0.0436 Ry
        Total length         54.7057 bohr
 
 
     Adding external electric field

     Computed dipole along edir(3) : 
        Dipole               -0.6644 Ry au,         -1.6887 Debye
        Dipole field         -0.0004 Ry au, 
 
        Potential amp.        0.0436 Ry
        Total length         54.7057 bohr
 

     total cpu time spent up to now is      837.2 secs

     total energy              =   -8078.59991113 Ry
     estimated scf accuracy    <       0.02081227 Ry

     total magnetization       =    95.85 Bohr mag/cell
     absolute magnetization    =    97.17 Bohr mag/cell

     iteration # 47     ecut=    50.00 Ry     beta= 0.10
     Davidson diagonalization with overlap
     ethr =  1.88E-06,  avg # of iterations =  1.5

     negative rho (up, down):  2.786E-05 1.772E-05
 
     Adding external electric field

     Computed dipole along edir(3) : 
        Dipole               -0.6603 Ry au,         -1.6782 Debye
        Dipole field         -0.0004 Ry au, 
 
        Potential amp.        0.0433 Ry
        Total length         54.7057 bohr
 
 
     Adding external electric field

     Computed dipole along edir(3) : 
        Dipole               -0.6603 Ry au,         -1.6782 Debye
        Dipole field         -0.0004 Ry au, 
 
        Potential amp.        0.0433 Ry
        Total length         54.7057 bohr
 

     total cpu time spent up to now is      854.3 secs

     total energy              =   -8078.60058898 Ry
     estimated scf accuracy    <       0.02366414 Ry

     total magnetization       =    95.93 Bohr mag/cell
     absolute magnetization    =    97.24 Bohr mag/cell

     iteration # 48     ecut=    50.00 Ry     beta= 0.10
     Davidson diagonalization with overlap
     ethr =  1.88E-06,  avg # of iterations =  1.5

     negative rho (up, down):  2.778E-05 1.285E-05
 
     Adding external electric field

     Computed dipole along edir(3) : 
        Dipole               -0.6319 Ry au,         -1.6060 Debye
        Dipole field         -0.0004 Ry au, 
 
        Potential amp.        0.0414 Ry
        Total length         54.7057 bohr
 
 
     Adding external electric field

     Computed dipole along edir(3) : 
        Dipole               -0.6319 Ry au,         -1.6060 Debye
        Dipole field         -0.0004 Ry au, 
 
        Potential amp.        0.0414 Ry
        Total length         54.7057 bohr
 

     total cpu time spent up to now is      870.9 secs

     total energy              =   -8078.59997933 Ry
     estimated scf accuracy    <       0.02396917 Ry

     total magnetization       =    95.89 Bohr mag/cell
     absolute magnetization    =    97.20 Bohr mag/cell

     iteration # 49     ecut=    50.00 Ry     beta= 0.10
     Davidson diagonalization with overlap
     ethr =  1.88E-06,  avg # of iterations =  1.5

     negative rho (up, down):  9.054E-05 5.069E-05
 
     Adding external electric field

     Computed dipole along edir(3) : 
        Dipole               -0.6388 Ry au,         -1.6236 Debye
        Dipole field         -0.0004 Ry au, 
 
        Potential amp.        0.0419 Ry
        Total length         54.7057 bohr
 
 
     Adding external electric field

     Computed dipole along edir(3) : 
        Dipole               -0.6388 Ry au,         -1.6236 Debye
        Dipole field         -0.0004 Ry au, 
 
        Potential amp.        0.0419 Ry
        Total length         54.7057 bohr
 

     total cpu time spent up to now is      887.5 secs

     total energy              =   -8078.59950113 Ry
     estimated scf accuracy    <       0.02354939 Ry

     total magnetization       =    95.92 Bohr mag/cell
     absolute magnetization    =    97.22 Bohr mag/cell

     iteration # 50     ecut=    50.00 Ry     beta= 0.10
     Davidson diagonalization with overlap
     ethr =  1.88E-06,  avg # of iterations =  2.0

     negative rho (up, down):  3.583E-05 1.750E-05
 
     Adding external electric field

     Computed dipole along edir(3) : 
        Dipole               -0.6379 Ry au,         -1.6215 Debye
        Dipole field         -0.0004 Ry au, 
 
        Potential amp.        0.0418 Ry
        Total length         54.7057 bohr
 
 
     Adding external electric field

     Computed dipole along edir(3) : 
        Dipole               -0.6379 Ry au,         -1.6215 Debye
        Dipole field         -0.0004 Ry au, 
 
        Potential amp.        0.0418 Ry
        Total length         54.7057 bohr
 

     total cpu time spent up to now is      905.6 secs

     total energy              =   -8078.59996937 Ry
     estimated scf accuracy    <       0.02354006 Ry

     total magnetization       =    95.89 Bohr mag/cell
     absolute magnetization    =    97.16 Bohr mag/cell

     iteration # 51     ecut=    50.00 Ry     beta= 0.10
     Davidson diagonalization with overlap
     ethr =  1.88E-06,  avg # of iterations =  1.0

     negative rho (up, down):  2.527E-05 1.033E-05
 
     Adding external electric field

     Computed dipole along edir(3) : 
        Dipole               -0.6095 Ry au,         -1.5493 Debye
        Dipole field         -0.0004 Ry au, 
 
        Potential amp.        0.0400 Ry
        Total length         54.7057 bohr
 
 
     Adding external electric field

     Computed dipole along edir(3) : 
        Dipole               -0.6095 Ry au,         -1.5493 Debye
        Dipole field         -0.0004 Ry au, 
 
        Potential amp.        0.0400 Ry
        Total length         54.7057 bohr
 

     total cpu time spent up to now is      921.3 secs

     total energy              =   -8078.59965066 Ry
     estimated scf accuracy    <       0.02334594 Ry

     total magnetization       =    95.91 Bohr mag/cell
     absolute magnetization    =    97.20 Bohr mag/cell

     iteration # 52     ecut=    50.00 Ry     beta= 0.10
     Davidson diagonalization with overlap
     ethr =  1.88E-06,  avg # of iterations =  1.5

     negative rho (up, down):  1.992E-05 9.774E-06
 
     Adding external electric field

     Computed dipole along edir(3) : 
        Dipole               -0.6388 Ry au,         -1.6237 Debye
        Dipole field         -0.0004 Ry au, 
 
        Potential amp.        0.0419 Ry
        Total length         54.7057 bohr
 
 
     Adding external electric field

     Computed dipole along edir(3) : 
        Dipole               -0.6388 Ry au,         -1.6237 Debye
        Dipole field         -0.0004 Ry au, 
 
        Potential amp.        0.0419 Ry
        Total length         54.7057 bohr
 

     total cpu time spent up to now is      938.2 secs

     total energy              =   -8078.60025764 Ry
     estimated scf accuracy    <       0.02424797 Ry

     total magnetization       =    95.90 Bohr mag/cell
     absolute magnetization    =    97.23 Bohr mag/cell

     iteration # 53     ecut=    50.00 Ry     beta= 0.10
     Davidson diagonalization with overlap
     ethr =  1.88E-06,  avg # of iterations =  1.0

     negative rho (up, down):  1.821E-05 9.641E-06
 
     Adding external electric field

     Computed dipole along edir(3) : 
        Dipole               -0.6368 Ry au,         -1.6186 Debye
        Dipole field         -0.0004 Ry au, 
 
        Potential amp.        0.0418 Ry
        Total length         54.7057 bohr
 
 
     Adding external electric field

     Computed dipole along edir(3) : 
        Dipole               -0.6368 Ry au,         -1.6186 Debye
        Dipole field         -0.0004 Ry au, 
 
        Potential amp.        0.0418 Ry
        Total length         54.7057 bohr
 

     total cpu time spent up to now is      954.5 secs

     total energy              =   -8078.60041941 Ry
     estimated scf accuracy    <       0.02333784 Ry

     total magnetization       =    95.89 Bohr mag/cell
     absolute magnetization    =    97.20 Bohr mag/cell

     iteration # 54     ecut=    50.00 Ry     beta= 0.10
     Davidson diagonalization with overlap
     ethr =  1.88E-06,  avg # of iterations =  1.0

     negative rho (up, down):  1.940E-05 1.160E-05
 
     Adding external electric field

     Computed dipole along edir(3) : 
        Dipole               -0.6575 Ry au,         -1.6712 Debye
        Dipole field         -0.0004 Ry au, 
 
        Potential amp.        0.0431 Ry
        Total length         54.7057 bohr
 
 
     Adding external electric field

     Computed dipole along edir(3) : 
        Dipole               -0.6575 Ry au,         -1.6712 Debye
        Dipole field         -0.0004 Ry au, 
 
        Potential amp.        0.0431 Ry
        Total length         54.7057 bohr
 

     total cpu time spent up to now is      970.5 secs

     total energy              =   -8078.60068406 Ry
     estimated scf accuracy    <       0.02341575 Ry

     total magnetization       =    95.88 Bohr mag/cell
     absolute magnetization    =    97.19 Bohr mag/cell

     iteration # 55     ecut=    50.00 Ry     beta= 0.10
     Davidson diagonalization with overlap
     ethr =  1.88E-06,  avg # of iterations =  1.0

     negative rho (up, down):  8.217E-04 7.742E-04
 
     Adding external electric field

     Computed dipole along edir(3) : 
        Dipole               -0.5685 Ry au,         -1.4449 Debye
        Dipole field         -0.0003 Ry au, 
 
        Potential amp.        0.0373 Ry
        Total length         54.7057 bohr
 
 
     Adding external electric field

     Computed dipole along edir(3) : 
        Dipole               -0.5685 Ry au,         -1.4449 Debye
        Dipole field         -0.0003 Ry au, 
 
        Potential amp.        0.0373 Ry
        Total length         54.7057 bohr
 

     total cpu time spent up to now is      986.6 secs

     total energy              =   -8078.59933611 Ry
     estimated scf accuracy    <       0.02398217 Ry

     total magnetization       =    95.88 Bohr mag/cell
     absolute magnetization    =    97.18 Bohr mag/cell

     iteration # 56     ecut=    50.00 Ry     beta= 0.10
     Davidson diagonalization with overlap
     ethr =  1.88E-06,  avg # of iterations =  2.5

     negative rho (up, down):  5.550E-04 4.805E-04
 
     Adding external electric field

     Computed dipole along edir(3) : 
        Dipole               -0.5997 Ry au,         -1.5242 Debye
        Dipole field         -0.0004 Ry au, 
 
        Potential amp.        0.0393 Ry
        Total length         54.7057 bohr
 
 
     Adding external electric field

     Computed dipole along edir(3) : 
        Dipole               -0.5997 Ry au,         -1.5242 Debye
        Dipole field         -0.0004 Ry au, 
 
        Potential amp.        0.0393 Ry
        Total length         54.7057 bohr
 

     total cpu time spent up to now is     1006.1 secs

     total energy              =   -8078.59984817 Ry
     estimated scf accuracy    <       0.02563854 Ry

     total magnetization       =    95.86 Bohr mag/cell
     absolute magnetization    =    97.24 Bohr mag/cell

     iteration # 57     ecut=    50.00 Ry     beta= 0.10
     Davidson diagonalization with overlap
     ethr =  1.88E-06,  avg # of iterations =  1.5

     negative rho (up, down):  1.446E-03 1.282E-03
 
     Adding external electric field

     Computed dipole along edir(3) : 
        Dipole               -0.5361 Ry au,         -1.3625 Debye
        Dipole field         -0.0003 Ry au, 
 
        Potential amp.        0.0352 Ry
        Total length         54.7057 bohr
 
 
     Adding external electric field

     Computed dipole along edir(3) : 
        Dipole               -0.5361 Ry au,         -1.3625 Debye
        Dipole field         -0.0003 Ry au, 
 
        Potential amp.        0.0352 Ry
        Total length         54.7057 bohr
 

     total cpu time spent up to now is     1023.1 secs

     total energy              =   -8078.59870670 Ry
     estimated scf accuracy    <       0.02579283 Ry

     total magnetization       =    95.89 Bohr mag/cell
     absolute magnetization    =    97.26 Bohr mag/cell

     iteration # 58     ecut=    50.00 Ry     beta= 0.10
     Davidson diagonalization with overlap
     ethr =  1.88E-06,  avg # of iterations =  2.5

     negative rho (up, down):  6.952E-04 5.595E-04
 
     Adding external electric field

     Computed dipole along edir(3) : 
        Dipole               -0.4845 Ry au,         -1.2314 Debye
        Dipole field         -0.0003 Ry au, 
 
        Potential amp.        0.0318 Ry
        Total length         54.7057 bohr
 
 
[...]
    -6.0181  -6.0087  -5.9923  -5.9555  -5.9214  -5.9145  -5.9061  -5.8803
    -5.8685  -5.8502  -5.8254  -5.7981  -5.7886  -5.7551  -5.7486  -5.7462
    -5.7084  -5.7007  -5.6645  -5.6432  -5.6194  -5.6038  -5.5944  -5.5724
    -5.5603  -5.5493  -5.5329  -5.5051  -5.5015  -5.4890  -5.4544  -5.4174
    -5.4060  -5.3834  -5.3367  -5.3132  -5.2708  -5.2324  -5.2078  -5.2054
    -5.2022  -5.1940  -5.1377  -5.0951  -5.0300  -4.9954  -4.9831  -4.9555
    -4.9483  -4.9132  -4.8846  -4.8302  -4.8087  -4.7647  -4.7491  -4.7425
    -4.7236  -4.6829  -4.6342  -4.6092  -4.5970  -4.5353  -4.4852  -4.4371
    -4.4274  -4.4054  -4.3852  -4.3604  -4.3310  -4.2863  -4.2663  -4.2174
    -4.1666  -4.1443  -4.1243  -4.0974  -4.0830  -4.0632  -4.0313  -3.9931
    -3.9191  -3.9032  -3.8767  -3.8626  -3.8338  -3.8002  -3.7789  -3.7727
    -3.7467  -3.7387  -3.7106  -3.6478  -3.6365  -3.6203  -3.6164  -3.6081
    -3.5995  -3.5729  -3.5440  -3.5368  -3.5287  -3.5135  -3.5112  -3.4708
    -3.4477  -3.4361  -3.4310  -3.4225  -3.3629  -3.3574  -3.3439  -3.3378
    -3.3228  -3.3190  -3.2942  -3.2810  -3.2520  -3.2279  -3.2204  -3.2158
    -3.1565  -3.1458  -3.1036  -3.0741  -3.0595  -3.0467  -3.0349  -3.0169
    -3.0117  -2.9990  -2.9569  -2.9344  -2.9191  -2.8898  -2.8794  -2.8412
    -2.8396  -2.8342  -2.7530  -2.7489  -2.7271  -2.7217  -2.7097  -2.6975
    -2.6883  -2.6705  -2.6596  -2.6513  -2.6383  -2.6271  -2.6265  -2.6090
    -2.5893  -2.5840  -2.5726  -2.5518  -2.5308  -2.5275  -2.5179  -2.5069
    -2.4676  -2.4550  -2.4269  -2.4219  -2.3823  -2.3720  -2.3514  -2.3502
    -2.3211  -2.3097  -2.3079  -2.2874  -2.2613  -2.2465  -2.2419  -2.2161
    -2.2048  -2.1618  -2.1486  -2.1368  -2.1247  -2.0969  -2.0835  -2.0747
    -2.0624  -2.0220  -2.0053  -1.9901  -1.9674  -1.9569  -1.9411  -1.9138
    -1.8990  -1.8942  -1.8827  -1.8637  -1.8610  -1.8280  -1.8195  -1.7881
    -1.7806  -1.7623  -1.7486  -1.7239  -1.7096  -1.6883  -1.6677  -1.6330
    -1.6248  -1.6020  -1.5967  -1.5585  -1.5328  -1.5301  -1.5034  -1.4829
    -1.4536  -1.4521  -1.4321  -1.4165  -1.3970  -1.3829  -1.3691  -1.3480
    -1.3317  -1.3228  -1.2906  -1.2689  -1.2621  -1.2070  -1.1815  -1.1680
    -1.1491  -1.1271  -1.1077  -1.0339  -0.9747  -0.8531  -0.8406  -0.8082
    -0.8019  -0.7033  -0.6706  -0.5532  -0.5190  -0.3704  -0.3086  -0.2075
     0.1483   0.1600   0.2040   0.2204   0.2312   0.2449   0.2645   0.2776
     0.3003   0.3086   0.3289   0.3478   0.3576   0.3658   0.3708   0.3775
     0.3811   0.3846   0.3886   0.4069   0.4079   0.4209   0.4253   0.4319
     0.4393   0.4430   0.4536   0.4617   0.4752   0.4788   0.4814   0.4952
     0.5000   0.5164   0.5186   0.5425   0.5492   0.5526   0.5563   0.5674
     0.5726   0.5831   0.6002   0.6073   0.6187   0.6192   0.6255   0.6308
     0.6473   0.6618   0.6642   0.6757   0.6826   0.6963   0.6979   0.7072
     0.7236   0.7310   0.7408   0.7573   0.7600   0.7713   0.7768   0.7879
     0.7939   0.8005   0.8117   0.8321   0.8433   0.8476   0.8544   0.8780
     0.9113   0.9593   0.9628   0.9744   1.0039   1.0410   1.0711   1.1371
     1.1872   1.7365   1.7417   1.7551   1.7722   1.7832   1.7871   1.8067
     1.8283   1.8643   1.8695   1.8901   1.9165   1.9402   1.9567   1.9901
     2.0241   2.0436   2.0522   2.0674   2.0735   2.0925   2.1100   2.1272
     2.1444   2.1586   2.1723   2.2010   2.2278   2.2382   2.2565   2.2752
     2.2928   2.3055   2.3062   2.3115   2.3206   2.3362   2.3479   2.3516
     2.3881   2.4210   2.4283   2.4694   2.4986   2.5043   2.5274   2.5742
     2.6115   2.6153   2.7260   2.7311   2.8061   2.8302   2.8626   3.2720
     3.4762   3.6877   3.6883   3.7233   3.7585   3.7830   3.8899   3.9178
     3.9329   3.9570   3.9658   3.9805   3.9848   4.0288   4.0403   4.0508
     4.0599   4.0780   4.1204   4.1357   4.1487   4.1880   4.1961   4.2158
     4.2201   4.2388   4.2465   4.2908   4.3489   4.4050   4.5651   4.7487
     4.7939   4.8456   4.8518   4.9062   4.9483   4.9944   5.0082   5.0401
     5.0892   5.0944   5.1304   5.1573   5.1942   5.2067   5.3358   6.1686
     6.3079   6.4111   6.4985   6.6507   6.6646   6.6853   6.7922   6.8310
     6.8728   6.9625   6.9693   6.9962   7.1815   7.2410   7.2963   7.3339
     7.3697   7.4569   7.4761   7.5140   7.5251   7.6191   7.6394   7.7188
     7.7773   7.8384   7.8596   7.8968   7.9183   7.9434   7.9838   8.0057
     8.0390   8.0598   8.0955   8.1258   8.1476   8.2051   8.2200   8.2634
     8.2739   8.3018   8.3217   8.3506   8.3686   8.3914   8.4041   8.4226
     8.4334   8.4693   8.5102   8.5294   8.5323   8.5617   8.5799   8.5973
     8.6190

     the Fermi energy is     1.6624 ev

!    total energy              =   -8078.59628011 Ry
     estimated scf accuracy    <       0.00000056 Ry
     smearing contrib. (-TS)   =      -0.02310197 Ry
     internal energy E=F+TS    =   -8078.57317815 Ry

     The total energy is F=E-TS. E is the sum of the following terms:
     one-electron contribution =  -94634.30655805 Ry
     hartree contribution      =   47900.40893688 Ry
     xc contribution           =   -2177.32691655 Ry
     ewald contribution        =   40834.41991810 Ry
     Dispersion Correction     =      -1.76857822 Ry
     electric field correction =       0.00001969 Ry

     total magnetization       =    95.84 Bohr mag/cell
     absolute magnetization    =    97.19 Bohr mag/cell

     convergence has been achieved in 128 iterations

     negative rho (up, down):  1.160E-03 6.319E-04

     Forces acting on atoms (cartesian axes, Ry/au):

     atom    1 type  1   force =     0.00011119    0.00069618    0.00026236
     atom    2 type  1   force =     0.00016462   -0.00002110    0.00014612
     atom    3 type  2   force =     0.00032788   -0.00075258   -0.00015463
     atom    4 type  1   force =    -0.00023510    0.00010336    0.00047085
     atom    5 type  1   force =     0.00001923    0.00062144   -0.00015259
     atom    6 type  1   force =     0.00028879   -0.00003399    0.00008764
     atom    7 type  1   force =    -0.00028083   -0.00011757    0.00040043
     atom    8 type  2   force =    -0.00003561   -0.00018770   -0.00017387
     atom    9 type  2   force =    -0.00047538   -0.00016765   -0.00029820
     atom   10 type  1   force =    -0.00017690    0.00024297   -0.00001079
     atom   11 type  1   force =    -0.00018477    0.00018311    0.00009539
     atom   12 type  1   force =    -0.00007491    0.00018021    0.00028547
     atom   13 type  3   force =     0.00014320   -0.00010041   -0.00010531
     atom   14 type  3   force =    -0.00039835   -0.00022918   -0.00003424
     atom   15 type  3   force =     0.00036477   -0.00017388    0.00025607
     atom   16 type  3   force =     0.00006507   -0.00011315   -0.00019721
     atom   17 type  4   force =     0.00013184   -0.00036317   -0.00015201
     atom   18 type  4   force =    -0.00030683   -0.00066557    0.00001528
     atom   19 type  4   force =    -0.00039379   -0.00033543    0.00009980
     atom   20 type  4   force =    -0.00050073   -0.00001964   -0.00001800
     atom   21 type  4   force =     0.00012300   -0.00015114   -0.00011062
     atom   22 type  4   force =    -0.00003798    0.00006699    0.00029646
     atom   23 type  4   force =    -0.00033382   -0.00007779    0.00007186
     atom   24 type  4   force =    -0.00008073   -0.00008917   -0.00017346
     atom   25 type  4   force =    -0.00016888   -0.00003587   -0.00002068
     atom   26 type  4   force =    -0.00016648   -0.00052129   -0.00024237
     atom   27 type  4   force =    -0.00016627    0.00021828    0.00040201
     atom   28 type  4   force =     0.00042826   -0.00033353   -0.00013792
     atom   29 type  4   force =    -0.00053627   -0.00042938    0.00048193
     atom   30 type  4   force =     0.00034660   -0.00017907   -0.00023744
     atom   31 type  4   force =    -0.00042539    0.00027485   -0.00029979
     atom   32 type  4   force =    -0.00021048   -0.00011637   -0.00004605
     atom   33 type  3   force =    -0.00046424   -0.00003558   -0.00009933
     atom   34 type  3   force =    -0.00044852    0.00031221   -0.00019586
     atom   35 type  3   force =     0.00031805    0.00038835   -0.00011291
     atom   36 type  3   force =    -0.00013425    0.00000269    0.00013094
     atom   37 type  4   force =     0.00007964   -0.00037082   -0.00006777
     atom   38 type  4   force =    -0.00019382   -0.00037325   -0.00028567
     atom   39 type  4   force =     0.00010303   -0.00035604   -0.00052323
     atom   40 type  4   force =    -0.00029403   -0.00032173    0.00000197
     atom   41 type  4   force =    -0.00027164   -0.00001925    0.00018873
     atom   42 type  4   force =     0.00003797   -0.00017354    0.00023451
     atom   43 type  4   force =    -0.00010370    0.00018848   -0.00003853
     atom   44 type  4   force =    -0.00013442   -0.00004817    0.00010104
     atom   45 type  4   force =    -0.00000661    0.00010095    0.00017909
     atom   46 type  4   force =     0.00013549    0.00025172   -0.00049200
     atom   47 type  4   force =    -0.00028238   -0.00007325    0.00054059
     atom   48 type  4   force =     0.00058029    0.00007053   -0.00012219
     atom   49 type  4   force =    -0.00042676   -0.00057254    0.00033830
     atom   50 type  4   force =     0.00016178    0.00022189   -0.00039671
     atom   51 type  4   force =    -0.00030502    0.00013987   -0.00028829
     atom   52 type  4   force =     0.00013767   -0.00022249    0.00013323
     atom   53 type  1   force =     0.00078181    0.00035511   -0.00015826
     atom   54 type  1   force =     0.00093805    0.00084910   -0.00190094
     atom   55 type  2   force =     0.00086859    0.00087810    0.00546942
     atom   56 type  1   force =    -0.00077104   -0.00111167   -0.00116911
     atom   57 type  1   force =     0.00003308    0.00008012    0.00003374
     atom   58 type  1   force =    -0.00022229   -0.00001735   -0.00004104
     atom   59 type  1   force =     0.00154303    0.00134242    0.00040580
     atom   60 type  2   force =    -0.00006147    0.00022860   -0.00208790
     atom   61 type  2   force =     0.00123296    0.00089422    0.00496475
     atom   62 type  1   force =    -0.00029379   -0.00095064   -0.00134284
     atom   63 type  1   force =     0.00001042    0.00024375   -0.00026940
     atom   64 type  1   force =     0.00044281   -0.00003162    0.00018768
     atom   65 type  3   force =    -0.00022982   -0.00080893   -0.00245448
     atom   66 type  3   force =     0.00047002   -0.00093470    0.00176559
     atom   67 type  3   force =     0.00038172    0.00147261    0.00124205
     atom   68 type  3   force =    -0.00083087    0.00070112   -0.00074745
     atom   69 type  4   force =    -0.00069468    0.00032054    0.00082724
     atom   70 type  4   force =    -0.00022948    0.00008990   -0.00020935
     atom   71 type  4   force =     0.00012919    0.00004008   -0.00079772
     atom   72 type  4   force =     0.00029109   -0.00045144    0.00141045
     atom   73 type  4   force =    -0.00081900    0.00070566    0.00191715
     atom   74 type  4   force =     0.00021287   -0.00050836   -0.00087424
     atom   75 type  4   force =    -0.00154361   -0.00043207    0.00108715
     atom   76 type  4   force =     0.00022256   -0.00081282    0.00137840
     atom   77 type  4   force =    -0.00045418    0.00006843    0.00061767
     atom   78 type  4   force =    -0.00027248   -0.00025088   -0.00026205
     atom   79 type  4   force =     0.00019445    0.00028573    0.00060921
     atom   80 type  4   force =     0.00011204    0.00066546   -0.00048857
     atom   81 type  4   force =     0.00008678   -0.00055334   -0.00054403
     atom   82 type  4   force =     0.00089464   -0.00085628    0.00081180
     atom   83 type  4   force =    -0.00001772    0.00066588    0.00038860
     atom   84 type  4   force =    -0.00055167    0.00020889    0.00062951
     atom   85 type  3   force =    -0.00019959   -0.00089814   -0.00250636
     atom   86 type  3   force =     0.00000013    0.00007548    0.00307344
     atom   87 type  3   force =     0.00054909    0.00117456    0.00272346
     atom   88 type  3   force =    -0.00062334    0.00069081   -0.00072863
     atom   89 type  4   force =    -0.00021776   -0.00016436    0.00045536
     atom   90 type  4   force =    -0.00044713   -0.00031826   -0.00119677
     atom   91 type  4   force =     0.00031719    0.00025748   -0.00133944
     atom   92 type  4   force =     0.00033314   -0.00042748    0.00114063
     atom   93 type  4   force =    -0.00010423    0.00110073    0.00104521
     atom   94 type  4   force =     0.00055307    0.00094722    0.00152360
     atom   95 type  4   force =    -0.00035939    0.00021216    0.00126723
     atom   96 type  4   force =    -0.00022083   -0.00028263    0.00105738
     atom   97 type  4   force =    -0.00006776   -0.00044826    0.00075853
     atom   98 type  4   force =     0.00007220   -0.00023619   -0.00093725
     atom   99 type  4   force =     0.00064978   -0.00009286    0.00062605
     atom  100 type  4   force =     0.00005672    0.00043934   -0.00038126
     atom  101 type  4   force =    -0.00044305   -0.00000682   -0.00019045
     atom  102 type  4   force =     0.00128333   -0.00111266   -0.00043966
     atom  103 type  4   force =     0.00033205    0.00024804    0.00030839
     atom  104 type  4   force =    -0.00004657   -0.00061923   -0.00017575
     atom  105 type  1   force =    -0.00082112    0.00205639   -0.00681907
     atom  106 type  1   force =     0.02822982    0.01371206    0.02200967
     atom  107 type  2   force =     0.00162132    0.00024118   -0.01067715
     atom  108 type  1   force =    -0.03107549    0.02297636    0.01680733
     atom  109 type  1   force =     0.00406519   -0.00292255   -0.00348529
     atom  110 type  1   force =    -0.00135710   -0.00646004   -0.00557622
     atom  111 type  1   force =    -0.00366290    0.00238916   -0.00602345
     atom  112 type  2   force =     0.03237664    0.01656579   -0.01030875
     atom  113 type  2   force =     0.00152093    0.00099049   -0.01028049
     atom  114 type  1   force =    -0.03188728    0.02423414    0.01774958
     atom  115 type  1   force =     0.00359426   -0.00478682   -0.00445379
     atom  116 type  1   force =    -0.00483614   -0.00809080   -0.00670734
     atom  117 type  3   force =    -0.02899954   -0.03570987   -0.06275005
     atom  118 type  3   force =     0.00317416    0.00035862   -0.00697574
     atom  119 type  3   force =     0.00071372   -0.00068890   -0.00915760
     atom  120 type  3   force =     0.02797803   -0.05775220   -0.08371985
     atom  121 type  4   force =    -0.00651167   -0.00318913    0.03044261
     atom  122 type  4   force =    -0.00142173   -0.00114712    0.00260745
     atom  123 type  4   force =     0.00158149   -0.00101511    0.00490326
     atom  124 type  4   force =     0.00352734    0.00316390    0.03397748
     atom  125 type  4   force =    -0.00224449   -0.00221415    0.03420029
     atom  126 type  4   force =    -0.00087987    0.00069961    0.00300499
     atom  127 type  4   force =     0.00218947    0.00311205    0.00432246
     atom  128 type  4   force =    -0.00318097   -0.00167773    0.02237036
     atom  129 type  4   force =    -0.01252944    0.03633596    0.00496874
     atom  130 type  4   force =    -0.00150321    0.00037638    0.00236361
     atom  131 type  4   force =    -0.01940439    0.00356846    0.00994738
     atom  132 type  4   force =    -0.00103577    0.00353656    0.00433858
     atom  133 type  4   force =    -0.00293887    0.00064004    0.00240720
     atom  134 type  4   force =     0.00147429   -0.00436143    0.00352300
     atom  135 type  4   force =     0.01381467    0.02353994   -0.00089567
     atom  136 type  4   force =     0.01315639   -0.00064095    0.00240938
     atom  137 type  3   force =    -0.03818746   -0.04127582   -0.06616928
     atom  138 type  3   force =     0.00646461   -0.00302411   -0.00140850
     atom  139 type  3   force =     0.00028389   -0.00157804   -0.00939392
     atom  140 type  3   force =     0.02906047   -0.05119285   -0.08327756
     atom  141 type  4   force =    -0.00101109    0.00277418    0.02931040
     atom  142 type  4   force =     0.00049863    0.00233670   -0.00625430
     atom  143 type  4   force =     0.00162853   -0.00088041    0.00429594
     atom  144 type  4   force =     0.00420585    0.00184044    0.03457227
     atom  145 type  4   force =     0.00901457    0.00389479    0.03133027
     atom  146 type  4   force =    -0.00028617    0.00054985    0.00172578
     atom  147 type  4   force =     0.00269131    0.00342879    0.00396444
     atom  148 type  4   force =    -0.00397032   -0.00133360    0.02230019
     atom  149 type  4   force =    -0.00997477    0.03012587    0.00425729
     atom  150 type  4   force =    -0.00192373    0.00045116    0.00279233
     atom  151 type  4   force =    -0.01847887    0.00503761    0.00991383
     atom  152 type  4   force =    -0.00079208    0.00344609    0.00431603
     atom  153 type  4   force =    -0.00131449    0.00026289    0.00297182
     atom  154 type  4   force =     0.00214505   -0.00251244    0.00282554
     atom  155 type  4   force =     0.01477331    0.02456187    0.00017546
     atom  156 type  4   force =     0.02229972   -0.00368191    0.00144884
     atom  157 type  4   force =     0.00227172   -0.00100994    0.00082100
     atom  158 type  5   force =    -0.00321096    0.00054120   -0.00155572

     Total force =     0.237589     Total SCF correction =     0.003386
 
     init_run     :      9.67s CPU     10.45s WALL (       1 calls)
     electrons    :   2108.42s CPU   2200.91s WALL (       1 calls)
     forces       :      4.62s CPU      5.07s WALL (       1 calls)
     force_london :      0.11s CPU      0.11s WALL (       1 calls)

     Called by init_run:
     wfcinit      :      5.89s CPU      6.09s WALL (       1 calls)
     potinit      :      0.64s CPU      0.84s WALL (       1 calls)
     hinit0       :      1.75s CPU      1.89s WALL (       1 calls)

     Called by electrons:
     c_bands      :   1638.05s CPU   1682.44s WALL (     128 calls)
     sum_band     :    297.92s CPU    323.82s WALL (     128 calls)
     v_of_rho     :     39.18s CPU     40.73s WALL (     129 calls)
     newd         :     82.03s CPU    102.48s WALL (     129 calls)
     mix_rho      :     48.53s CPU     48.82s WALL (     128 calls)
     energy_londo :      0.11s CPU      0.11s WALL (       1 calls)

     Called by c_bands:
     init_us_2    :      4.50s CPU      4.63s WALL (     516 calls)
     init_us_2:cp :      4.49s CPU      4.62s WALL (     516 calls)
     regterg      :   1602.11s CPU   1645.96s WALL (     258 calls)

     Called by *egterg:
     rdiaghg      :    412.93s CPU    430.79s WALL (     764 calls)
     h_psi        :    677.52s CPU    690.94s WALL (     766 calls)
     s_psi        :    107.71s CPU    107.84s WALL (     766 calls)
     g_psi        :      0.83s CPU      0.83s WALL (     506 calls)

     Called by h_psi:
     h_psi:calbec :    158.40s CPU    168.80s WALL (     766 calls)
     vloc_psi     :    410.10s CPU    411.84s WALL (     766 calls)
     add_vuspsi   :    107.56s CPU    108.81s WALL (     766 calls)

     General routines
     calbec       :    236.75s CPU    252.06s WALL (    1030 calls)
     fft          :     40.09s CPU     42.43s WALL (    2335 calls)
     ffts         :     28.01s CPU     28.12s WALL (   16007 calls)
     fftw         :    467.71s CPU    469.59s WALL (  435970 calls)
     interpolate  :      2.91s CPU      3.06s WALL (     258 calls)
 
     Parallel routines
 
     PWSCF        :  35m24.76s CPU  36m58.84s WALL

 
   This run was terminated on:   2:15:49  18Nov2025            

=------------------------------------------------------------------------------=
   JOB DONE.
=------------------------------------------------------------------------------=
