
     Program PWSCF v.7.2 starts on 17Nov2025 at 23:37: 2 

     This program is part of the open-source Quantum ESPRESSO suite
     for quantum simulation of materials; please cite
         "P. Giannozzi et al., J. Phys.:Condens. Matter 21 395502 (2009);
         "P. Giannozzi et al., J. Phys.:Condens. Matter 29 465901 (2017);
         "P. Giannozzi et al., J. Chem. Phys. 152 154105 (2020);
          URL http://www.quantum-espresso.org", 
     in publications or presentations arising from this work. More details at
     http://www.quantum-espresso.org/quote

     Parallel version (MPI), running on    64 processors

     MPI processes distributed on     4 nodes
     466167 MiB available memory on the printing compute node when the environment starts
 
     Reading input from PWINPUT_atm158_xp

     Current dimensions of program PWSCF are:
     Max number of different atomic species (ntypx) = 10
     Max number of k-points (npk) =  40000
     Max angular momentum in pseudopotentials (lmaxx) =  4
     Presently no symmetry can be used with electric field

     file Ni.pbe-n-rrkjus_psl.1.0.0.UPF: wavefunction(s)  3D renormalized
     file Mn.pbe-spn-rrkjus_psl.0.3.1.UPF: wavefunction(s)  3D renormalized
     file O.pbe-rrkjus.UPF: wavefunction(s)  2S renormalized
     file H.pbe-rrkjus.UPF: wavefunction(s)  1S renormalized

     gamma-point specific algorithms are used
 
     R & G space division:  proc/nbgrp/npool/nimage =      64
     Subspace diagonalization in iterative solution of the eigenvalue problem:
     one sub-group per band group will be used
     custom distributed-memory algorithm (size of sub-group:  7*  7 procs)

 
     Parallelization info
     --------------------
     sticks:   dense  smooth     PW     G-vecs:    dense   smooth      PW
     Min         214      85     20                61830    15614    1928
     Max         216      86     22                61864    15658    1982
     Sum       13727    5503   1375              3958051  1001255  125211
 
     Using Slab Decomposition
 


     bravais-lattice index     =            0
     lattice parameter (alat)  =      17.8532  a.u.
     unit-cell volume          =   20962.6682 (a.u.)^3
     number of atoms/cell      =          158
     number of atomic types    =            5
     number of electrons       =      1108.00
     number of Kohn-Sham states=          665
     kinetic-energy cutoff     =      50.0000  Ry
     charge density cutoff     =     500.0000  Ry
     scf convergence threshold =      1.0E-06
     mixing beta               =       0.1000
     number of iterations used =            8  local-TF  mixing
     Exchange-correlation=  SLA  PW   PBE  PBE
                           (   1   4   3   4   0   0   0)

     celldm(1)=  17.853155  celldm(2)=   0.000000  celldm(3)=   0.000000
     celldm(4)=   0.000000  celldm(5)=   0.000000  celldm(6)=   0.000000

     crystal axes: (cart. coord. in units of alat)
               a(1) = (   1.000000   0.000000   0.000000 )  
               a(2) = (   0.003237   1.081997   0.000000 )  
               a(3) = (   0.000000   0.000000   3.404673 )  

     reciprocal axes: (cart. coord. in units 2 pi/alat)
               b(1) = (  1.000000 -0.002992  0.000000 )  
               b(2) = (  0.000000  0.924217  0.000000 )  
               b(3) = (  0.000000  0.000000  0.293714 )  


     PseudoPot. # 1 for Ni read from file:
     ~/PSEUDO/Ni.pbe-n-rrkjus_psl.1.0.0.UPF
     MD5 check sum: Not computed, couldn't open file
     Pseudo is Ultrasoft + core correction, Zval = 10.0
     Generated using "atomic" code by A. Dal Corso  v.5.1.2
     Using radial grid of 1195 points,  6 beta functions with: 
                l(1) =   0
                l(2) =   0
                l(3) =   1
                l(4) =   1
                l(5) =   2
                l(6) =   2
     Q(r) pseudized with 0 coefficients 


     PseudoPot. # 2 for Mn read from file:
     ~/PSEUDO/Mn.pbe-spn-rrkjus_psl.0.3.1.UPF
     MD5 check sum: Not computed, couldn't open file
     Pseudo is Ultrasoft + core correction, Zval = 15.0
     Generated using &quot;atomic&quot; code by A. Dal Corso  v.6.2.2
     Using radial grid of 1187 points,  6 beta functions with: 
                l(1) =   0
                l(2) =   0
                l(3) =   1
                l(4) =   1
                l(5) =   2
                l(6) =   2
     Q(r) pseudized with 0 coefficients 


     PseudoPot. # 3 for P  read from file:
     ~/PSEUDO/P.pbe-n-rrkjus_psl.1.0.0.UPF
     MD5 check sum: Not computed, couldn't open file
     Pseudo is Ultrasoft + core correction, Zval =  5.0
     Generated using "atomic" code by A. Dal Corso  v.5.1
     Using radial grid of 1147 points,  6 beta functions with: 
                l(1) =   0
                l(2) =   0
                l(3) =   1
                l(4) =   1
                l(5) =   2
                l(6) =   2
     Q(r) pseudized with 0 coefficients 


     PseudoPot. # 4 for O  read from file:
     ~/PSEUDO/O.pbe-rrkjus.UPF
     MD5 check sum: Not computed, couldn't open file
     Pseudo is Ultrasoft, Zval =  6.0
     Generated by new atomic code, or converted to UPF format
     Using radial grid of 1269 points,  4 beta functions with: 
                l(1) =   0
                l(2) =   0
                l(3) =   1
                l(4) =   1
     Q(r) pseudized with 0 coefficients 


     PseudoPot. # 5 for H  read from file:
     ~/PSEUDO/H.pbe-rrkjus.UPF
     MD5 check sum: Not computed, couldn't open file
     Pseudo is Ultrasoft, Zval =  1.0
     Generated by new atomic code, or converted to UPF format
     Using radial grid of 1061 points,  2 beta functions with: 
                l(1) =   0
                l(2) =   0
     Q(r) pseudized with 0 coefficients 


     atomic species   valence    mass     pseudopotential
     Ni               10.00    58.69300     Ni( 1.00)
     Mn               15.00    54.93800     Mn( 1.00)
     P                 5.00    30.97300     P ( 1.00)
     O                 6.00    15.99900     O ( 1.00)
     H                 1.00     1.00790     H ( 1.00)

     Starting magnetic structure 
     atomic species   magnetization
     Ni              1.000
     Mn              1.000
     P               1.000
     O               1.000
     H               0.000

     No symmetry found



   Cartesian axes

     site n.     atom                  positions (alat units)
         1        Ni     tau(   1) = (   0.2518260   0.8295784   1.6794106  )
         2        Ni     tau(   2) = (   0.4927480   0.7713237   1.3753272  )
         3        Mn     tau(   3) = (  -0.0019104   0.2893041   1.7111611  )
         4        Ni     tau(   4) = (   0.2570296   0.2258471   1.3782297  )
         5        Ni     tau(   5) = (   0.9983333   1.0731578   1.5373129  )
         6        Ni     tau(   6) = (   0.2535858   0.5283692   1.5435542  )
         7        Ni     tau(   7) = (   0.7527859   0.8301859   1.6808772  )
         8        Mn     tau(   8) = (   0.9889930   0.7674276   1.3721895  )
         9        Mn     tau(   9) = (   0.5003935   0.2926237   1.7029517  )
        10        Ni     tau(  10) = (   0.7577903   0.2268632   1.3799398  )
        11        Ni     tau(  11) = (   0.4980054   1.0712871   1.5393278  )
        12        Ni     tau(  12) = (   0.7539105   0.5321788   1.5382577  )
        13        P      tau(  13) = (   0.2118656   0.9693900   1.3793414  )
        14        P      tau(  14) = (   0.4660278   0.6478965   1.6959065  )
        15        P      tau(  15) = (   0.2832051   0.0929046   1.6945962  )
        16        P      tau(  16) = (   0.0418193   0.4207457   1.3872791  )
        17        O      tau(  17) = (   0.1336657   0.9013866   1.5145591  )
        18        O      tau(  18) = (   0.3860059   0.7008468   1.5503267  )
        19        O      tau(  19) = (   0.3599779   0.1579283   1.5547376  )
        20        O      tau(  20) = (   0.1188180   0.3521237   1.5214666  )
        21        O      tau(  21) = (   0.1529170   0.8803112   1.2547888  )
        22        O      tau(  22) = (   0.4066564   0.7467891   1.8079626  )
        23        O      tau(  23) = (   0.3410378   0.1858743   1.8146268  )
        24        O      tau(  24) = (   0.1011967   0.3326204   1.2622753  )
        25        O      tau(  25) = (   0.0991588   0.5750199   1.3866315  )
        26        O      tau(  26) = (   0.3434848   1.0201382   1.6942680  )
        27        O      tau(  27) = (   0.3789457   0.4154633   1.3977404  )
        28        O      tau(  28) = (   0.1193596   0.0996523   1.6839051  )
        29        O      tau(  29) = (   0.1276068   0.6477554   1.6810586  )
        30        O      tau(  30) = (   0.4128914   0.4905501   1.7021188  )
        31        O      tau(  31) = (   0.1478328   0.0409865   1.3813227  )
        32        O      tau(  32) = (   0.3745804   0.9617408   1.3915397  )
        33        P      tau(  33) = (   0.7074954   0.9695156   1.3792001  )
        34        P      tau(  34) = (   0.9643217   0.6427850   1.6992735  )
        35        P      tau(  35) = (   0.7838284   0.0944368   1.7001908  )
        36        P      tau(  36) = (   0.5416777   0.4260543   1.3855657  )
        37        O      tau(  37) = (   0.6306840   0.8974445   1.5137782  )
        38        O      tau(  38) = (   0.8854609   0.7040046   1.5561567  )
        39        O      tau(  39) = (   0.8648068   0.1680159   1.5645156  )
        40        O      tau(  40) = (   0.6206025   0.3577624   1.5198754  )
        41        O      tau(  41) = (   0.6483131   0.8811005   1.2540249  )
        42        O      tau(  42) = (   0.9040880   0.7389950   1.8133540  )
        43        O      tau(  43) = (   0.8397112   0.1841216   1.8224656  )
        44        O      tau(  44) = (   0.6014551   0.3360063   1.2621344  )
        45        O      tau(  45) = (   0.5989499   0.5805885   1.3836427  )
        46        O      tau(  46) = (   0.8435274   1.0213000   1.6914443  )
        47        O      tau(  47) = (   0.8784703   0.4145143   1.3944208  )
        48        O      tau(  48) = (   0.6206951   0.1010299   1.6851757  )
        49        O      tau(  49) = (   0.6298363   0.6504103   1.6806734  )
        50        O      tau(  50) = (   0.9052265   0.4866691   1.6920526  )
        51        O      tau(  51) = (   0.6468562   0.0420961   1.3852950  )
        52        O      tau(  52) = (   0.8702125   0.9631440   1.3913059  )
        53        Ni     tau(  53) = (   0.2420320   0.8169913   1.0699082  )
        54        Ni     tau(  54) = (   0.4893084   0.7542727   0.7477128  )
        55        Mn     tau(  55) = (   0.0085152   0.2729728   1.0755565  )
        56        Ni     tau(  56) = (   0.2558246   0.2079345   0.7498450  )
        57        Ni     tau(  57) = (   0.9991959   1.0516583   0.9080455  )
        58        Ni     tau(  58) = (   0.2490231   0.5149840   0.9092594  )
        59        Ni     tau(  59) = (   0.7373131   0.8159965   1.0690453  )
        60        Mn     tau(  60) = (   0.9859093   0.7511625   0.7423903  )
        61        Mn     tau(  61) = (   0.5085552   0.2755447   1.0757185  )
        62        Ni     tau(  62) = (   0.7532989   0.2074622   0.7493279  )
        63        Ni     tau(  63) = (   0.4981517   1.0523018   0.9093468  )
        64        Ni     tau(  64) = (   0.7469109   0.5147379   0.9081681  )
        65        P      tau(  65) = (   0.2119924   0.9497675   0.7533413  )
        66        P      tau(  66) = (   0.4579509   0.6252695   1.0650744  )
        67        P      tau(  67) = (   0.2855349   0.0724244   1.0650326  )
        68        P      tau(  68) = (   0.0381112   0.4032615   0.7561117  )
        69        O      tau(  69) = (   0.1352995   0.8818598   0.8892857  )
        70        O      tau(  70) = (   0.3789570   0.6924463   0.9291468  )
        71        O      tau(  71) = (   0.3610496   0.1419327   0.9291660  )
        72        O      tau(  72) = (   0.1179700   0.3356534   0.8894858  )
        73        O      tau(  73) = (   0.1524325   0.8608343   0.6290918  )
        74        O      tau(  74) = (   0.3994952   0.7128748   1.1905493  )
        75        O      tau(  75) = (   0.3426976   0.1634744   1.1889742  )
        76        O      tau(  76) = (   0.0989151   0.3155758   0.6321220  )
        77        O      tau(  77) = (   0.0942206   0.5581494   0.7569623  )
        78        O      tau(  78) = (   0.3506297   1.0014456   1.0645371  )
        79        O      tau(  79) = (   0.3750155   0.3983181   0.7655049  )
        80        O      tau(  80) = (   0.1228303   0.0764842   1.0543924  )
        81        O      tau(  81) = (   0.1204299   0.6293201   1.0530905  )
        82        O      tau(  82) = (   0.4000664   0.4708612   1.0626359  )
        83        O      tau(  83) = (   0.1483182   0.0216333   0.7546099  )
        84        O      tau(  84) = (   0.3748687   0.9435072   0.7627918  )
        85        P      tau(  85) = (   0.7056901   0.9492898   0.7521526  )
        86        P      tau(  86) = (   0.9575286   0.6220438   1.0623609  )
        87        P      tau(  87) = (   0.7847866   0.0710549   1.0641979  )
        88        P      tau(  88) = (   0.5377283   0.4083400   0.7551622  )
        89        O      tau(  89) = (   0.6295714   0.8788409   0.8879407  )
        90        O      tau(  90) = (   0.8781778   0.6902700   0.9288966  )
        91        O      tau(  91) = (   0.8603186   0.1398018   0.9279591  )
        92        O      tau(  92) = (   0.6174712   0.3389159   0.8881839  )
        93        O      tau(  93) = (   0.6471291   0.8583376   0.6285166  )
        94        O      tau(  94) = (   0.8962302   0.7094244   1.1861651  )
        95        O      tau(  95) = (   0.8420493   0.1616933   1.1885419  )
        96        O      tau(  96) = (   0.5995227   0.3203391   0.6315608  )
        97        O      tau(  97) = (   0.5932354   0.5636910   0.7569738  )
        98        O      tau(  98) = (   0.8487155   0.9994995   1.0634446  )
        99        O      tau(  99) = (   0.8751772   0.3959680   0.7655094  )
       100        O      tau( 100) = (   0.6223291   0.0767949   1.0539182  )
       101        O      tau( 101) = (   0.6209785   0.6292365   1.0537708  )
       102        O      tau( 102) = (   0.9010178   0.4674118   1.0608723  )
       103        O      tau( 103) = (   0.6430869   0.0213354   0.7538098  )
       104        O      tau( 104) = (   0.8684566   0.9446034   0.7630440  )
       105        Ni     tau( 105) = (   0.2392451   0.7980692   0.4424501  )
       106        Ni     tau( 106) = (   0.4865215   0.7353506   0.1202547  )
       107        Mn     tau( 107) = (   0.0057284   0.2540508   0.4480984  )
       108        Ni     tau( 108) = (   0.2530377   0.1890124   0.1223869  )
       109        Ni     tau( 109) = (   0.9964090   1.0327362   0.2805874  )
       110        Ni     tau( 110) = (   0.2462362   0.4960619   0.2818013  )
       111        Ni     tau( 111) = (   0.7345262   0.7970744   0.4415872  )
       112        Mn     tau( 112) = (   0.9831224   0.7322404   0.1149322  )
       113        Mn     tau( 113) = (   0.5057684   0.2566226   0.4482604  )
       114        Ni     tau( 114) = (   0.7505120   0.1885401   0.1218698  )
       115        Ni     tau( 115) = (   0.4953648   1.0333797   0.2818887  )
       116        Ni     tau( 116) = (   0.7441241   0.4958159   0.2807100  )
       117        P      tau( 117) = (   0.2092055   0.9308455   0.1258832  )
       118        P      tau( 118) = (   0.4551640   0.6063475   0.4376163  )
       119        P      tau( 119) = (   0.2827481   0.0535023   0.4375745  )
       120        P      tau( 120) = (   0.0353243   0.3843395   0.1286536  )
       121        O      tau( 121) = (   0.1325127   0.8629378   0.2618276  )
       122        O      tau( 122) = (   0.3761702   0.6735242   0.3016887  )
       123        O      tau( 123) = (   0.3582627   0.1230106   0.3017079  )
       124        O      tau( 124) = (   0.1151831   0.3167313   0.2620277  )
       125        O      tau( 125) = (   0.1496456   0.8419122   0.0016337  )
       126        O      tau( 126) = (   0.3967083   0.6939527   0.5630912  )
       127        O      tau( 127) = (   0.3399107   0.1445523   0.5615161  )
       128        O      tau( 128) = (   0.0961282   0.2966537   0.0046639  )
       129        O      tau( 129) = (   0.0914337   0.5392273   0.1295042  )
       130        O      tau( 130) = (   0.3478428   0.9825235   0.4370790  )
       131        O      tau( 131) = (   0.3722287   0.3793961   0.1380469  )
       132        O      tau( 132) = (   0.1200434   0.0575621   0.4269343  )
       133        O      tau( 133) = (   0.1176431   0.6103980   0.4256324  )
       134        O      tau( 134) = (   0.3972796   0.4519391   0.4351778  )
       135        O      tau( 135) = (   0.1455313   0.0027113   0.1271518  )
       136        O      tau( 136) = (   0.3720819   0.9245852   0.1353338  )
       137        P      tau( 137) = (   0.7029032   0.9303678   0.1246945  )
       138        P      tau( 138) = (   0.9547417   0.6031217   0.4349028  )
       139        P      tau( 139) = (   0.7819997   0.0521328   0.4367398  )
       140        P      tau( 140) = (   0.5349415   0.3894179   0.1277041  )
       141        O      tau( 141) = (   0.6267846   0.8599188   0.2604826  )
       142        O      tau( 142) = (   0.8753909   0.6713480   0.3014385  )
       143        O      tau( 143) = (   0.8575317   0.1208797   0.3005010  )
       144        O      tau( 144) = (   0.6146843   0.3199938   0.2607258  )
       145        O      tau( 145) = (   0.6443422   0.8394155   0.0010585  )
       146        O      tau( 146) = (   0.8934434   0.6905023   0.5587070  )
       147        O      tau( 147) = (   0.8392624   0.1427713   0.5610838  )
       148        O      tau( 148) = (   0.5967359   0.3014171   0.0041027  )
       149        O      tau( 149) = (   0.5904485   0.5447689   0.1295157  )
       150        O      tau( 150) = (   0.8459286   0.9805774   0.4359865  )
       151        O      tau( 151) = (   0.8723903   0.3770459   0.1380513  )
       152        O      tau( 152) = (   0.6195422   0.0578729   0.4264602  )
       153        O      tau( 153) = (   0.6181917   0.6103144   0.4263127  )
       154        O      tau( 154) = (   0.8982309   0.4484897   0.4334142  )
       155        O      tau( 155) = (   0.6403000   0.0024133   0.1263517  )
       156        O      tau( 156) = (   0.8656697   0.9256814   0.1355859  )
       157        O      tau( 157) = (   0.1071329   0.3592488   1.8457793  )
       158        H      tau( 158) = (   0.1964305   0.3041484   1.8614914  )

     -------------------------------------------------
     Parameters for Dispersion (Grimme-D2) Correction:
     -------------------------------------------------
       atom      VdW radius       C_6     

        Ni         2.952        374.666
        Mn         2.952        374.666
        P          3.222        271.980
        O          2.536         24.284
        H          1.892          4.857

     number of k points=     1  Gaussian smearing, width (Ry)=  0.0100
                       cart. coord. in units 2pi/alat
        k(    1) = (   0.0000000   0.0000000   0.0000000), wk =   1.0000000

     Dense  grid:  1979026 G-vectors     FFT dimensions: ( 128, 144, 450)

     Smooth grid:   500628 G-vectors     FFT dimensions: (  81,  90, 288)

     Estimated max dynamical RAM per process >     333.40 MB

     Estimated total dynamical RAM >      20.84 GB

     Check: negative core charge=   -0.000002
     Generating pointlists ...
     new r_m :   0.0874 (alat units)  1.5600 (a.u.) for type    1
     new r_m :   0.0771 (alat units)  1.3759 (a.u.) for type    2
     new r_m :   0.0663 (alat units)  1.1843 (a.u.) for type    3
     new r_m :   0.0438 (alat units)  0.7814 (a.u.) for type    4
     new r_m :   0.0438 (alat units)  0.7814 (a.u.) for type    5

     Initial potential from superposition of free atoms

     starting charge    1107.8886, renormalised to    1108.0000

     negative rho (up, down):  1.540E-03 4.666E-04
 
     Adding external electric field

     Computed dipole along edir(3) : 
        Dipole                1.6211 Ry au,          4.1204 Debye
        Dipole field          0.0010 Ry au, 
 
        Potential amp.       -0.1063 Ry
        Total length         54.7057 bohr
 
 
     Adding external electric field

     Computed dipole along edir(3) : 
        Dipole                1.6211 Ry au,          4.1204 Debye
        Dipole field          0.0010 Ry au, 
 
        Potential amp.       -0.1063 Ry
        Total length         54.7057 bohr
 
     Starting wfcs are  818 randomized atomic wfcs

     total cpu time spent up to now is       13.4 secs

     Self-consistent Calculation

     iteration #  1     ecut=    50.00 Ry     beta= 0.10
     Davidson diagonalization with overlap
     ethr =  1.00E-02,  avg # of iterations =  6.0

     negative rho (up, down):  4.393E-01 3.760E-07
 
     Adding external electric field

     Computed dipole along edir(3) : 
        Dipole               -3.6431 Ry au,         -9.2597 Debye
        Dipole field         -0.0022 Ry au, 
 
        Potential amp.        0.2389 Ry
        Total length         54.7057 bohr
 
 
     Adding external electric field

     Computed dipole along edir(3) : 
        Dipole               -3.6431 Ry au,         -9.2597 Debye
        Dipole field         -0.0022 Ry au, 
 
        Potential amp.        0.2389 Ry
        Total length         54.7057 bohr
 

     total cpu time spent up to now is       52.0 secs

     total energy              =   -7857.63749337 Ry
     estimated scf accuracy    <     716.75871907 Ry

     total magnetization       =   222.00 Bohr mag/cell
     absolute magnetization    =   319.94 Bohr mag/cell

     iteration #  2     ecut=    50.00 Ry     beta= 0.10
     Davidson diagonalization with overlap
     ethr =  1.00E-02,  avg # of iterations =  2.0

     negative rho (up, down):  4.111E-01 1.506E-07
 
     Adding external electric field

     Computed dipole along edir(3) : 
        Dipole               -2.4988 Ry au,         -6.3512 Debye
        Dipole field         -0.0015 Ry au, 
 
        Potential amp.        0.1639 Ry
        Total length         54.7057 bohr
 
 
     Adding external electric field

     Computed dipole along edir(3) : 
        Dipole               -2.4988 Ry au,         -6.3512 Debye
        Dipole field         -0.0015 Ry au, 
 
        Potential amp.        0.1639 Ry
        Total length         54.7057 bohr
 

     total cpu time spent up to now is       74.9 secs

     total energy              =   -7939.31677215 Ry
     estimated scf accuracy    <     195.29501500 Ry

     total magnetization       =   165.33 Bohr mag/cell
     absolute magnetization    =   213.25 Bohr mag/cell

     iteration #  3     ecut=    50.00 Ry     beta= 0.10
     Davidson diagonalization with overlap
     ethr =  1.00E-02,  avg # of iterations =  1.5

     negative rho (up, down):  3.646E-01 1.216E-07
 
     Adding external electric field

     Computed dipole along edir(3) : 
        Dipole               -2.1167 Ry au,         -5.3802 Debye
        Dipole field         -0.0013 Ry au, 
 
        Potential amp.        0.1388 Ry
        Total length         54.7057 bohr
 
 
     Adding external electric field

     Computed dipole along edir(3) : 
        Dipole               -2.1167 Ry au,         -5.3802 Debye
        Dipole field         -0.0013 Ry au, 
 
        Potential amp.        0.1388 Ry
        Total length         54.7057 bohr
 

     total cpu time spent up to now is       92.3 secs

     total energy              =   -7970.22370543 Ry
     estimated scf accuracy    <     104.32258470 Ry

     total magnetization       =   142.89 Bohr mag/cell
     absolute magnetization    =   192.72 Bohr mag/cell

     iteration #  4     ecut=    50.00 Ry     beta= 0.10
     Davidson diagonalization with overlap
     ethr =  9.42E-03,  avg # of iterations =  1.0

     negative rho (up, down):  2.936E-01 2.524E-08
 
     Adding external electric field

     Computed dipole along edir(3) : 
        Dipole               -2.0947 Ry au,         -5.3242 Debye
        Dipole field         -0.0013 Ry au, 
 
        Potential amp.        0.1374 Ry
        Total length         54.7057 bohr
 
 
     Adding external electric field

     Computed dipole along edir(3) : 
        Dipole               -2.0947 Ry au,         -5.3242 Debye
        Dipole field         -0.0013 Ry au, 
 
        Potential amp.        0.1374 Ry
        Total length         54.7057 bohr
 

     total cpu time spent up to now is      108.7 secs

     total energy              =   -7999.93464364 Ry
     estimated scf accuracy    <      83.81458632 Ry

     total magnetization       =   127.33 Bohr mag/cell
     absolute magnetization    =   178.67 Bohr mag/cell

     iteration #  5     ecut=    50.00 Ry     beta= 0.10
     Davidson diagonalization with overlap
     ethr =  7.56E-03,  avg # of iterations =  1.5

     negative rho (up, down):  5.177E-02 2.249E-08
 
     Adding external electric field

     Computed dipole along edir(3) : 
        Dipole               -1.7528 Ry au,         -4.4552 Debye
        Dipole field         -0.0011 Ry au, 
 
        Potential amp.        0.1150 Ry
        Total length         54.7057 bohr
 
 
     Adding external electric field

     Computed dipole along edir(3) : 
        Dipole               -1.7528 Ry au,         -4.4552 Debye
        Dipole field         -0.0011 Ry au, 
 
        Potential amp.        0.1150 Ry
        Total length         54.7057 bohr
 

     total cpu time spent up to now is      125.9 secs

     total energy              =   -8060.16434004 Ry
     estimated scf accuracy    <      69.18004346 Ry

     total magnetization       =   106.84 Bohr mag/cell
     absolute magnetization    =   161.39 Bohr mag/cell

     iteration #  6     ecut=    50.00 Ry     beta= 0.10
     Davidson diagonalization with overlap
     ethr =  6.24E-03,  avg # of iterations =  1.0

     negative rho (up, down):  5.449E-04 1.264E-03
 
     Adding external electric field

     Computed dipole along edir(3) : 
        Dipole               -1.3412 Ry au,         -3.4089 Debye
        Dipole field         -0.0008 Ry au, 
 
        Potential amp.        0.0880 Ry
        Total length         54.7057 bohr
 
 
     Adding external electric field

     Computed dipole along edir(3) : 
        Dipole               -1.3412 Ry au,         -3.4089 Debye
        Dipole field         -0.0008 Ry au, 
 
        Potential amp.        0.0880 Ry
        Total length         54.7057 bohr
 

     total cpu time spent up to now is      142.6 secs

     total energy              =   -8075.76306673 Ry
     estimated scf accuracy    <      18.14649903 Ry

     total magnetization       =   100.00 Bohr mag/cell
     absolute magnetization    =   135.04 Bohr mag/cell

     iteration #  7     ecut=    50.00 Ry     beta= 0.10
     Davidson diagonalization with overlap
     ethr =  1.64E-03,  avg # of iterations =  6.0

     negative rho (up, down):  5.166E-04 1.202E-03
 
     Adding external electric field

     Computed dipole along edir(3) : 
        Dipole               -1.3087 Ry au,         -3.3265 Debye
        Dipole field         -0.0008 Ry au, 
 
        Potential amp.        0.0858 Ry
        Total length         54.7057 bohr
 
 
     Adding external electric field

     Computed dipole along edir(3) : 
        Dipole               -1.3087 Ry au,         -3.3265 Debye
        Dipole field         -0.0008 Ry au, 
 
        Potential amp.        0.0858 Ry
        Total length         54.7057 bohr
 

     total cpu time spent up to now is      171.8 secs

     total energy              =   -8078.92609961 Ry
     estimated scf accuracy    <      41.92884453 Ry

     total magnetization       =    64.76 Bohr mag/cell
     absolute magnetization    =    83.49 Bohr mag/cell

     iteration #  8     ecut=    50.00 Ry     beta= 0.10
     Davidson diagonalization with overlap
     ethr =  1.64E-03,  avg # of iterations =  1.0

     negative rho (up, down):  5.131E-04 1.188E-03
 
     Adding external electric field

     Computed dipole along edir(3) : 
        Dipole               -1.3146 Ry au,         -3.3413 Debye
        Dipole field         -0.0008 Ry au, 
 
        Potential amp.        0.0862 Ry
        Total length         54.7057 bohr
 
 
     Adding external electric field

     Computed dipole along edir(3) : 
        Dipole               -1.3146 Ry au,         -3.3413 Debye
        Dipole field         -0.0008 Ry au, 
 
        Potential amp.        0.0862 Ry
        Total length         54.7057 bohr
 

     total cpu time spent up to now is      188.5 secs

     total energy              =   -8079.00751598 Ry
     estimated scf accuracy    <      38.53691571 Ry

     total magnetization       =    65.75 Bohr mag/cell
     absolute magnetization    =    83.86 Bohr mag/cell

     iteration #  9     ecut=    50.00 Ry     beta= 0.10
     Davidson diagonalization with overlap
     ethr =  1.64E-03,  avg # of iterations =  1.0

     negative rho (up, down):  5.254E-04 1.197E-03
 
     Adding external electric field

     Computed dipole along edir(3) : 
        Dipole               -1.2891 Ry au,         -3.2767 Debye
        Dipole field         -0.0008 Ry au, 
 
        Potential amp.        0.0846 Ry
        Total length         54.7057 bohr
 
 
     Adding external electric field

     Computed dipole along edir(3) : 
        Dipole               -1.2891 Ry au,         -3.2767 Debye
        Dipole field         -0.0008 Ry au, 
 
        Potential amp.        0.0846 Ry
        Total length         54.7057 bohr
 

     total cpu time spent up to now is      205.2 secs

     total energy              =   -8079.01701358 Ry
     estimated scf accuracy    <      38.63786357 Ry

     total magnetization       =    65.76 Bohr mag/cell
     absolute magnetization    =    83.53 Bohr mag/cell

     iteration # 10     ecut=    50.00 Ry     beta= 0.10
     Davidson diagonalization with overlap
     ethr =  1.64E-03,  avg # of iterations =  1.0

     negative rho (up, down):  7.320E-04 1.686E-03
 
     Adding external electric field

     Computed dipole along edir(3) : 
        Dipole               -1.5249 Ry au,         -3.8760 Debye
        Dipole field         -0.0009 Ry au, 
 
        Potential amp.        0.1000 Ry
        Total length         54.7057 bohr
 
 
     Adding external electric field

     Computed dipole along edir(3) : 
        Dipole               -1.5249 Ry au,         -3.8760 Debye
        Dipole field         -0.0009 Ry au, 
 
        Potential amp.        0.1000 Ry
        Total length         54.7057 bohr
 

     total cpu time spent up to now is      221.3 secs

     total energy              =   -8079.11213214 Ry
     estimated scf accuracy    <      38.18087741 Ry

     total magnetization       =    65.92 Bohr mag/cell
     absolute magnetization    =    83.43 Bohr mag/cell

     iteration # 11     ecut=    50.00 Ry     beta= 0.10
     Davidson diagonalization with overlap
     ethr =  1.64E-03,  avg # of iterations =  1.0

     negative rho (up, down):  2.077E-03 4.940E-03
 
     Adding external electric field

     Computed dipole along edir(3) : 
        Dipole               -0.9962 Ry au,         -2.5320 Debye
        Dipole field         -0.0006 Ry au, 
 
        Potential amp.        0.0653 Ry
        Total length         54.7057 bohr
 
 
     Adding external electric field

     Computed dipole along edir(3) : 
        Dipole               -0.9962 Ry au,         -2.5320 Debye
        Dipole field         -0.0006 Ry au, 
 
        Potential amp.        0.0653 Ry
        Total length         54.7057 bohr
 

     total cpu time spent up to now is      237.0 secs

     total energy              =   -8079.07603762 Ry
     estimated scf accuracy    <      40.80430399 Ry

     total magnetization       =    64.78 Bohr mag/cell
     absolute magnetization    =    81.81 Bohr mag/cell

     iteration # 12     ecut=    50.00 Ry     beta= 0.10
     Davidson diagonalization with overlap
     ethr =  1.64E-03,  avg # of iterations =  1.5

     negative rho (up, down):  1.656E-03 4.001E-03
 
     Adding external electric field

     Computed dipole along edir(3) : 
        Dipole               -1.0270 Ry au,         -2.6104 Debye
        Dipole field         -0.0006 Ry au, 
 
        Potential amp.        0.0674 Ry
        Total length         54.7057 bohr
 
 
     Adding external electric field

     Computed dipole along edir(3) : 
        Dipole               -1.0270 Ry au,         -2.6104 Debye
        Dipole field         -0.0006 Ry au, 
 
        Potential amp.        0.0674 Ry
        Total length         54.7057 bohr
 

     total cpu time spent up to now is      253.7 secs

     total energy              =   -8079.05043400 Ry
     estimated scf accuracy    <      39.54775128 Ry

     total magnetization       =    65.27 Bohr mag/cell
     absolute magnetization    =    82.86 Bohr mag/cell

     iteration # 13     ecut=    50.00 Ry     beta= 0.10
     Davidson diagonalization with overlap
     ethr =  1.64E-03,  avg # of iterations =  1.0

     negative rho (up, down):  1.498E-02 1.942E-02
 
     Adding external electric field

     Computed dipole along edir(3) : 
        Dipole               -0.8150 Ry au,         -2.0715 Debye
        Dipole field         -0.0005 Ry au, 
 
        Potential amp.        0.0535 Ry
        Total length         54.7057 bohr
 
 
     Adding external electric field

     Computed dipole along edir(3) : 
        Dipole               -0.8150 Ry au,         -2.0715 Debye
        Dipole field         -0.0005 Ry au, 
 
        Potential amp.        0.0535 Ry
        Total length         54.7057 bohr
 

     total cpu time spent up to now is      269.7 secs

     total energy              =   -8079.08582211 Ry
     estimated scf accuracy    <      38.14497091 Ry

     total magnetization       =    65.82 Bohr mag/cell
     absolute magnetization    =    83.27 Bohr mag/cell

     iteration # 14     ecut=    50.00 Ry     beta= 0.10
     Davidson diagonalization with overlap
     ethr =  1.64E-03,  avg # of iterations =  1.0

     negative rho (up, down):  1.026E-02 3.988E-03
 
     Adding external electric field

     Computed dipole along edir(3) : 
        Dipole               -1.6874 Ry au,         -4.2889 Debye
        Dipole field         -0.0010 Ry au, 
 
        Potential amp.        0.1107 Ry
        Total length         54.7057 bohr
 
 
     Adding external electric field

     Computed dipole along edir(3) : 
        Dipole               -1.6874 Ry au,         -4.2889 Debye
        Dipole field         -0.0010 Ry au, 
 
        Potential amp.        0.1107 Ry
        Total length         54.7057 bohr
 

     total cpu time spent up to now is      285.3 secs

     total energy              =   -8075.60433147 Ry
     estimated scf accuracy    <      46.65043692 Ry

     total magnetization       =    61.72 Bohr mag/cell
     absolute magnetization    =    79.65 Bohr mag/cell

     iteration # 15     ecut=    50.00 Ry     beta= 0.10
     Davidson diagonalization with overlap
     ethr =  1.64E-03,  avg # of iterations =  1.5

     negative rho (up, down):  1.140E-02 4.760E-03
 
     Adding external electric field

     Computed dipole along edir(3) : 
        Dipole               -1.8511 Ry au,         -4.7050 Debye
        Dipole field         -0.0011 Ry au, 
 
        Potential amp.        0.1214 Ry
        Total length         54.7057 bohr
 
 
     Adding external electric field

     Computed dipole along edir(3) : 
        Dipole               -1.8511 Ry au,         -4.7050 Debye
        Dipole field         -0.0011 Ry au, 
 
        Potential amp.        0.1214 Ry
        Total length         54.7057 bohr
 

     total cpu time spent up to now is      302.3 secs

     total energy              =   -8077.89859394 Ry
     estimated scf accuracy    <       3.66147902 Ry

     total magnetization       =    94.91 Bohr mag/cell
     absolute magnetization    =   107.65 Bohr mag/cell

     iteration # 16     ecut=    50.00 Ry     beta= 0.10
     Davidson diagonalization with overlap
     ethr =  3.30E-04,  avg # of iterations =  2.0

     negative rho (up, down):  5.771E-04 1.271E-04
 
     Adding external electric field

     Computed dipole along edir(3) : 
        Dipole               -1.1131 Ry au,         -2.8293 Debye
        Dipole field         -0.0007 Ry au, 
 
        Potential amp.        0.0730 Ry
        Total length         54.7057 bohr
 
 
     Adding external electric field

     Computed dipole along edir(3) : 
        Dipole               -1.1131 Ry au,         -2.8293 Debye
        Dipole field         -0.0007 Ry au, 
 
        Potential amp.        0.0730 Ry
        Total length         54.7057 bohr
 

     total cpu time spent up to now is      320.9 secs

     total energy              =   -8078.06408065 Ry
     estimated scf accuracy    <       2.44937773 Ry

     total magnetization       =    95.67 Bohr mag/cell
     absolute magnetization    =   107.36 Bohr mag/cell

     iteration # 17     ecut=    50.00 Ry     beta= 0.10
     Davidson diagonalization with overlap
     ethr =  2.21E-04,  avg # of iterations =  5.5

     negative rho (up, down):  2.131E-04 4.524E-05
 
     Adding external electric field

     Computed dipole along edir(3) : 
        Dipole               -1.3819 Ry au,         -3.5126 Debye
        Dipole field         -0.0008 Ry au, 
 
        Potential amp.        0.0906 Ry
        Total length         54.7057 bohr
 
 
     Adding external electric field

     Computed dipole along edir(3) : 
        Dipole               -1.3819 Ry au,         -3.5126 Debye
        Dipole field         -0.0008 Ry au, 
 
        Potential amp.        0.0906 Ry
        Total length         54.7057 bohr
 

     total cpu time spent up to now is      340.3 secs

     total energy              =   -8078.17179179 Ry
     estimated scf accuracy    <       1.92624023 Ry

     total magnetization       =    95.03 Bohr mag/cell
     absolute magnetization    =   105.00 Bohr mag/cell

     iteration # 18     ecut=    50.00 Ry     beta= 0.10
     Davidson diagonalization with overlap
     ethr =  1.74E-04,  avg # of iterations =  2.0

     negative rho (up, down):  2.426E-03 1.732E-03
 
     Adding external electric field

     Computed dipole along edir(3) : 
        Dipole               -1.0228 Ry au,         -2.5996 Debye
        Dipole field         -0.0006 Ry au, 
 
        Potential amp.        0.0671 Ry
        Total length         54.7057 bohr
 
 
     Adding external electric field

     Computed dipole along edir(3) : 
        Dipole               -1.0228 Ry au,         -2.5996 Debye
        Dipole field         -0.0006 Ry au, 
 
        Potential amp.        0.0671 Ry
        Total length         54.7057 bohr
 

     total cpu time spent up to now is      358.0 secs

     total energy              =   -8078.40929714 Ry
     estimated scf accuracy    <       0.98004840 Ry

     total magnetization       =    96.07 Bohr mag/cell
     absolute magnetization    =   104.75 Bohr mag/cell

     iteration # 19     ecut=    50.00 Ry     beta= 0.10
     Davidson diagonalization with overlap
     ethr =  8.85E-05,  avg # of iterations =  2.5

     negative rho (up, down):  1.867E-03 1.280E-03
 
     Adding external electric field

     Computed dipole along edir(3) : 
        Dipole               -0.9630 Ry au,         -2.4476 Debye
        Dipole field         -0.0006 Ry au, 
 
        Potential amp.        0.0632 Ry
        Total length         54.7057 bohr
 
 
     Adding external electric field

     Computed dipole along edir(3) : 
        Dipole               -0.9630 Ry au,         -2.4476 Debye
        Dipole field         -0.0006 Ry au, 
 
        Potential amp.        0.0632 Ry
        Total length         54.7057 bohr
 

     total cpu time spent up to now is      376.7 secs

     total energy              =   -8078.60626658 Ry
     estimated scf accuracy    <       6.05776906 Ry

     total magnetization       =    86.23 Bohr mag/cell
     absolute magnetization    =    92.02 Bohr mag/cell

     iteration # 20     ecut=    50.00 Ry     beta= 0.10
     Davidson diagonalization with overlap
     ethr =  8.85E-05,  avg # of iterations =  1.0

     negative rho (up, down):  1.215E-03 7.833E-04
 
     Adding external electric field

     Computed dipole along edir(3) : 
        Dipole               -0.9992 Ry au,         -2.5398 Debye
        Dipole field         -0.0006 Ry au, 
 
        Potential amp.        0.0655 Ry
        Total length         54.7057 bohr
 
 
     Adding external electric field

     Computed dipole along edir(3) : 
        Dipole               -0.9992 Ry au,         -2.5398 Debye
        Dipole field         -0.0006 Ry au, 
 
        Potential amp.        0.0655 Ry
        Total length         54.7057 bohr
 

     total cpu time spent up to now is      392.7 secs

     total energy              =   -8078.57228463 Ry
     estimated scf accuracy    <       6.64529502 Ry

     total magnetization       =    85.78 Bohr mag/cell
     absolute magnetization    =    91.54 Bohr mag/cell

     iteration # 21     ecut=    50.00 Ry     beta= 0.10
     Davidson diagonalization with overlap
     ethr =  8.85E-05,  avg # of iterations =  1.5

     negative rho (up, down):  9.955E-04 6.291E-04
 
     Adding external electric field

     Computed dipole along edir(3) : 
        Dipole               -1.1452 Ry au,         -2.9107 Debye
        Dipole field         -0.0007 Ry au, 
 
        Potential amp.        0.0751 Ry
        Total length         54.7057 bohr
 
 
     Adding external electric field

     Computed dipole along edir(3) : 
        Dipole               -1.1452 Ry au,         -2.9107 Debye
        Dipole field         -0.0007 Ry au, 
 
        Potential amp.        0.0751 Ry
        Total length         54.7057 bohr
 

     total cpu time spent up to now is      410.0 secs

     total energy              =   -8078.47572862 Ry
     estimated scf accuracy    <       4.72866953 Ry

     total magnetization       =    87.59 Bohr mag/cell
     absolute magnetization    =    92.79 Bohr mag/cell

     iteration # 22     ecut=    50.00 Ry     beta= 0.10
     Davidson diagonalization with overlap
     ethr =  8.85E-05,  avg # of iterations =  1.5

     negative rho (up, down):  2.511E-03 1.920E-03
 
     Adding external electric field

     Computed dipole along edir(3) : 
        Dipole               -1.1876 Ry au,         -3.0187 Debye
        Dipole field         -0.0007 Ry au, 
 
        Potential amp.        0.0779 Ry
        Total length         54.7057 bohr
 
 
     Adding external electric field

     Computed dipole along edir(3) : 
        Dipole               -1.1876 Ry au,         -3.0187 Debye
        Dipole field         -0.0007 Ry au, 
 
        Potential amp.        0.0779 Ry
        Total length         54.7057 bohr
 

     total cpu time spent up to now is      427.3 secs

     total energy              =   -8078.56073729 Ry
     estimated scf accuracy    <       0.40245824 Ry

     total magnetization       =    94.47 Bohr mag/cell
     absolute magnetization    =    98.31 Bohr mag/cell

     iteration # 23     ecut=    50.00 Ry     beta= 0.10
     Davidson diagonalization with overlap
     ethr =  3.63E-05,  avg # of iterations =  2.0

     negative rho (up, down):  2.536E-03 2.338E-03
 
     Adding external electric field

     Computed dipole along edir(3) : 
        Dipole               -1.1110 Ry au,         -2.8240 Debye
        Dipole field         -0.0007 Ry au, 
 
        Potential amp.        0.0729 Ry
        Total length         54.7057 bohr
 
 
     Adding external electric field

     Computed dipole along edir(3) : 
        Dipole               -1.1110 Ry au,         -2.8240 Debye
        Dipole field         -0.0007 Ry au, 
 
        Potential amp.        0.0729 Ry
        Total length         54.7057 bohr
 

     total cpu time spent up to now is      444.8 secs

     total energy              =   -8078.59374422 Ry
     estimated scf accuracy    <       0.18856758 Ry

     total magnetization       =    96.48 Bohr mag/cell
     absolute magnetization    =    99.32 Bohr mag/cell

     iteration # 24     ecut=    50.00 Ry     beta= 0.10
     Davidson diagonalization with overlap
     ethr =  1.70E-05,  avg # of iterations = 10.5

     negative rho (up, down):  2.315E-03 2.423E-03
 
     Adding external electric field

     Computed dipole along edir(3) : 
        Dipole               -1.0526 Ry au,         -2.6755 Debye
        Dipole field         -0.0006 Ry au, 
 
        Potential amp.        0.0690 Ry
        Total length         54.7057 bohr
 
 
     Adding external electric field

     Computed dipole along edir(3) : 
        Dipole               -1.0526 Ry au,         -2.6755 Debye
        Dipole field         -0.0006 Ry au, 
 
        Potential amp.        0.0690 Ry
        Total length         54.7057 bohr
 

     total cpu time spent up to now is      474.4 secs

     total energy              =   -8078.59849138 Ry
     estimated scf accuracy    <       0.12712918 Ry

     total magnetization       =    96.20 Bohr mag/cell
     absolute magnetization    =    98.24 Bohr mag/cell

     iteration # 25     ecut=    50.00 Ry     beta= 0.10
     Davidson diagonalization with overlap
     ethr =  1.15E-05,  avg # of iterations = 12.0

     negative rho (up, down):  1.285E-03 1.440E-03
 
     Adding external electric field

     Computed dipole along edir(3) : 
        Dipole               -0.9836 Ry au,         -2.5000 Debye
        Dipole field         -0.0006 Ry au, 
 
        Potential amp.        0.0645 Ry
        Total length         54.7057 bohr
 
 
     Adding external electric field

     Computed dipole along edir(3) : 
        Dipole               -0.9836 Ry au,         -2.5000 Debye
        Dipole field         -0.0006 Ry au, 
 
        Potential amp.        0.0645 Ry
        Total length         54.7057 bohr
 

     total cpu time spent up to now is      509.1 secs

     total energy              =   -8078.59937903 Ry
     estimated scf accuracy    <       0.09167157 Ry

     total magnetization       =    96.05 Bohr mag/cell
     absolute magnetization    =    97.75 Bohr mag/cell

     iteration # 26     ecut=    50.00 Ry     beta= 0.10
     Davidson diagonalization with overlap
     ethr =  8.27E-06,  avg # of iterations =  1.5

     negative rho (up, down):  1.621E-03 2.150E-03
 
     Adding external electric field

     Computed dipole along edir(3) : 
        Dipole               -0.8839 Ry au,         -2.2466 Debye
        Dipole field         -0.0005 Ry au, 
 
        Potential amp.        0.0580 Ry
        Total length         54.7057 bohr
 
 
     Adding external electric field

     Computed dipole along edir(3) : 
        Dipole               -0.8839 Ry au,         -2.2466 Debye
        Dipole field         -0.0005 Ry au, 
 
        Potential amp.        0.0580 Ry
        Total length         54.7057 bohr
 

     total cpu time spent up to now is      526.2 secs

     total energy              =   -8078.59515510 Ry
     estimated scf accuracy    <       0.08879398 Ry

     total magnetization       =    95.92 Bohr mag/cell
     absolute magnetization    =    97.56 Bohr mag/cell

     iteration # 27     ecut=    50.00 Ry     beta= 0.10
     Davidson diagonalization with overlap
     ethr =  8.01E-06,  avg # of iterations =  1.5

     negative rho (up, down):  2.742E-03 3.558E-03
 
     Adding external electric field

     Computed dipole along edir(3) : 
        Dipole               -0.9017 Ry au,         -2.2920 Debye
        Dipole field         -0.0005 Ry au, 
 
        Potential amp.        0.0591 Ry
        Total length         54.7057 bohr
 
 
     Adding external electric field

     Computed dipole along edir(3) : 
        Dipole               -0.9017 Ry au,         -2.2920 Debye
        Dipole field         -0.0005 Ry au, 
 
        Potential amp.        0.0591 Ry
        Total length         54.7057 bohr
 

     total cpu time spent up to now is      543.4 secs

     total energy              =   -8078.59605395 Ry
     estimated scf accuracy    <       0.16124773 Ry

     total magnetization       =    95.08 Bohr mag/cell
     absolute magnetization    =    96.63 Bohr mag/cell

     iteration # 28     ecut=    50.00 Ry     beta= 0.10
     Davidson diagonalization with overlap
     ethr =  8.01E-06,  avg # of iterations =  1.5

     negative rho (up, down):  4.623E-03 5.880E-03
 
     Adding external electric field

     Computed dipole along edir(3) : 
        Dipole               -0.9272 Ry au,         -2.3566 Debye
        Dipole field         -0.0006 Ry au, 
 
        Potential amp.        0.0608 Ry
        Total length         54.7057 bohr
 
 
     Adding external electric field

     Computed dipole along edir(3) : 
        Dipole               -0.9272 Ry au,         -2.3566 Debye
        Dipole field         -0.0006 Ry au, 
 
        Potential amp.        0.0608 Ry
        Total length         54.7057 bohr
 

     total cpu time spent up to now is      559.7 secs

     total energy              =   -8078.59265549 Ry
     estimated scf accuracy    <       0.15340512 Ry

     total magnetization       =    95.01 Bohr mag/cell
     absolute magnetization    =    96.54 Bohr mag/cell

     iteration # 29     ecut=    50.00 Ry     beta= 0.10
     Davidson diagonalization with overlap
     ethr =  8.01E-06,  avg # of iterations =  1.0

     negative rho (up, down):  4.518E-03 5.824E-03
 
     Adding external electric field

     Computed dipole along edir(3) : 
        Dipole               -0.9082 Ry au,         -2.3083 Debye
        Dipole field         -0.0005 Ry au, 
 
        Potential amp.        0.0596 Ry
        Total length         54.7057 bohr
 
 
     Adding external electric field

     Computed dipole along edir(3) : 
        Dipole               -0.9082 Ry au,         -2.3083 Debye
        Dipole field         -0.0005 Ry au, 
 
        Potential amp.        0.0596 Ry
        Total length         54.7057 bohr
 

     total cpu time spent up to now is      575.3 secs

     total energy              =   -8078.59242501 Ry
     estimated scf accuracy    <       0.09291238 Ry

     total magnetization       =    95.08 Bohr mag/cell
     absolute magnetization    =    96.65 Bohr mag/cell

     iteration # 30     ecut=    50.00 Ry     beta= 0.10
     Davidson diagonalization with overlap
     ethr =  8.01E-06,  avg # of iterations =  1.5

     negative rho (up, down):  3.653E-03 4.673E-03
 
     Adding external electric field

     Computed dipole along edir(3) : 
        Dipole               -0.9194 Ry au,         -2.3368 Debye
        Dipole field         -0.0006 Ry au, 
 
        Potential amp.        0.0603 Ry
        Total length         54.7057 bohr
 
 
     Adding external electric field

     Computed dipole along edir(3) : 
        Dipole               -0.9194 Ry au,         -2.3368 Debye
        Dipole field         -0.0006 Ry au, 
 
        Potential amp.        0.0603 Ry
        Total length         54.7057 bohr
 

     total cpu time spent up to now is      592.2 secs

     total energy              =   -8078.59386156 Ry
     estimated scf accuracy    <       0.09517525 Ry

     total magnetization       =    95.12 Bohr mag/cell
     absolute magnetization    =    96.69 Bohr mag/cell

     iteration # 31     ecut=    50.00 Ry     beta= 0.10
     Davidson diagonalization with overlap
     ethr =  8.01E-06,  avg # of iterations =  1.5

     negative rho (up, down):  4.230E-03 5.398E-03
 
     Adding external electric field

     Computed dipole along edir(3) : 
        Dipole               -0.9502 Ry au,         -2.4152 Debye
        Dipole field         -0.0006 Ry au, 
 
        Potential amp.        0.0623 Ry
        Total length         54.7057 bohr
 
 
     Adding external electric field

     Computed dipole along edir(3) : 
        Dipole               -0.9502 Ry au,         -2.4152 Debye
        Dipole field         -0.0006 Ry au, 
 
        Potential amp.        0.0623 Ry
        Total length         54.7057 bohr
 

     total cpu time spent up to now is      608.8 secs

     total energy              =   -8078.59434165 Ry
     estimated scf accuracy    <       0.07362638 Ry

     total magnetization       =    95.46 Bohr mag/cell
     absolute magnetization    =    97.02 Bohr mag/cell

     iteration # 32     ecut=    50.00 Ry     beta= 0.10
     Davidson diagonalization with overlap
     ethr =  6.64E-06,  avg # of iterations =  1.5

     negative rho (up, down):  2.089E-03 2.927E-03
 
     Adding external electric field

     Computed dipole along edir(3) : 
        Dipole               -0.7788 Ry au,         -1.9795 Debye
        Dipole field         -0.0005 Ry au, 
 
        Potential amp.        0.0511 Ry
        Total length         54.7057 bohr
 
 
     Adding external electric field

     Computed dipole along edir(3) : 
        Dipole               -0.7788 Ry au,         -1.9795 Debye
        Dipole field         -0.0005 Ry au, 
 
        Potential amp.        0.0511 Ry
        Total length         54.7057 bohr
 

     total cpu time spent up to now is      625.5 secs

     total energy              =   -8078.58925496 Ry
     estimated scf accuracy    <       0.08625198 Ry

     total magnetization       =    95.45 Bohr mag/cell
     absolute magnetization    =    96.91 Bohr mag/cell

     iteration # 33     ecut=    50.00 Ry     beta= 0.10
     Davidson diagonalization with overlap
     ethr =  6.64E-06,  avg # of iterations =  1.0

     negative rho (up, down):  1.015E-03 1.422E-03
 
     Adding external electric field

     Computed dipole along edir(3) : 
        Dipole               -0.8687 Ry au,         -2.2080 Debye
        Dipole field         -0.0005 Ry au, 
 
        Potential amp.        0.0570 Ry
        Total length         54.7057 bohr
 
 
     Adding external electric field

     Computed dipole along edir(3) : 
        Dipole               -0.8687 Ry au,         -2.2080 Debye
        Dipole field         -0.0005 Ry au, 
 
        Potential amp.        0.0570 Ry
        Total length         54.7057 bohr
 

     total cpu time spent up to now is      642.6 secs

     total energy              =   -8078.59649319 Ry
     estimated scf accuracy    <       0.13316552 Ry

     total magnetization       =    95.36 Bohr mag/cell
     absolute magnetization    =    97.03 Bohr mag/cell

     iteration # 34     ecut=    50.00 Ry     beta= 0.10
     Davidson diagonalization with overlap
     ethr =  6.64E-06,  avg # of iterations =  1.5

     negative rho (up, down):  5.314E-03 6.382E-03
 
     Adding external electric field

     Computed dipole along edir(3) : 
        Dipole               -0.9122 Ry au,         -2.3185 Debye
        Dipole field         -0.0005 Ry au, 
 
        Potential amp.        0.0598 Ry
        Total length         54.7057 bohr
 
 
     Adding external electric field

     Computed dipole along edir(3) : 
        Dipole               -0.9122 Ry au,         -2.3185 Debye
        Dipole field         -0.0005 Ry au, 
 
        Potential amp.        0.0598 Ry
        Total length         54.7057 bohr
 

     total cpu time spent up to now is      659.6 secs

     total energy              =   -8078.59093563 Ry
     estimated scf accuracy    <       0.15086678 Ry

     total magnetization       =    95.32 Bohr mag/cell
     absolute magnetization    =    96.97 Bohr mag/cell

     iteration # 35     ecut=    50.00 Ry     beta= 0.10
     Davidson diagonalization with overlap
     ethr =  6.64E-06,  avg # of iterations =  1.0

     negative rho (up, down):  1.334E-03 1.861E-03
 
     Adding external electric field

     Computed dipole along edir(3) : 
        Dipole               -0.8967 Ry au,         -2.2791 Debye
        Dipole field         -0.0005 Ry au, 
 
        Potential amp.        0.0588 Ry
        Total length         54.7057 bohr
 
 
     Adding external electric field

     Computed dipole along edir(3) : 
        Dipole               -0.8967 Ry au,         -2.2791 Debye
        Dipole field         -0.0005 Ry au, 
 
        Potential amp.        0.0588 Ry
        Total length         54.7057 bohr
 

     total cpu time spent up to now is      674.5 secs

     total energy              =   -8078.59492696 Ry
     estimated scf accuracy    <       0.06884586 Ry

     total magnetization       =    95.65 Bohr mag/cell
     absolute magnetization    =    97.41 Bohr mag/cell

     iteration # 36     ecut=    50.00 Ry     beta= 0.10
     Davidson diagonalization with overlap
     ethr =  6.21E-06,  avg # of iterations =  1.0

     negative rho (up, down):  1.858E-03 2.389E-03
 
     Adding external electric field

     Computed dipole along edir(3) : 
        Dipole               -0.8277 Ry au,         -2.1037 Debye
        Dipole field         -0.0005 Ry au, 
 
        Potential amp.        0.0543 Ry
        Total length         54.7057 bohr
 
 
     Adding external electric field

     Computed dipole along edir(3) : 
        Dipole               -0.8277 Ry au,         -2.1037 Debye
        Dipole field         -0.0005 Ry au, 
 
        Potential amp.        0.0543 Ry
        Total length         54.7057 bohr
 

     total cpu time spent up to now is      690.9 secs

     total energy              =   -8078.59296236 Ry
     estimated scf accuracy    <       0.07650731 Ry

     total magnetization       =    95.61 Bohr mag/cell
     absolute magnetization    =    97.23 Bohr mag/cell

     iteration # 37     ecut=    50.00 Ry     beta= 0.10
     Davidson diagonalization with overlap
     ethr =  6.21E-06,  avg # of iterations =  1.0

     negative rho (up, down):  4.607E-03 5.837E-03
 
     Adding external electric field

     Computed dipole along edir(3) : 
        Dipole               -0.8543 Ry au,         -2.1714 Debye
        Dipole field         -0.0005 Ry au, 
 
        Potential amp.        0.0560 Ry
        Total length         54.7057 bohr
 
 
     Adding external electric field

     Computed dipole along edir(3) : 
        Dipole               -0.8543 Ry au,         -2.1714 Debye
        Dipole field         -0.0005 Ry au, 
 
        Potential amp.        0.0560 Ry
        Total length         54.7057 bohr
 

     total cpu time spent up to now is      706.5 secs

     total energy              =   -8078.59073699 Ry
     estimated scf accuracy    <       0.08669925 Ry

     total magnetization       =    95.53 Bohr mag/cell
     absolute magnetization    =    97.27 Bohr mag/cell

     iteration # 38     ecut=    50.00 Ry     beta= 0.10
     Davidson diagonalization with overlap
     ethr =  6.21E-06,  avg # of iterations =  1.0

     negative rho (up, down):  2.395E-03 3.067E-03
 
     Adding external electric field

     Computed dipole along edir(3) : 
        Dipole               -0.8991 Ry au,         -2.2852 Debye
        Dipole field         -0.0005 Ry au, 
 
        Potential amp.        0.0590 Ry
        Total length         54.7057 bohr
 
 
     Adding external electric field

     Computed dipole along edir(3) : 
        Dipole               -0.8991 Ry au,         -2.2852 Debye
        Dipole field         -0.0005 Ry au, 
 
        Potential amp.        0.0590 Ry
        Total length         54.7057 bohr
 

     total cpu time spent up to now is      723.0 secs

     total energy              =   -8078.59277404 Ry
     estimated scf accuracy    <       0.06782418 Ry

     total magnetization       =    95.59 Bohr mag/cell
     absolute magnetization    =    97.27 Bohr mag/cell

     iteration # 39     ecut=    50.00 Ry     beta= 0.10
     Davidson diagonalization with overlap
     ethr =  6.12E-06,  avg # of iterations =  1.0

     negative rho (up, down):  2.539E-03 3.214E-03
 
     Adding external electric field

     Computed dipole along edir(3) : 
        Dipole               -0.9082 Ry au,         -2.3084 Debye
        Dipole field         -0.0005 Ry au, 
 
        Potential amp.        0.0596 Ry
        Total length         54.7057 bohr
 
 
     Adding external electric field

     Computed dipole along edir(3) : 
        Dipole               -0.9082 Ry au,         -2.3084 Debye
        Dipole field         -0.0005 Ry au, 
 
        Potential amp.        0.0596 Ry
        Total length         54.7057 bohr
 

     total cpu time spent up to now is      738.5 secs

     total energy              =   -8078.59315115 Ry
     estimated scf accuracy    <       0.06431408 Ry

     total magnetization       =    95.62 Bohr mag/cell
     absolute magnetization    =    97.33 Bohr mag/cell

     iteration # 40     ecut=    50.00 Ry     beta= 0.10
     Davidson diagonalization with overlap
     ethr =  5.80E-06,  avg # of iterations =  1.0

     negative rho (up, down):  2.529E-03 3.174E-03
 
     Adding external electric field

     Computed dipole along edir(3) : 
        Dipole               -0.9356 Ry au,         -2.3780 Debye
        Dipole field         -0.0006 Ry au, 
 
        Potential amp.        0.0614 Ry
        Total length         54.7057 bohr
 
 
     Adding external electric field

     Computed dipole along edir(3) : 
        Dipole               -0.9356 Ry au,         -2.3780 Debye
        Dipole field         -0.0006 Ry au, 
 
        Potential amp.        0.0614 Ry
        Total length         54.7057 bohr
 

     total cpu time spent up to now is      753.7 secs

     total energy              =   -8078.59413198 Ry
     estimated scf accuracy    <       0.06506347 Ry

     total magnetization       =    95.63 Bohr mag/cell
     absolute magnetization    =    97.34 Bohr mag/cell

     iteration # 41     ecut=    50.00 Ry     beta= 0.10
     Davidson diagonalization with overlap
     ethr =  5.80E-06,  avg # of iterations =  1.0

     negative rho (up, down):  2.282E-03 3.026E-03
 
     Adding external electric field

     Computed dipole along edir(3) : 
        Dipole               -0.8275 Ry au,         -2.1033 Debye
        Dipole field         -0.0005 Ry au, 
 
        Potential amp.        0.0543 Ry
        Total length         54.7057 bohr
 
 
     Adding external electric field

     Computed dipole along edir(3) : 
        Dipole               -0.8275 Ry au,         -2.1033 Debye
        Dipole field         -0.0005 Ry au, 
 
        Potential amp.        0.0543 Ry
        Total length         54.7057 bohr
 

     total cpu time spent up to now is      770.4 secs

     total energy              =   -8078.58867851 Ry
     estimated scf accuracy    <       0.06455671 Ry

     total magnetization       =    95.68 Bohr mag/cell
     absolute magnetization    =    97.38 Bohr mag/cell

     iteration # 42     ecut=    50.00 Ry     beta= 0.10
     Davidson diagonalization with overlap
     ethr =  5.80E-06,  avg # of iterations =  1.0

     negative rho (up, down):  2.679E-03 3.648E-03
 
     Adding external electric field

     Computed dipole along edir(3) : 
        Dipole               -0.7875 Ry au,         -2.0015 Debye
        Dipole field         -0.0005 Ry au, 
 
        Potential amp.        0.0516 Ry
        Total length         54.7057 bohr
 
 
     Adding external electric field

     Computed dipole along edir(3) : 
        Dipole               -0.7875 Ry au,         -2.0015 Debye
        Dipole field         -0.0005 Ry au, 
 
        Potential amp.        0.0516 Ry
        Total length         54.7057 bohr
 

     total cpu time spent up to now is      786.7 secs

     total energy              =   -8078.58915281 Ry
     estimated scf accuracy    <       0.07122173 Ry

     total magnetization       =    95.55 Bohr mag/cell
     absolute magnetization    =    97.36 Bohr mag/cell

     iteration # 43     ecut=    50.00 Ry     beta= 0.10
     Davidson diagonalization with overlap
     ethr =  5.80E-06,  avg # of iterations =  1.0

     negative rho (up, down):  2.942E-03 3.944E-03
 
     Adding external electric field

     Computed dipole along edir(3) : 
        Dipole               -0.8216 Ry au,         -2.0884 Debye
        Dipole field         -0.0005 Ry au, 
 
        Potential amp.        0.0539 Ry
        Total length         54.7057 bohr
 
 
     Adding external electric field

     Computed dipole along edir(3) : 
        Dipole               -0.8216 Ry au,         -2.0884 Debye
        Dipole field         -0.0005 Ry au, 
 
        Potential amp.        0.0539 Ry
        Total length         54.7057 bohr
 

     total cpu time spent up to now is      802.6 secs

     total energy              =   -8078.58941504 Ry
     estimated scf accuracy    <       0.07660797 Ry

     total magnetization       =    95.52 Bohr mag/cell
     absolute magnetization    =    97.23 Bohr mag/cell

     iteration # 44     ecut=    50.00 Ry     beta= 0.10
     Davidson diagonalization with overlap
     ethr =  5.80E-06,  avg # of iterations =  1.0

     negative rho (up, down):  2.381E-03 3.261E-03
 
     Adding external electric field

     Computed dipole along edir(3) : 
        Dipole               -0.7527 Ry au,         -1.9132 Debye
        Dipole field         -0.0005 Ry au, 
 
        Potential amp.        0.0494 Ry
        Total length         54.7057 bohr
 
 
     Adding external electric field

     Computed dipole along edir(3) : 
        Dipole               -0.7527 Ry au,         -1.9132 Debye
        Dipole field         -0.0005 Ry au, 
 
        Potential amp.        0.0494 Ry
        Total length         54.7057 bohr
 

     total cpu time spent up to now is      818.8 secs

     total energy              =   -8078.58940810 Ry
     estimated scf accuracy    <       0.06909845 Ry

     total magnetization       =    95.52 Bohr mag/cell
     absolute magnetization    =    97.21 Bohr mag/cell

     iteration # 45     ecut=    50.00 Ry     beta= 0.10
     Davidson diagonalization with overlap
     ethr =  5.80E-06,  avg # of iterations =  1.0

     negative rho (up, down):  2.053E-03 2.771E-03
 
     Adding external electric field

     Computed dipole along edir(3) : 
        Dipole               -0.7135 Ry au,         -1.8136 Debye
        Dipole field         -0.0004 Ry au, 
 
        Potential amp.        0.0468 Ry
        Total length         54.7057 bohr
 
 
     Adding external electric field

     Computed dipole along edir(3) : 
        Dipole               -0.7135 Ry au,         -1.8136 Debye
        Dipole field         -0.0004 Ry au, 
 
        Potential amp.        0.0468 Ry
        Total length         54.7057 bohr
 

     total cpu time spent up to now is      834.0 secs

     total energy              =   -8078.59151908 Ry
     estimated scf accuracy    <       0.07108049 Ry

     total magnetization       =    95.55 Bohr mag/cell
     absolute magnetization    =    97.23 Bohr mag/cell

     iteration # 46     ecut=    50.00 Ry     beta= 0.10
     Davidson diagonalization with overlap
     ethr =  5.80E-06,  avg # of iterations =  1.0

     negative rho (up, down):  2.920E-03 3.724E-03
 
     Adding external electric field

     Computed dipole along edir(3) : 
        Dipole               -0.7571 Ry au,         -1.9244 Debye
        Dipole field         -0.0005 Ry au, 
 
        Potential amp.        0.0497 Ry
        Total length         54.7057 bohr
 
 
     Adding external electric field

     Computed dipole along edir(3) : 
        Dipole               -0.7571 Ry au,         -1.9244 Debye
        Dipole field         -0.0005 Ry au, 
 
        Potential amp.        0.0497 Ry
        Total length         54.7057 bohr
 

     total cpu time spent up to now is      849.5 secs

     total energy              =   -8078.59078557 Ry
     estimated scf accuracy    <       0.06798906 Ry

     total magnetization       =    95.59 Bohr mag/cell
     absolute magnetization    =    97.23 Bohr mag/cell

     iteration # 47     ecut=    50.00 Ry     beta= 0.10
     Davidson diagonalization with overlap
     ethr =  5.80E-06,  avg # of iterations =  1.0

     negative rho (up, down):  3.186E-04 4.705E-04
 
     Adding external electric field

     Computed dipole along edir(3) : 
        Dipole               -0.7864 Ry au,         -1.9989 Debye
        Dipole field         -0.0005 Ry au, 
 
        Potential amp.        0.0516 Ry
        Total length         54.7057 bohr
 
 
     Adding external electric field

     Computed dipole along edir(3) : 
        Dipole               -0.7864 Ry au,         -1.9989 Debye
        Dipole field         -0.0005 Ry au, 
 
        Potential amp.        0.0516 Ry
        Total length         54.7057 bohr
 

     total cpu time spent up to now is      864.5 secs

     total energy              =   -8078.59554822 Ry
     estimated scf accuracy    <       0.06739917 Ry

     total magnetization       =    95.63 Bohr mag/cell
     absolute magnetization    =    97.34 Bohr mag/cell

     iteration # 48     ecut=    50.00 Ry     beta= 0.10
     Davidson diagonalization with overlap
     ethr =  5.80E-06,  avg # of iterations =  1.5

     negative rho (up, down):  3.125E-03 4.158E-03
 
     Adding external electric field

     Computed dipole along edir(3) : 
        Dipole               -0.7679 Ry au,         -1.9517 Debye
        Dipole field         -0.0005 Ry au, 
 
        Potential amp.        0.0504 Ry
        Total length         54.7057 bohr
 
 
     Adding external electric field

     Computed dipole along edir(3) : 
        Dipole               -0.7679 Ry au,         -1.9517 Debye
        Dipole field         -0.0005 Ry au, 
 
        Potential amp.        0.0504 Ry
        Total length         54.7057 bohr
 

     total cpu time spent up to now is      881.4 secs

     total energy              =   -8078.59179663 Ry
     estimated scf accuracy    <       0.06710838 Ry

     total magnetization       =    95.63 Bohr mag/cell
     absolute magnetization    =    97.26 Bohr mag/cell

     iteration # 49     ecut=    50.00 Ry     beta= 0.10
     Davidson diagonalization with overlap
     ethr =  5.80E-06,  avg # of iterations =  1.0

     negative rho (up, down):  3.678E-03 4.710E-03
 
     Adding external electric field

     Computed dipole along edir(3) : 
        Dipole               -0.8281 Ry au,         -2.1047 Debye
        Dipole field         -0.0005 Ry au, 
 
        Potential amp.        0.0543 Ry
        Total length         54.7057 bohr
 
 
     Adding external electric field

     Computed dipole along edir(3) : 
        Dipole               -0.8281 Ry au,         -2.1047 Debye
        Dipole field         -0.0005 Ry au, 
 
        Potential amp.        0.0543 Ry
        Total length         54.7057 bohr
 

     total cpu time spent up to now is      897.9 secs

     total energy              =   -8078.59337144 Ry
     estimated scf accuracy    <       0.06169521 Ry

     total magnetization       =    95.57 Bohr mag/cell
     absolute magnetization    =    97.09 Bohr mag/cell

     iteration # 50     ecut=    50.00 Ry     beta= 0.10
     Davidson diagonalization with overlap
     ethr =  5.57E-06,  avg # of iterations =  1.0

     negative rho (up, down):  3.635E-03 4.712E-03
 
     Adding external electric field

     Computed dipole along edir(3) : 
        Dipole               -0.8342 Ry au,         -2.1203 Debye
        Dipole field         -0.0005 Ry au, 
 
        Potential amp.        0.0547 Ry
        Total length         54.7057 bohr
 
 
     Adding external electric field

     Computed dipole along edir(3) : 
        Dipole               -0.8342 Ry au,         -2.1203 Debye
        Dipole field         -0.0005 Ry au, 
 
        Potential amp.        0.0547 Ry
        Total length         54.7057 bohr
 

     total cpu time spent up to now is      914.9 secs

     total energy              =   -8078.59317720 Ry
     estimated scf accuracy    <       0.05928310 Ry

     total magnetization       =    95.64 Bohr mag/cell
     absolute magnetization    =    97.12 Bohr mag/cell

     iteration # 51     ecut=    50.00 Ry     beta= 0.10
     Davidson diagonalization with overlap
     ethr =  5.35E-06,  avg # of iterations =  1.0

     negative rho (up, down):  3.346E-03 4.333E-03
 
     Adding external electric field

     Computed dipole along edir(3) : 
        Dipole               -0.8194 Ry au,         -2.0826 Debye
        Dipole field         -0.0005 Ry au, 
 
        Potential amp.        0.0537 Ry
        Total length         54.7057 bohr
 
 
     Adding external electric field

     Computed dipole along edir(3) : 
        Dipole               -0.8194 Ry au,         -2.0826 Debye
        Dipole field         -0.0005 Ry au, 
 
        Potential amp.        0.0537 Ry
        Total length         54.7057 bohr
 

     total cpu time spent up to now is      930.4 secs

     total energy              =   -8078.59377041 Ry
     estimated scf accuracy    <       0.05665941 Ry

     total magnetization       =    95.60 Bohr mag/cell
     absolute magnetization    =    97.08 Bohr mag/cell

     iteration # 52     ecut=    50.00 Ry     beta= 0.10
     Davidson diagonalization with overlap
     ethr =  5.11E-06,  avg # of iterations =  2.0

     negative rho (up, down):  8.456E-03 9.721E-03
 
     Adding external electric field

     Computed dipole along edir(3) : 
        Dipole               -0.7769 Ry au,         -1.9746 Debye
        Dipole field         -0.0005 Ry au, 
 
        Potential amp.        0.0510 Ry
        Total length         54.7057 bohr
 
 
     Adding external electric field

     Computed dipole along edir(3) : 
        Dipole               -0.7769 Ry au,         -1.9746 Debye
        Dipole field         -0.0005 Ry au, 
 
        Potential amp.        0.0510 Ry
        Total length         54.7057 bohr
 

     total cpu time spent up to now is      947.5 secs

     total energy              =   -8078.59450643 Ry
     estimated scf accuracy    <       0.04971653 Ry

     total magnetization       =    95.64 Bohr mag/cell
     absolute magnetization    =    97.09 Bohr mag/cell

     iteration # 53     ecut=    50.00 Ry     beta= 0.10
     Davidson diagonalization with overlap
     ethr =  4.49E-06,  avg # of iterations =  2.0

     negative rho (up, down):  1.159E-02 1.292E-02
 
     Adding external electric field

     Computed dipole along edir(3) : 
        Dipole               -0.7316 Ry au,         -1.8596 Debye
        Dipole field         -0.0004 Ry au, 
 
        Potential amp.        0.0480 Ry
        Total length         54.7057 bohr
 
 
     Adding external electric field

     Computed dipole along edir(3) : 
        Dipole               -0.7316 Ry au,         -1.8596 Debye
        Dipole field         -0.0004 Ry au, 
 
        Potential amp.        0.0480 Ry
        Total length         54.7057 bohr
 

     total cpu time spent up to now is      967.0 secs

     total energy              =   -8078.59528339 Ry
     estimated scf accuracy    <       0.04406565 Ry

     total magnetization       =    95.80 Bohr mag/cell
     absolute magnetization    =    97.13 Bohr mag/cell

     iteration # 54     ecut=    50.00 Ry     beta= 0.10
     Davidson diagonalization with overlap
     ethr =  3.98E-06,  avg # of iterations =  1.5

     negative rho (up, down):  1.637E-02 1.714E-02
 
     Adding external electric field

     Computed dipole along edir(3) : 
        Dipole               -0.5316 Ry au,         -1.3513 Debye
        Dipole field         -0.0003 Ry au, 
 
        Potential amp.        0.0349 Ry
        Total length         54.7057 bohr
 
 
     Adding external electric field

     Computed dipole along edir(3) : 
        Dipole               -0.5316 Ry au,         -1.3513 Debye
        Dipole field         -0.0003 Ry au, 
 
        Potential amp.        0.0349 Ry
        Total length         54.7057 bohr
 

     total cpu time spent up to now is      983.0 secs

     total energy              =   -8078.59593772 Ry
     estimated scf accuracy    <       0.04308014 Ry

     total magnetization       =    95.82 Bohr mag/cell
     absolute magnetization    =    97.11 Bohr mag/cell

     iteration # 55     ecut=    50.00 Ry     beta= 0.10
     Davidson diagonalization with overlap
     c_bands:  1 eigenvalues not converged
     ethr =  3.89E-06,  avg # of iterations = 12.0

     negative rho (up, down):  1.882E-02 1.916E-02
 
     Adding external electric field

     Computed dipole along edir(3) : 
        Dipole               -0.4094 Ry au,         -1.0407 Debye
        Dipole field         -0.0002 Ry au, 
 
        Potential amp.        0.0269 Ry
        Total length         54.7057 bohr
 
 
     Adding external electric field

     Computed dipole along edir(3) : 
        Dipole               -0.4094 Ry au,         -1.0407 Debye
        Dipole field         -0.0002 Ry au, 
 
        Potential amp.        0.0269 Ry
        Total length         54.7057 bohr
 

     total cpu time spent up to now is     1009.4 secs

     total energy              =   -8078.59546878 Ry
     estimated scf accuracy    <       0.03734698 Ry

     total magnetization       =    95.89 Bohr mag/cell
     absolute magnetization    =    97.13 Bohr mag/cell

     iteration # 56     ecut=    50.00 Ry     beta= 0.10
     Davidson diagonalization with overlap
     ethr =  3.37E-06,  avg # of iterations =  2.0

     negative rho (up, down):  1.790E-02 1.795E-02
 
     Adding external electric field

     Computed dipole along edir(3) : 
        Dipole               -0.1420 Ry au,         -0.3610 Debye
        Dipole field         -0.0001 Ry au, 
 
        Potential amp.        0.0093 Ry
        Total length         54.7057 bohr
 
 
     Adding external electric field

     Computed dipole along edir(3) : 
        Dipole               -0.1420 Ry au,         -0.3610 Debye
        Dipole field         -0.0001 Ry au, 
 
        Potential amp.        0.0093 Ry
        Total length         54.7057 bohr
 

     total cpu time spent up to now is     1027.5 secs

     total energy              =   -8078.59371729 Ry
     estimated scf accuracy    <       0.03047918 Ry

     total magnetization       =    95.90 Bohr mag/cell
     absolute magnetization    =    97.16 Bohr mag/cell

     iteration # 57     ecut=    50.00 Ry     beta= 0.10
     Davidson diagonalization with overlap
     c_bands:  2 eigenvalues not converged
     ethr =  2.75E-06,  avg # of iterations = 11.5

     negative rho (up, down):  1.743E-02 1.822E-02
 
     Adding external electric field

     Computed dipole along edir(3) : 
        Dipole                0.0059 Ry au,          0.0151 Debye
        Dipole field          0.0000 Ry au, 
 
        Potential amp.       -0.0004 Ry
        Total length         54.7057 bohr
 
 
     Adding external electric field

     Computed dipole along edir(3) : 
        Dipole                0.0059 Ry au,          0.0151 Debye
        Dipole field          0.0000 Ry au, 
 
        Potential amp.       -0.0004 Ry
        Total length         54.7057 bohr
 

     total cpu time spent up to now is     1057.0 secs

     total energy              =   -8078.59270513 Ry
     estimated scf accuracy    <       0.01910537 Ry

     total magnetization       =    95.89 Bohr mag/cell
     absolute magnetization    =    97.14 Bohr mag/cell

     iteration # 58     ecut=    50.00 Ry     beta= 0.10
     Davidson diagonalization with overlap
     c_bands:  4 eigenvalues not converged
     ethr =  1.72E-06,  avg # of iterations = 11.0

     negative rho (up, down):  1.954E-02 2.050E-02
 
     Adding external electric field

     Computed dipole along edir(3) : 
        Dipole                0.0717 Ry au,          0.1822 Debye
        Dipole field          0.0000 Ry au, 
 
[...]
    -6.0198  -6.0106  -5.9940  -5.9573  -5.9232  -5.9165  -5.9080  -5.8821
    -5.8704  -5.8521  -5.8271  -5.7998  -5.7903  -5.7569  -5.7504  -5.7480
    -5.7102  -5.7024  -5.6665  -5.6449  -5.6213  -5.6057  -5.5963  -5.5742
    -5.5621  -5.5509  -5.5347  -5.5069  -5.5033  -5.4907  -5.4566  -5.4191
    -5.4076  -5.3851  -5.3385  -5.3153  -5.2726  -5.2341  -5.2095  -5.2071
    -5.2038  -5.1958  -5.1394  -5.0923  -5.0316  -4.9970  -4.9846  -4.9556
    -4.9495  -4.9135  -4.8849  -4.8319  -4.8103  -4.7662  -4.7507  -4.7439
    -4.7197  -4.6843  -4.6361  -4.6110  -4.5985  -4.5371  -4.4870  -4.4386
    -4.4291  -4.4072  -4.3868  -4.3621  -4.3329  -4.2880  -4.2680  -4.2191
    -4.1683  -4.1462  -4.1261  -4.0996  -4.0847  -4.0650  -4.0332  -3.9949
    -3.9208  -3.9050  -3.8780  -3.8644  -3.8353  -3.8014  -3.7808  -3.7745
    -3.7484  -3.7405  -3.7120  -3.6495  -3.6384  -3.6220  -3.6182  -3.6099
    -3.6012  -3.5748  -3.5456  -3.5385  -3.5304  -3.5153  -3.5130  -3.4724
    -3.4492  -3.4380  -3.4327  -3.4243  -3.3647  -3.3591  -3.3458  -3.3393
    -3.3244  -3.3208  -3.2961  -3.2828  -3.2537  -3.2298  -3.2223  -3.2178
    -3.1582  -3.1475  -3.1054  -3.0761  -3.0611  -3.0484  -3.0366  -3.0184
    -3.0134  -3.0007  -2.9584  -2.9361  -2.9210  -2.8917  -2.8812  -2.8429
    -2.8401  -2.8359  -2.7547  -2.7506  -2.7289  -2.7234  -2.7114  -2.6992
    -2.6898  -2.6722  -2.6612  -2.6533  -2.6398  -2.6288  -2.6281  -2.6107
    -2.5909  -2.5858  -2.5744  -2.5535  -2.5324  -2.5292  -2.5196  -2.5087
    -2.4694  -2.4568  -2.4285  -2.4238  -2.3840  -2.3737  -2.3531  -2.3520
    -2.3226  -2.3116  -2.3096  -2.2891  -2.2631  -2.2483  -2.2437  -2.2179
    -2.2064  -2.1635  -2.1504  -2.1384  -2.1264  -2.0986  -2.0854  -2.0763
    -2.0646  -2.0234  -2.0071  -1.9917  -1.9691  -1.9586  -1.9426  -1.9158
    -1.9007  -1.8960  -1.8846  -1.8654  -1.8627  -1.8298  -1.8219  -1.7899
    -1.7824  -1.7641  -1.7513  -1.7260  -1.7112  -1.6902  -1.6709  -1.6349
    -1.6265  -1.6037  -1.5982  -1.5602  -1.5348  -1.5316  -1.5051  -1.4844
    -1.4552  -1.4539  -1.4334  -1.4182  -1.3987  -1.3852  -1.3714  -1.3497
    -1.3334  -1.3244  -1.2919  -1.2704  -1.2637  -1.2087  -1.1830  -1.1696
    -1.1510  -1.1267  -1.1091  -1.0357  -0.9759  -0.8544  -0.8436  -0.8099
    -0.8033  -0.7046  -0.6715  -0.5459  -0.5202  -0.3717  -0.3099  -0.2088
     0.1465   0.1583   0.2023   0.2187   0.2294   0.2431   0.2628   0.2757
     0.2986   0.3070   0.3272   0.3460   0.3559   0.3641   0.3691   0.3758
     0.3795   0.3829   0.3867   0.4052   0.4061   0.4192   0.4235   0.4302
     0.4376   0.4412   0.4519   0.4600   0.4735   0.4770   0.4797   0.4934
     0.4982   0.5146   0.5168   0.5408   0.5475   0.5509   0.5545   0.5656
     0.5709   0.5814   0.5985   0.6056   0.6170   0.6172   0.6237   0.6290
     0.6455   0.6600   0.6625   0.6740   0.6809   0.6946   0.6962   0.7055
     0.7218   0.7293   0.7390   0.7555   0.7582   0.7695   0.7751   0.7862
     0.7921   0.7988   0.8100   0.8304   0.8416   0.8459   0.8527   0.8763
     0.9095   0.9576   0.9611   0.9726   1.0022   1.0391   1.0693   1.1354
     1.1855   1.7348   1.7399   1.7534   1.7705   1.7815   1.7854   1.8050
     1.8265   1.8625   1.8677   1.8884   1.9147   1.9384   1.9550   1.9884
     2.0223   2.0419   2.0504   2.0656   2.0717   2.0906   2.1082   2.1254
     2.1427   2.1567   2.1705   2.1993   2.2260   2.2366   2.2548   2.2736
     2.2909   2.3036   2.3044   2.3095   2.3187   2.3344   2.3461   2.3497
     2.3864   2.4191   2.4266   2.4676   2.4966   2.5024   2.5256   2.5724
     2.6097   2.6136   2.7242   2.7294   2.8043   2.8284   2.8608   3.2756
     3.4784   3.6864   3.6907   3.7214   3.7565   3.7806   3.8880   3.9159
     3.9310   3.9550   3.9639   3.9786   3.9829   4.0270   4.0380   4.0489
     4.0582   4.0763   4.1184   4.1339   4.1468   4.1862   4.1943   4.2141
     4.2183   4.2369   4.2450   4.2892   4.3520   4.4073   4.5635   4.7468
     4.7921   4.8439   4.8501   4.9046   4.9466   4.9926   5.0062   5.0382
     5.0874   5.0927   5.1287   5.1557   5.1926   5.2050   5.3342   6.1670
     6.3066   6.4093   6.4972   6.6490   6.6630   6.6837   6.7903   6.8294
     6.8713   6.9609   6.9678   6.9945   7.1800   7.2392   7.2947   7.3323
     7.3679   7.4567   7.4750   7.5135   7.5236   7.6176   7.6376   7.7170
     7.7757   7.8366   7.8579   7.8950   7.9168   7.9415   7.9821   8.0038
     8.0373   8.0581   8.0939   8.1237   8.1457   8.2036   8.2183   8.2619
     8.2722   8.3000   8.3199   8.3493   8.3669   8.3895   8.4033   8.4213
     8.4317   8.4678   8.5085   8.5273   8.5305   8.5604   8.5780   8.5997
     8.6168

     the Fermi energy is     1.6606 ev

!    total energy              =   -8078.59617830 Ry
     estimated scf accuracy    <       0.00000075 Ry
     smearing contrib. (-TS)   =      -0.02309238 Ry
     internal energy E=F+TS    =   -8078.57308592 Ry

     The total energy is F=E-TS. E is the sum of the following terms:
     one-electron contribution =  -94634.89065624 Ry
     hartree contribution      =   47900.71472752 Ry
     xc contribution           =   -2177.32325295 Ry
     ewald contribution        =   40834.69467724 Ry
     Dispersion Correction     =      -1.76860217 Ry
     electric field correction =       0.00002068 Ry

     total magnetization       =    95.84 Bohr mag/cell
     absolute magnetization    =    97.19 Bohr mag/cell

     convergence has been achieved in  76 iterations

     negative rho (up, down):  1.160E-03 6.320E-04

     Forces acting on atoms (cartesian axes, Ry/au):

     atom    1 type  1   force =     0.00011059    0.00046522    0.00035238
     atom    2 type  1   force =     0.00013497   -0.00010002    0.00025124
     atom    3 type  2   force =     0.00039491   -0.00034630    0.00020383
     atom    4 type  1   force =    -0.00026890    0.00016750    0.00047989
     atom    5 type  1   force =     0.00002724    0.00054654   -0.00001825
     atom    6 type  1   force =     0.00021366    0.00011557    0.00021496
     atom    7 type  1   force =    -0.00010885   -0.00032146    0.00047072
     atom    8 type  2   force =    -0.00003657   -0.00024164    0.00004786
     atom    9 type  2   force =    -0.00023224    0.00007787   -0.00014819
     atom   10 type  1   force =    -0.00020070    0.00031669    0.00006673
     atom   11 type  1   force =    -0.00018350    0.00005969    0.00014973
     atom   12 type  1   force =     0.00000325    0.00030897    0.00045304
     atom   13 type  3   force =     0.00012842   -0.00010476   -0.00013165
     atom   14 type  3   force =    -0.00037048   -0.00016049   -0.00005010
     atom   15 type  3   force =    -0.00001744   -0.00084243   -0.00045205
     atom   16 type  3   force =     0.00002787   -0.00011348   -0.00022273
     atom   17 type  4   force =     0.00016756   -0.00035598   -0.00016935
     atom   18 type  4   force =    -0.00028756   -0.00069857    0.00007340
     atom   19 type  4   force =    -0.00043368   -0.00031874    0.00028557
     atom   20 type  4   force =    -0.00049369    0.00000681    0.00001168
     atom   21 type  4   force =     0.00013000   -0.00015837   -0.00010015
     atom   22 type  4   force =    -0.00001371   -0.00002798    0.00012740
     atom   23 type  4   force =    -0.00056725    0.00035761    0.00038759
     atom   24 type  4   force =    -0.00004830   -0.00009835   -0.00017142
     atom   25 type  4   force =    -0.00018451   -0.00004991    0.00000238
     atom   26 type  4   force =    -0.00017229   -0.00025156   -0.00015783
     atom   27 type  4   force =    -0.00017527    0.00022243    0.00041445
     atom   28 type  4   force =     0.00072021   -0.00028417   -0.00009299
     atom   29 type  4   force =    -0.00061250   -0.00039223    0.00044977
     atom   30 type  4   force =     0.00033640   -0.00014847   -0.00022665
     atom   31 type  4   force =    -0.00041532    0.00028593   -0.00029611
     atom   32 type  4   force =    -0.00022450   -0.00012163   -0.00003522
     atom   33 type  3   force =    -0.00046136   -0.00003647   -0.00012878
     atom   34 type  3   force =    -0.00042346    0.00025079   -0.00015892
     atom   35 type  3   force =     0.00043415    0.00049249   -0.00010369
     atom   36 type  3   force =    -0.00009417    0.00000031    0.00010887
     atom   37 type  4   force =     0.00008296   -0.00036763   -0.00008342
     atom   38 type  4   force =    -0.00017626   -0.00039086   -0.00026526
     atom   39 type  4   force =     0.00001812   -0.00047700   -0.00057341
     atom   40 type  4   force =    -0.00030480   -0.00028706   -0.00003170
     atom   41 type  4   force =    -0.00027226   -0.00002641    0.00019032
     atom   42 type  4   force =     0.00007228   -0.00025710    0.00004877
     atom   43 type  4   force =    -0.00019377    0.00011168   -0.00018358
     atom   44 type  4   force =    -0.00013865   -0.00004260    0.00008718
     atom   45 type  4   force =    -0.00003097    0.00009353    0.00018276
     atom   46 type  4   force =     0.00012123    0.00023979   -0.00050526
     atom   47 type  4   force =    -0.00025824   -0.00005376    0.00054517
     atom   48 type  4   force =     0.00051796    0.00004900   -0.00011825
     atom   49 type  4   force =    -0.00052775   -0.00057261    0.00032856
     atom   50 type  4   force =     0.00017949    0.00029542   -0.00043823
     atom   51 type  4   force =    -0.00032731    0.00014630   -0.00029202
     atom   52 type  4   force =     0.00013520   -0.00024934    0.00013472
     atom   53 type  1   force =     0.00088522    0.00036420    0.00000283
     atom   54 type  1   force =     0.00090091    0.00083317   -0.00195049
     atom   55 type  2   force =     0.00091360    0.00085547    0.00562192
     atom   56 type  1   force =    -0.00065344   -0.00113129   -0.00114645
     atom   57 type  1   force =     0.00010602    0.00008747    0.00010170
     atom   58 type  1   force =    -0.00005011   -0.00000944    0.00002811
     atom   59 type  1   force =     0.00145074    0.00131631    0.00058060
     atom   60 type  2   force =    -0.00001914    0.00026791   -0.00201174
     atom   61 type  2   force =     0.00118962    0.00091121    0.00505192
     atom   62 type  1   force =    -0.00044446   -0.00093042   -0.00130189
     atom   63 type  1   force =    -0.00006023    0.00021286   -0.00025018
     atom   64 type  1   force =     0.00025638   -0.00003561    0.00024850
     atom   65 type  3   force =    -0.00022835   -0.00080631   -0.00248175
     atom   66 type  3   force =     0.00047217   -0.00093282    0.00173817
     atom   67 type  3   force =     0.00038184    0.00147278    0.00120713
     atom   68 type  3   force =    -0.00082782    0.00070104   -0.00077229
     atom   69 type  4   force =    -0.00070821    0.00028677    0.00090076
     atom   70 type  4   force =    -0.00024528    0.00011366   -0.00024195
     atom   71 type  4   force =     0.00014764    0.00006444   -0.00083633
     atom   72 type  4   force =     0.00034583   -0.00049186    0.00146980
     atom   73 type  4   force =    -0.00084638    0.00065905    0.00182701
     atom   74 type  4   force =     0.00021344   -0.00050200   -0.00086737
     atom   75 type  4   force =    -0.00153138   -0.00041927    0.00111315
     atom   76 type  4   force =     0.00030086   -0.00087033    0.00129160
     atom   77 type  4   force =    -0.00037998    0.00016968    0.00060150
     atom   78 type  4   force =    -0.00025933   -0.00028660   -0.00025051
     atom   79 type  4   force =     0.00012763    0.00028851    0.00060736
     atom   80 type  4   force =     0.00006347    0.00065151   -0.00047910
     atom   81 type  4   force =     0.00015222   -0.00054774   -0.00052700
     atom   82 type  4   force =     0.00088566   -0.00088047    0.00081418
     atom   83 type  4   force =    -0.00004665    0.00074706    0.00037635
     atom   84 type  4   force =    -0.00049120    0.00020861    0.00062199
     atom   85 type  3   force =    -0.00019690   -0.00089641   -0.00253142
     atom   86 type  3   force =    -0.00000177    0.00007615    0.00304352
     atom   87 type  3   force =     0.00055081    0.00117958    0.00269889
     atom   88 type  3   force =    -0.00062524    0.00069449   -0.00075463
     atom   89 type  4   force =    -0.00025206   -0.00019693    0.00050431
     atom   90 type  4   force =    -0.00049685   -0.00027560   -0.00124851
     atom   91 type  4   force =     0.00034260    0.00029846   -0.00140152
     atom   92 type  4   force =     0.00035466   -0.00045640    0.00119432
     atom   93 type  4   force =    -0.00016296    0.00105320    0.00097085
     atom   94 type  4   force =     0.00054355    0.00096226    0.00154615
     atom   95 type  4   force =    -0.00034867    0.00022796    0.00130717
     atom   96 type  4   force =    -0.00017408   -0.00032794    0.00098894
     atom   97 type  4   force =    -0.00005182   -0.00038311    0.00075100
     atom   98 type  4   force =     0.00009298   -0.00029231   -0.00091563
     atom   99 type  4   force =     0.00052785   -0.00008902    0.00062144
     atom  100 type  4   force =     0.00000691    0.00043951   -0.00037481
     atom  101 type  4   force =    -0.00041718   -0.00000332   -0.00018709
     atom  102 type  4   force =     0.00124369   -0.00116411   -0.00042306
     atom  103 type  4   force =     0.00028306    0.00033082    0.00029403
     atom  104 type  4   force =     0.00006756   -0.00059480   -0.00018120
     atom  105 type  1   force =    -0.00062048    0.00208145   -0.00669976
     atom  106 type  1   force =     0.02827961    0.01378381    0.02190473
     atom  107 type  2   force =     0.00172215    0.00017979   -0.01060122
     atom  108 type  1   force =    -0.03113702    0.02298940    0.01663429
     atom  109 type  1   force =     0.00417806   -0.00290710   -0.00347578
     atom  110 type  1   force =    -0.00120207   -0.00642938   -0.00552058
     atom  111 type  1   force =    -0.00386501    0.00239832   -0.00589520
     atom  112 type  2   force =     0.03240381    0.01660787   -0.01060717
     atom  113 type  2   force =     0.00146058    0.00102978   -0.01014566
     atom  114 type  1   force =    -0.03204026    0.02430077    0.01754553
     atom  115 type  1   force =     0.00351525   -0.00486024   -0.00443046
     atom  116 type  1   force =    -0.00500942   -0.00807310   -0.00669504
     atom  117 type  3   force =    -0.02900213   -0.03571660   -0.06279463
     atom  118 type  3   force =     0.00317646    0.00035825   -0.00699768
     atom  119 type  3   force =     0.00071050   -0.00069135   -0.00918189
     atom  120 type  3   force =     0.02798279   -0.05775158   -0.08375000
     atom  121 type  4   force =    -0.00655095   -0.00324678    0.03052193
     atom  122 type  4   force =    -0.00145797   -0.00109477    0.00251071
     atom  123 type  4   force =     0.00163479   -0.00095191    0.00478028
     atom  124 type  4   force =     0.00360725    0.00309257    0.03404011
     atom  125 type  4   force =    -0.00225214   -0.00226282    0.03402158
     atom  126 type  4   force =    -0.00090138    0.00073790    0.00305856
     atom  127 type  4   force =     0.00223296    0.00316320    0.00441042
     atom  128 type  4   force =    -0.00314895   -0.00172561    0.02224026
     atom  129 type  4   force =    -0.01243943    0.03645402    0.00490551
     atom  130 type  4   force =    -0.00144981    0.00028090    0.00237458
     atom  131 type  4   force =    -0.01951229    0.00356814    0.00989882
     atom  132 type  4   force =    -0.00116474    0.00352015    0.00433566
     atom  133 type  4   force =    -0.00277344    0.00063672    0.00241382
     atom  134 type  4   force =     0.00143393   -0.00445558    0.00353103
     atom  135 type  4   force =     0.01377028    0.02364368   -0.00095034
     atom  136 type  4   force =     0.01326082   -0.00063656    0.00236395
     atom  137 type  3   force =    -0.03817703   -0.04127209   -0.06620205
     atom  138 type  3   force =     0.00646355   -0.00302584   -0.00143878
     atom  139 type  3   force =     0.00028275   -0.00157469   -0.00942054
     atom  140 type  3   force =     0.02906148   -0.05119301   -0.08330769
     atom  141 type  4   force =    -0.00106843    0.00271115    0.02937457
     atom  142 type  4   force =     0.00040502    0.00242739   -0.00638102
     atom  143 type  4   force =     0.00168935   -0.00080810    0.00416061
     atom  144 type  4   force =     0.00425394    0.00177951    0.03463970
     atom  145 type  4   force =     0.00897910    0.00385166    0.03120609
     atom  146 type  4   force =    -0.00037419    0.00062529    0.00184019
     atom  147 type  4   force =     0.00273791    0.00349255    0.00408074
     atom  148 type  4   force =    -0.00395028   -0.00137569    0.02217865
     atom  149 type  4   force =    -0.00993604    0.03022821    0.00420285
     atom  150 type  4   force =    -0.00186438    0.00032583    0.00280814
     atom  151 type  4   force =    -0.01862390    0.00503959    0.00985835
     atom  152 type  4   force =    -0.00093096    0.00343467    0.00432244
     atom  153 type  4   force =    -0.00121085    0.00026205    0.00297009
     atom  154 type  4   force =     0.00206356   -0.00266240    0.00284122
     atom  155 type  4   force =     0.01470884    0.02466797    0.00011444
     atom  156 type  4   force =     0.02243861   -0.00364622    0.00140299
     atom  157 type  4   force =     0.01101038   -0.00664434    0.00178746
     atom  158 type  5   force =    -0.01178785    0.00567042   -0.00268876

     Total force =     0.238394     Total SCF correction =     0.004460
 
     init_run     :     10.10s CPU     10.92s WALL (       1 calls)
     electrons    :   1364.57s CPU   1424.01s WALL (       1 calls)
     forces       :      4.79s CPU      5.41s WALL (       1 calls)
     force_london :      0.13s CPU      0.13s WALL (       1 calls)

     Called by init_run:
     wfcinit      :      6.23s CPU      6.46s WALL (       1 calls)
     potinit      :      0.65s CPU      0.85s WALL (       1 calls)
     hinit0       :      1.59s CPU      1.71s WALL (       1 calls)

     Called by electrons:
     c_bands      :   1073.64s CPU   1103.77s WALL (      76 calls)
     sum_band     :    184.00s CPU    199.29s WALL (      76 calls)
     v_of_rho     :     23.67s CPU     24.84s WALL (      77 calls)
     newd         :     51.82s CPU     64.45s WALL (      77 calls)
     mix_rho      :     30.04s CPU     30.47s WALL (      76 calls)
     energy_londo :      0.11s CPU      0.12s WALL (       1 calls)

     Called by c_bands:
     init_us_2    :      2.78s CPU      2.86s WALL (     308 calls)
     init_us_2:cp :      2.77s CPU      2.86s WALL (     308 calls)
     regterg      :   1051.49s CPU   1081.29s WALL (     153 calls)

     Called by *egterg:
     rdiaghg      :    294.22s CPU    308.20s WALL (     600 calls)
     h_psi        :    432.79s CPU    440.37s WALL (     602 calls)
     s_psi        :     68.07s CPU     68.11s WALL (     602 calls)
     g_psi        :      0.51s CPU      0.52s WALL (     447 calls)

     Called by h_psi:
     h_psi:calbec :     99.13s CPU    105.11s WALL (     602 calls)
     vloc_psi     :    264.54s CPU    265.39s WALL (     602 calls)
     add_vuspsi   :     68.20s CPU     68.93s WALL (     602 calls)

     General routines
     calbec       :    146.93s CPU    155.91s WALL (     762 calls)
     fft          :     27.03s CPU     29.13s WALL (    1399 calls)
     ffts         :     17.31s CPU     17.34s WALL (    9455 calls)
     fftw         :    299.32s CPU    300.21s WALL (  261894 calls)
     interpolate  :      1.90s CPU      1.98s WALL (     154 calls)
 
     Parallel routines
 
     PWSCF        :  23m 1.75s CPU  24m 2.94s WALL

 
   This run was terminated on:   0: 1: 5  18Nov2025            

=------------------------------------------------------------------------------=
   JOB DONE.
=------------------------------------------------------------------------------=
