
     Program PWSCF v.7.2 starts on 19Nov2025 at 19: 5:12 

     This program is part of the open-source Quantum ESPRESSO suite
     for quantum simulation of materials; please cite
         "P. Giannozzi et al., J. Phys.:Condens. Matter 21 395502 (2009);
         "P. Giannozzi et al., J. Phys.:Condens. Matter 29 465901 (2017);
         "P. Giannozzi et al., J. Chem. Phys. 152 154105 (2020);
          URL http://www.quantum-espresso.org", 
     in publications or presentations arising from this work. More details at
     http://www.quantum-espresso.org/quote

     Parallel version (MPI), running on    64 processors

     MPI processes distributed on     4 nodes
     384917 MiB available memory on the printing compute node when the environment starts
 
     Reading input from PWINPUT_atm157_xp

     Current dimensions of program PWSCF are:
     Max number of different atomic species (ntypx) = 10
     Max number of k-points (npk) =  40000
     Max angular momentum in pseudopotentials (lmaxx) =  4
     Presently no symmetry can be used with electric field

     file Ni.pbe-n-rrkjus_psl.1.0.0.UPF: wavefunction(s)  3D renormalized
     file Mn.pbe-spn-rrkjus_psl.0.3.1.UPF: wavefunction(s)  3D renormalized
     file O.pbe-rrkjus.UPF: wavefunction(s)  2S renormalized
     file H.pbe-rrkjus.UPF: wavefunction(s)  1S renormalized

     gamma-point specific algorithms are used
 
     R & G space division:  proc/nbgrp/npool/nimage =      64
     Subspace diagonalization in iterative solution of the eigenvalue problem:
     one sub-group per band group will be used
     custom distributed-memory algorithm (size of sub-group:  6*  6 procs)

 
     Parallelization info
     --------------------
     sticks:   dense  smooth     PW     G-vecs:    dense   smooth      PW
     Min         208      82     20                59912    15118    1876
     Max         210      84     22                59974    15196    1926
     Sum       13399    5355   1345              3836275   970529  121367
 
     Using Slab Decomposition
 


     bravais-lattice index     =            0
     lattice parameter (alat)  =      17.7004  a.u.
     unit-cell volume          =   20319.7251 (a.u.)^3
     number of atoms/cell      =          158
     number of atomic types    =            5
     number of electrons       =      1078.00
     number of Kohn-Sham states=          647
     kinetic-energy cutoff     =      50.0000  Ry
     charge density cutoff     =     500.0000  Ry
     scf convergence threshold =      1.0E-06
     mixing beta               =       0.1000
     number of iterations used =            8  local-TF  mixing
     Exchange-correlation=  SLA  PW   PBE  PBE
                           (   1   4   3   4   0   0   0)

     celldm(1)=  17.700384  celldm(2)=   0.000000  celldm(3)=   0.000000
     celldm(4)=   0.000000  celldm(5)=   0.000000  celldm(6)=   0.000000

     crystal axes: (cart. coord. in units of alat)
               a(1) = (   1.000000   0.000000   0.000000 )  
               a(2) = (   0.000000   1.075730   0.000000 )  
               a(3) = (   0.000000   0.000000   3.406172 )  

     reciprocal axes: (cart. coord. in units 2 pi/alat)
               b(1) = (  1.000000  0.000000  0.000000 )  
               b(2) = (  0.000000  0.929602  0.000000 )  
               b(3) = (  0.000000  0.000000  0.293585 )  


     PseudoPot. # 1 for Ni read from file:
     ~/PSEUDO/Ni.pbe-n-rrkjus_psl.1.0.0.UPF
     MD5 check sum: Not computed, couldn't open file
     Pseudo is Ultrasoft + core correction, Zval = 10.0
     Generated using "atomic" code by A. Dal Corso  v.5.1.2
     Using radial grid of 1195 points,  6 beta functions with: 
                l(1) =   0
                l(2) =   0
                l(3) =   1
                l(4) =   1
                l(5) =   2
                l(6) =   2
     Q(r) pseudized with 0 coefficients 


     PseudoPot. # 2 for Mn read from file:
     ~/PSEUDO/Mn.pbe-spn-rrkjus_psl.0.3.1.UPF
     MD5 check sum: Not computed, couldn't open file
     Pseudo is Ultrasoft + core correction, Zval = 15.0
     Generated using &quot;atomic&quot; code by A. Dal Corso  v.6.2.2
     Using radial grid of 1187 points,  6 beta functions with: 
                l(1) =   0
                l(2) =   0
                l(3) =   1
                l(4) =   1
                l(5) =   2
                l(6) =   2
     Q(r) pseudized with 0 coefficients 


     PseudoPot. # 3 for P  read from file:
     ~/PSEUDO/P.pbe-n-rrkjus_psl.1.0.0.UPF
     MD5 check sum: Not computed, couldn't open file
     Pseudo is Ultrasoft + core correction, Zval =  5.0
     Generated using "atomic" code by A. Dal Corso  v.5.1
     Using radial grid of 1147 points,  6 beta functions with: 
                l(1) =   0
                l(2) =   0
                l(3) =   1
                l(4) =   1
                l(5) =   2
                l(6) =   2
     Q(r) pseudized with 0 coefficients 


     PseudoPot. # 4 for O  read from file:
     ~/PSEUDO/O.pbe-rrkjus.UPF
     MD5 check sum: Not computed, couldn't open file
     Pseudo is Ultrasoft, Zval =  6.0
     Generated by new atomic code, or converted to UPF format
     Using radial grid of 1269 points,  4 beta functions with: 
                l(1) =   0
                l(2) =   0
                l(3) =   1
                l(4) =   1
     Q(r) pseudized with 0 coefficients 


     PseudoPot. # 5 for H  read from file:
     ~/PSEUDO/H.pbe-rrkjus.UPF
     MD5 check sum: Not computed, couldn't open file
     Pseudo is Ultrasoft, Zval =  1.0
     Generated by new atomic code, or converted to UPF format
     Using radial grid of 1061 points,  2 beta functions with: 
                l(1) =   0
                l(2) =   0
     Q(r) pseudized with 0 coefficients 


     atomic species   valence    mass     pseudopotential
     Ni               10.00    58.69300     Ni( 1.00)
     Mn               15.00    54.93800     Mn( 1.00)
     P                 5.00    30.97300     P ( 1.00)
     O                 6.00    15.99900     O ( 1.00)
     H                 1.00     1.00790     H ( 1.00)

     Starting magnetic structure 
     atomic species   magnetization
     Ni              1.000
     Mn              1.000
     P               1.000
     O               1.000
     H               0.000

     No symmetry found



   Cartesian axes

     site n.     atom                  positions (alat units)
         1        Mn     tau(   1) = (   0.2517087   0.8371115   1.7089200  )
         2        Ni     tau(   2) = (   0.4946298   0.7752973   1.3725824  )
         3        Ni     tau(   3) = (   0.0015481   0.2961171   1.6749872  )
         4        Ni     tau(   4) = (   0.2613521   0.2396234   1.3678359  )
         5        Ni     tau(   5) = (   0.9984933   1.0749377   1.5355607  )
         6        Ni     tau(   6) = (   0.2572590   0.5404195   1.5326386  )
         7        Ni     tau(   7) = (   0.7529013   0.8355294   1.6752854  )
         8        Ni     tau(   8) = (   0.9935933   0.7756548   1.3720141  )
         9        Ni     tau(   9) = (   0.5024742   0.2964342   1.6745479  )
        10        Ni     tau(  10) = (   0.7618978   0.2375431   1.3667264  )
        11        Ni     tau(  11) = (   0.4990156   1.0768182   1.5305295  )
        12        Ni     tau(  12) = (   0.7564696   0.5358840   1.5310064  )
        13        P      tau(  13) = (   0.2101543   0.9720156   1.3797127  )
        14        P      tau(  14) = (   0.4706542   0.6451455   1.6955617  )
        15        P      tau(  15) = (   0.2884324   0.1127271   1.6923494  )
        16        P      tau(  16) = (   0.0456337   0.4340918   1.3707912  )
        17        O      tau(  17) = (   0.1335059   0.8997101   1.5140650  )
        18        O      tau(  18) = (   0.3867827   0.7182378   1.5594019  )
        19        O      tau(  19) = (   0.3670053   0.1737862   1.5463102  )
        20        O      tau(  20) = (   0.1240237   0.3636575   1.5070371  )
        21        O      tau(  21) = (   0.1473160   0.8837944   1.2542796  )
        22        O      tau(  22) = (   0.4146853   0.7340483   1.8196848  )
        23        O      tau(  23) = (   0.3495356   0.2093518   1.8074273  )
        24        O      tau(  24) = (   0.1052584   0.3464292   1.2439881  )
        25        O      tau(  25) = (   0.1049117   0.5895470   1.3757347  )
        26        O      tau(  26) = (   0.3473708   1.0308751   1.6857652  )
        27        O      tau(  27) = (   0.3810036   0.4281764   1.3825697  )
        28        O      tau(  28) = (   0.1238775   0.1159040   1.6775620  )
        29        O      tau(  29) = (   0.1305439   0.6501957   1.6820985  )
        30        O      tau(  30) = (   0.4132477   0.4886172   1.6862595  )
        31        O      tau(  31) = (   0.1524630   0.0515712   1.3799009  )
        32        O      tau(  32) = (   0.3743678   0.9633656   1.3849747  )
        33        P      tau(  33) = (   0.7103643   0.9714602   1.3712571  )
        34        P      tau(  34) = (   0.9649208   0.6440558   1.6927385  )
        35        P      tau(  35) = (   0.7871885   0.1098825   1.6920406  )
        36        P      tau(  36) = (   0.5450176   0.4335131   1.3702334  )
        37        O      tau(  37) = (   0.6319749   0.9002438   1.5073571  )
        38        O      tau(  38) = (   0.8891581   0.7073457   1.5481759  )
        39        O      tau(  39) = (   0.8662231   0.1700413   1.5462886  )
        40        O      tau(  40) = (   0.6235591   0.3611085   1.5054814  )
        41        O      tau(  41) = (   0.6491843   0.8831538   1.2455076  )
        42        O      tau(  42) = (   0.9034437   0.7399336   1.8095699  )
        43        O      tau(  43) = (   0.8478548   0.2077401   1.8063738  )
        44        O      tau(  44) = (   0.6060435   0.3462002   1.2436710  )
        45        O      tau(  45) = (   0.6035774   0.5890693   1.3768175  )
        46        O      tau(  46) = (   0.8421571   1.0273722   1.6917632  )
        47        O      tau(  47) = (   0.8816644   0.4266506   1.3828449  )
        48        O      tau(  48) = (   0.6221997   0.1135664   1.6772983  )
        49        O      tau(  49) = (   0.6347776   0.6499156   1.6770748  )
        50        O      tau(  50) = (   0.9100442   0.4869846   1.6900532  )
        51        O      tau(  51) = (   0.6512513   0.0508446   1.3744142  )
        52        O      tau(  52) = (   0.8740844   0.9637479   1.3848135  )
        53        Mn     tau(  53) = (   0.2404744   0.8246335   1.0701417  )
        54        Ni     tau(  54) = (   0.4968126   0.7601755   0.7454373  )
        55        Ni     tau(  55) = (   0.0066150   0.2811828   1.0628866  )
        56        Ni     tau(  56) = (   0.2585722   0.2230943   0.7421070  )
        57        Ni     tau(  57) = (   0.9987350   1.0571496   0.9014992  )
        58        Ni     tau(  58) = (   0.2517397   0.5205596   0.9040596  )
        59        Ni     tau(  59) = (   0.7451645   0.8212628   1.0648168  )
        60        Ni     tau(  60) = (   0.9939181   0.7613889   0.7462324  )
        61        Ni     tau(  61) = (   0.5111533   0.2799173   1.0618053  )
        62        Ni     tau(  62) = (   0.7606326   0.2194352   0.7418547  )
        63        Ni     tau(  63) = (   0.5024065   1.0563218   0.8999416  )
        64        Ni     tau(  64) = (   0.7529977   0.5192985   0.9024691  )
        65        P      tau(  65) = (   0.2092944   0.9606182   0.7524883  )
        66        P      tau(  66) = (   0.4655727   0.6234620   1.0595283  )
        67        P      tau(  67) = (   0.2910699   0.0902448   1.0573821  )
        68        P      tau(  68) = (   0.0396216   0.4163480   0.7471080  )
        69        O      tau(  69) = (   0.1294378   0.8888345   0.8859300  )
        70        O      tau(  70) = (   0.3874505   0.6929859   0.9232915  )
        71        O      tau(  71) = (   0.3702540   0.1589885   0.9209891  )
        72        O      tau(  72) = (   0.1184398   0.3458043   0.8831565  )
        73        O      tau(  73) = (   0.1451572   0.8725966   0.6282341  )
        74        O      tau(  74) = (   0.4048762   0.7120670   1.1852426  )
        75        O      tau(  75) = (   0.3523506   0.1775664   1.1834175  )
        76        O      tau(  76) = (   0.1017610   0.3285569   0.6213347  )
        77        O      tau(  77) = (   0.0975396   0.5724373   0.7511996  )
        78        O      tau(  78) = (   0.3483552   1.0190030   1.0599597  )
        79        O      tau(  79) = (   0.3784305   0.4100203   0.7560991  )
        80        O      tau(  80) = (   0.1268237   0.0943029   1.0477175  )
        81        O      tau(  81) = (   0.1212267   0.6299255   1.0507023  )
        82        O      tau(  82) = (   0.4053315   0.4684472   1.0569297  )
        83        O      tau(  83) = (   0.1536621   0.0322003   0.7496532  )
        84        O      tau(  84) = (   0.3732349   0.9506802   0.7613277  )
        85        P      tau(  85) = (   0.7119823   0.9571059   0.7496908  )
        86        P      tau(  86) = (   0.9615208   0.6238477   1.0606987  )
        87        P      tau(  87) = (   0.7927710   0.0845145   1.0577754  )
        88        P      tau(  88) = (   0.5426404   0.4144760   0.7459181  )
        89        O      tau(  89) = (   0.6326879   0.8866267   0.8856678  )
        90        O      tau(  90) = (   0.8842163   0.6958291   0.9244764  )
        91        O      tau(  91) = (   0.8716178   0.1552836   0.9216415  )
        92        O      tau(  92) = (   0.6212010   0.3433751   0.8818834  )
        93        O      tau(  93) = (   0.6507714   0.8687427   0.6238197  )
        94        O      tau(  94) = (   0.9014054   0.7139543   1.1859242  )
        95        O      tau(  95) = (   0.8548963   0.1722994   1.1834447  )
        96        O      tau(  96) = (   0.6044469   0.3253792   0.6209553  )
        97        O      tau(  97) = (   0.6024424   0.5698225   0.7490903  )
        98        O      tau(  98) = (   0.8498940   1.0129567   1.0594762  )
        99        O      tau(  99) = (   0.8798395   0.4080910   0.7564148  )
       100        O      tau( 100) = (   0.6286921   0.0909721   1.0472573  )
       101        O      tau( 101) = (   0.6294973   0.6302838   1.0497366  )
       102        O      tau( 102) = (   0.9024339   0.4685397   1.0573501  )
       103        O      tau( 103) = (   0.6547812   0.0286072   0.7473283  )
       104        O      tau( 104) = (   0.8760507   0.9507690   0.7605412  )
       105        Mn     tau( 105) = (   0.2404744   0.8121420   0.4502541  )
       106        Ni     tau( 106) = (   0.4968126   0.7476840   0.1255496  )
       107        Ni     tau( 107) = (   0.0066150   0.2686914   0.4429989  )
       108        Ni     tau( 108) = (   0.2585722   0.2106028   0.1222194  )
       109        Ni     tau( 109) = (   0.9987350   1.0446581   0.2816116  )
       110        Ni     tau( 110) = (   0.2517397   0.5080681   0.2841720  )
       111        Ni     tau( 111) = (   0.7451645   0.8087713   0.4449291  )
       112        Ni     tau( 112) = (   0.9939181   0.7488974   0.1263448  )
       113        Ni     tau( 113) = (   0.5111533   0.2674258   0.4419177  )
       114        Ni     tau( 114) = (   0.7606326   0.2069438   0.1219670  )
       115        Ni     tau( 115) = (   0.5024065   1.0438304   0.2800540  )
       116        Ni     tau( 116) = (   0.7529977   0.5068070   0.2825815  )
       117        P      tau( 117) = (   0.2092944   0.9481267   0.1326007  )
       118        P      tau( 118) = (   0.4655727   0.6109705   0.4396407  )
       119        P      tau( 119) = (   0.2910699   0.0777534   0.4374945  )
       120        P      tau( 120) = (   0.0396216   0.4038566   0.1272204  )
       121        O      tau( 121) = (   0.1294378   0.8763430   0.2660424  )
       122        O      tau( 122) = (   0.3874505   0.6804944   0.3034039  )
       123        O      tau( 123) = (   0.3702540   0.1464970   0.3011014  )
       124        O      tau( 124) = (   0.1184398   0.3333129   0.2632689  )
       125        O      tau( 125) = (   0.1451572   0.8601051   0.0083464  )
       126        O      tau( 126) = (   0.4048762   0.6995756   0.5653550  )
       127        O      tau( 127) = (   0.3523506   0.1650749   0.5635298  )
       128        O      tau( 128) = (   0.1017610   0.3160655   0.0014470  )
       129        O      tau( 129) = (   0.0975396   0.5599458   0.1313120  )
       130        O      tau( 130) = (   0.3483552   1.0065115   0.4400720  )
       131        O      tau( 131) = (   0.3784305   0.3975288   0.1362114  )
       132        O      tau( 132) = (   0.1268237   0.0818115   0.4278298  )
       133        O      tau( 133) = (   0.1212267   0.6174340   0.4308146  )
       134        O      tau( 134) = (   0.4053315   0.4559557   0.4370420  )
       135        O      tau( 135) = (   0.1536621   0.0197088   0.1297656  )
       136        O      tau( 136) = (   0.3732349   0.9381887   0.1414400  )
       137        P      tau( 137) = (   0.7119823   0.9446144   0.1298032  )
       138        P      tau( 138) = (   0.9615208   0.6113562   0.4408111  )
       139        P      tau( 139) = (   0.7927710   0.0720230   0.4378878  )
       140        P      tau( 140) = (   0.5426404   0.4019845   0.1260304  )
       141        O      tau( 141) = (   0.6326879   0.8741353   0.2657802  )
       142        O      tau( 142) = (   0.8842163   0.6833376   0.3045887  )
       143        O      tau( 143) = (   0.8716178   0.1427921   0.3017538  )
       144        O      tau( 144) = (   0.6212010   0.3308836   0.2619957  )
       145        O      tau( 145) = (   0.6507714   0.8562512   0.0039320  )
       146        O      tau( 146) = (   0.9014054   0.7014628   0.5660366  )
       147        O      tau( 147) = (   0.8548963   0.1598079   0.5635571  )
       148        O      tau( 148) = (   0.6044469   0.3128877   0.0010676  )
       149        O      tau( 149) = (   0.6024424   0.5573310   0.1292027  )
       150        O      tau( 150) = (   0.8498940   1.0004653   0.4395886  )
       151        O      tau( 151) = (   0.8798395   0.3955995   0.1365272  )
       152        O      tau( 152) = (   0.6286921   0.0784807   0.4273696  )
       153        O      tau( 153) = (   0.6294973   0.6177923   0.4298489  )
       154        O      tau( 154) = (   0.9024339   0.4560482   0.4374624  )
       155        O      tau( 155) = (   0.6547812   0.0161158   0.1274406  )
       156        O      tau( 156) = (   0.8760507   0.9382775   0.1406535  )
       157        O      tau( 157) = (   1.1437188   0.9081323   1.8444903  )
       158        H      tau( 158) = (   1.0494652   0.8581547   1.8562154  )

     -------------------------------------------------
     Parameters for Dispersion (Grimme-D2) Correction:
     -------------------------------------------------
       atom      VdW radius       C_6     

        Ni         2.952        374.666
        Mn         2.952        374.666
        P          3.222        271.980
        O          2.536         24.284
        H          1.892          4.857

     number of k points=     1  Gaussian smearing, width (Ry)=  0.0100
                       cart. coord. in units 2pi/alat
        k(    1) = (   0.0000000   0.0000000   0.0000000), wk =   1.0000000

     Dense  grid:  1918138 G-vectors     FFT dimensions: ( 125, 135, 432)

     Smooth grid:   485265 G-vectors     FFT dimensions: (  80,  90, 288)

     Estimated max dynamical RAM per process >     320.12 MB

     Estimated total dynamical RAM >      20.01 GB
     Generating pointlists ...
     new r_m :   0.0866 (alat units)  1.5324 (a.u.) for type    1
     new r_m :   0.0773 (alat units)  1.3676 (a.u.) for type    2
     new r_m :   0.0650 (alat units)  1.1499 (a.u.) for type    3
     new r_m :   0.0443 (alat units)  0.7836 (a.u.) for type    4
     new r_m :   0.0443 (alat units)  0.7836 (a.u.) for type    5

     Initial potential from superposition of free atoms

     starting charge    1077.8900, renormalised to    1078.0000

     negative rho (up, down):  1.248E-03 4.554E-04
 
     Adding external electric field

     Computed dipole along edir(3) : 
        Dipole                1.6042 Ry au,          4.0774 Debye
        Dipole field          0.0010 Ry au, 
 
        Potential amp.       -0.1077 Ry
        Total length         54.2615 bohr
 
 
     Adding external electric field

     Computed dipole along edir(3) : 
        Dipole                1.6042 Ry au,          4.0774 Debye
        Dipole field          0.0010 Ry au, 
 
        Potential amp.       -0.1077 Ry
        Total length         54.2615 bohr
 
     Starting wfcs are  812 randomized atomic wfcs

     total cpu time spent up to now is       10.8 secs

     Self-consistent Calculation

     iteration #  1     ecut=    50.00 Ry     beta= 0.10
     Davidson diagonalization with overlap
     ethr =  1.00E-02,  avg # of iterations =  6.0

     negative rho (up, down):  3.368E-01 1.438E-06
 
     Adding external electric field

     Computed dipole along edir(3) : 
        Dipole               -3.4394 Ry au,         -8.7420 Debye
        Dipole field         -0.0021 Ry au, 
 
        Potential amp.        0.2308 Ry
        Total length         54.2615 bohr
 
 
     Adding external electric field

     Computed dipole along edir(3) : 
        Dipole               -3.4394 Ry au,         -8.7420 Debye
        Dipole field         -0.0021 Ry au, 
 
        Potential amp.        0.2308 Ry
        Total length         54.2615 bohr
 

     total cpu time spent up to now is       39.3 secs

     total energy              =   -7179.24177818 Ry
     estimated scf accuracy    <     733.93263486 Ry

     total magnetization       =   216.00 Bohr mag/cell
     absolute magnetization    =   296.68 Bohr mag/cell

     iteration #  2     ecut=    50.00 Ry     beta= 0.10
     Davidson diagonalization with overlap
     ethr =  1.00E-02,  avg # of iterations =  2.0

     negative rho (up, down):  3.161E-01 1.070E-06
 
     Adding external electric field

     Computed dipole along edir(3) : 
        Dipole               -2.3459 Ry au,         -5.9626 Debye
        Dipole field         -0.0015 Ry au, 
 
        Potential amp.        0.1574 Ry
        Total length         54.2615 bohr
 
 
     Adding external electric field

     Computed dipole along edir(3) : 
        Dipole               -2.3459 Ry au,         -5.9626 Debye
        Dipole field         -0.0015 Ry au, 
 
        Potential amp.        0.1574 Ry
        Total length         54.2615 bohr
 

     total cpu time spent up to now is       55.9 secs

     total energy              =   -7262.97507153 Ry
     estimated scf accuracy    <     188.99204053 Ry

     total magnetization       =   147.94 Bohr mag/cell
     absolute magnetization    =   198.17 Bohr mag/cell

     iteration #  3     ecut=    50.00 Ry     beta= 0.10
     Davidson diagonalization with overlap
     ethr =  1.00E-02,  avg # of iterations =  1.5

     negative rho (up, down):  2.761E-01 8.185E-07
 
     Adding external electric field

     Computed dipole along edir(3) : 
        Dipole               -1.9803 Ry au,         -5.0333 Debye
        Dipole field         -0.0012 Ry au, 
 
        Potential amp.        0.1329 Ry
        Total length         54.2615 bohr
 
 
     Adding external electric field

     Computed dipole along edir(3) : 
        Dipole               -1.9803 Ry au,         -5.0333 Debye
        Dipole field         -0.0012 Ry au, 
 
        Potential amp.        0.1329 Ry
        Total length         54.2615 bohr
 

     total cpu time spent up to now is       68.9 secs

     total energy              =   -7294.72586435 Ry
     estimated scf accuracy    <      97.33261641 Ry

     total magnetization       =   124.15 Bohr mag/cell
     absolute magnetization    =   178.20 Bohr mag/cell

     iteration #  4     ecut=    50.00 Ry     beta= 0.10
     Davidson diagonalization with overlap
     ethr =  9.03E-03,  avg # of iterations =  1.5

     negative rho (up, down):  2.047E-01 1.880E-07
 
     Adding external electric field

     Computed dipole along edir(3) : 
        Dipole               -2.0111 Ry au,         -5.1116 Debye
        Dipole field         -0.0012 Ry au, 
 
        Potential amp.        0.1350 Ry
        Total length         54.2615 bohr
 
 
     Adding external electric field

     Computed dipole along edir(3) : 
        Dipole               -2.0111 Ry au,         -5.1116 Debye
        Dipole field         -0.0012 Ry au, 
 
        Potential amp.        0.1350 Ry
        Total length         54.2615 bohr
 

     total cpu time spent up to now is       81.9 secs

     total energy              =   -7328.33176852 Ry
     estimated scf accuracy    <      77.64613976 Ry

     total magnetization       =   108.87 Bohr mag/cell
     absolute magnetization    =   163.79 Bohr mag/cell

     iteration #  5     ecut=    50.00 Ry     beta= 0.10
     Davidson diagonalization with overlap
     ethr =  7.20E-03,  avg # of iterations =  1.5

     negative rho (up, down):  5.409E-03 7.559E-07
 
     Adding external electric field

     Computed dipole along edir(3) : 
        Dipole               -1.5741 Ry au,         -4.0010 Debye
        Dipole field         -0.0010 Ry au, 
 
        Potential amp.        0.1056 Ry
        Total length         54.2615 bohr
 
 
     Adding external electric field

     Computed dipole along edir(3) : 
        Dipole               -1.5741 Ry au,         -4.0010 Debye
        Dipole field         -0.0010 Ry au, 
 
        Potential amp.        0.1056 Ry
        Total length         54.2615 bohr
 

     total cpu time spent up to now is       94.4 secs

     total energy              =   -7387.77415304 Ry
     estimated scf accuracy    <      60.47909095 Ry

     total magnetization       =    88.00 Bohr mag/cell
     absolute magnetization    =   145.46 Bohr mag/cell

     iteration #  6     ecut=    50.00 Ry     beta= 0.10
     Davidson diagonalization with overlap
     ethr =  5.61E-03,  avg # of iterations =  1.5

     negative rho (up, down):  1.656E-04 2.091E-04
 
     Adding external electric field

     Computed dipole along edir(3) : 
        Dipole               -1.2229 Ry au,         -3.1084 Debye
        Dipole field         -0.0008 Ry au, 
 
        Potential amp.        0.0821 Ry
        Total length         54.2615 bohr
 
 
     Adding external electric field

     Computed dipole along edir(3) : 
        Dipole               -1.2229 Ry au,         -3.1084 Debye
        Dipole field         -0.0008 Ry au, 
 
        Potential amp.        0.0821 Ry
        Total length         54.2615 bohr
 

     total cpu time spent up to now is      107.5 secs

     total energy              =   -7395.70387752 Ry
     estimated scf accuracy    <       9.50047185 Ry

     total magnetization       =    79.61 Bohr mag/cell
     absolute magnetization    =   111.86 Bohr mag/cell

     iteration #  7     ecut=    50.00 Ry     beta= 0.10
     Davidson diagonalization with overlap
     ethr =  8.81E-04,  avg # of iterations =  7.5

     negative rho (up, down):  1.731E-04 2.068E-04
 
     Adding external electric field

     Computed dipole along edir(3) : 
        Dipole               -1.2551 Ry au,         -3.1900 Debye
        Dipole field         -0.0008 Ry au, 
 
        Potential amp.        0.0842 Ry
        Total length         54.2615 bohr
 
 
     Adding external electric field

     Computed dipole along edir(3) : 
        Dipole               -1.2551 Ry au,         -3.1900 Debye
        Dipole field         -0.0008 Ry au, 
 
        Potential amp.        0.0842 Ry
        Total length         54.2615 bohr
 

     total cpu time spent up to now is      132.1 secs

     total energy              =   -7397.64405161 Ry
     estimated scf accuracy    <      13.59606773 Ry

     total magnetization       =    69.53 Bohr mag/cell
     absolute magnetization    =    87.59 Bohr mag/cell

     iteration #  8     ecut=    50.00 Ry     beta= 0.10
     Davidson diagonalization with overlap
     ethr =  8.81E-04,  avg # of iterations =  1.0

     negative rho (up, down):  1.565E-04 4.345E-04
 
     Adding external electric field

     Computed dipole along edir(3) : 
        Dipole               -0.8243 Ry au,         -2.0950 Debye
        Dipole field         -0.0005 Ry au, 
 
        Potential amp.        0.0553 Ry
        Total length         54.2615 bohr
 
 
     Adding external electric field

     Computed dipole along edir(3) : 
        Dipole               -0.8243 Ry au,         -2.0950 Debye
        Dipole field         -0.0005 Ry au, 
 
        Potential amp.        0.0553 Ry
        Total length         54.2615 bohr
 

     total cpu time spent up to now is      143.8 secs

     total energy              =   -7397.54128710 Ry
     estimated scf accuracy    <      14.29024054 Ry

     total magnetization       =    69.24 Bohr mag/cell
     absolute magnetization    =    87.13 Bohr mag/cell

     iteration #  9     ecut=    50.00 Ry     beta= 0.10
     Davidson diagonalization with overlap
     ethr =  8.81E-04,  avg # of iterations =  1.0

     negative rho (up, down):  5.665E-04 1.703E-03
 
     Adding external electric field

     Computed dipole along edir(3) : 
        Dipole               -0.6332 Ry au,         -1.6095 Debye
        Dipole field         -0.0004 Ry au, 
 
        Potential amp.        0.0425 Ry
        Total length         54.2615 bohr
 
 
     Adding external electric field

     Computed dipole along edir(3) : 
        Dipole               -0.6332 Ry au,         -1.6095 Debye
        Dipole field         -0.0004 Ry au, 
 
        Potential amp.        0.0425 Ry
        Total length         54.2615 bohr
 

     total cpu time spent up to now is      155.4 secs

     total energy              =   -7397.53688383 Ry
     estimated scf accuracy    <       7.75462571 Ry

     total magnetization       =    70.15 Bohr mag/cell
     absolute magnetization    =    86.04 Bohr mag/cell

     iteration # 10     ecut=    50.00 Ry     beta= 0.10
     Davidson diagonalization with overlap
     ethr =  7.19E-04,  avg # of iterations =  1.0

     negative rho (up, down):  1.626E-03 3.273E-03
 
     Adding external electric field

     Computed dipole along edir(3) : 
        Dipole               -0.4834 Ry au,         -1.2287 Debye
        Dipole field         -0.0003 Ry au, 
 
        Potential amp.        0.0324 Ry
        Total length         54.2615 bohr
 
 
     Adding external electric field

     Computed dipole along edir(3) : 
        Dipole               -0.4834 Ry au,         -1.2287 Debye
        Dipole field         -0.0003 Ry au, 
 
        Potential amp.        0.0324 Ry
        Total length         54.2615 bohr
 

     total cpu time spent up to now is      166.6 secs

     total energy              =   -7397.58726451 Ry
     estimated scf accuracy    <       4.05791943 Ry

     total magnetization       =    73.41 Bohr mag/cell
     absolute magnetization    =    87.61 Bohr mag/cell

     iteration # 11     ecut=    50.00 Ry     beta= 0.10
     Davidson diagonalization with overlap
     ethr =  3.76E-04,  avg # of iterations =  1.5

     negative rho (up, down):  2.054E-03 4.735E-03
 
     Adding external electric field

     Computed dipole along edir(3) : 
        Dipole               -0.3654 Ry au,         -0.9288 Debye
        Dipole field         -0.0002 Ry au, 
 
        Potential amp.        0.0245 Ry
        Total length         54.2615 bohr
 
 
     Adding external electric field

     Computed dipole along edir(3) : 
        Dipole               -0.3654 Ry au,         -0.9288 Debye
        Dipole field         -0.0002 Ry au, 
 
        Potential amp.        0.0245 Ry
        Total length         54.2615 bohr
 

     total cpu time spent up to now is      178.5 secs

     total energy              =   -7397.68003844 Ry
     estimated scf accuracy    <       2.02888648 Ry

     total magnetization       =    76.67 Bohr mag/cell
     absolute magnetization    =    89.31 Bohr mag/cell

     iteration # 12     ecut=    50.00 Ry     beta= 0.10
     Davidson diagonalization with overlap
     ethr =  1.88E-04,  avg # of iterations =  1.5

     negative rho (up, down):  2.179E-03 3.760E-03
 
     Adding external electric field

     Computed dipole along edir(3) : 
        Dipole               -0.2187 Ry au,         -0.5558 Debye
        Dipole field         -0.0001 Ry au, 
 
        Potential amp.        0.0147 Ry
        Total length         54.2615 bohr
 
 
     Adding external electric field

     Computed dipole along edir(3) : 
        Dipole               -0.2187 Ry au,         -0.5558 Debye
        Dipole field         -0.0001 Ry au, 
 
        Potential amp.        0.0147 Ry
        Total length         54.2615 bohr
 

     total cpu time spent up to now is      190.4 secs

     total energy              =   -7397.87730919 Ry
     estimated scf accuracy    <       1.06289515 Ry

     total magnetization       =    78.06 Bohr mag/cell
     absolute magnetization    =    88.62 Bohr mag/cell

     iteration # 13     ecut=    50.00 Ry     beta= 0.10
     Davidson diagonalization with overlap
     ethr =  9.86E-05,  avg # of iterations = 12.0

     negative rho (up, down):  1.085E-03 2.043E-03
 
     Adding external electric field

     Computed dipole along edir(3) : 
        Dipole               -0.2383 Ry au,         -0.6057 Debye
        Dipole field         -0.0001 Ry au, 
 
        Potential amp.        0.0160 Ry
        Total length         54.2615 bohr
 
 
     Adding external electric field

     Computed dipole along edir(3) : 
        Dipole               -0.2383 Ry au,         -0.6057 Debye
        Dipole field         -0.0001 Ry au, 
 
        Potential amp.        0.0160 Ry
        Total length         54.2615 bohr
 

     total cpu time spent up to now is      213.9 secs

     total energy              =   -7397.97714811 Ry
     estimated scf accuracy    <       1.16693100 Ry

     total magnetization       =    79.44 Bohr mag/cell
     absolute magnetization    =    86.76 Bohr mag/cell

     iteration # 14     ecut=    50.00 Ry     beta= 0.10
     Davidson diagonalization with overlap
     ethr =  9.86E-05,  avg # of iterations =  1.0

     negative rho (up, down):  8.376E-05 2.034E-04
 
     Adding external electric field

     Computed dipole along edir(3) : 
        Dipole               -0.2932 Ry au,         -0.7454 Debye
        Dipole field         -0.0002 Ry au, 
 
        Potential amp.        0.0197 Ry
        Total length         54.2615 bohr
 
 
     Adding external electric field

     Computed dipole along edir(3) : 
        Dipole               -0.2932 Ry au,         -0.7454 Debye
        Dipole field         -0.0002 Ry au, 
 
        Potential amp.        0.0197 Ry
        Total length         54.2615 bohr
 

     total cpu time spent up to now is      225.1 secs

     total energy              =   -7398.05312983 Ry
     estimated scf accuracy    <       0.67142991 Ry

     total magnetization       =    79.24 Bohr mag/cell
     absolute magnetization    =    85.06 Bohr mag/cell

     iteration # 15     ecut=    50.00 Ry     beta= 0.10
     Davidson diagonalization with overlap
     ethr =  6.23E-05,  avg # of iterations =  2.0

     negative rho (up, down):  6.984E-06 2.492E-05
 
     Adding external electric field

     Computed dipole along edir(3) : 
        Dipole               -0.4558 Ry au,         -1.1584 Debye
        Dipole field         -0.0003 Ry au, 
 
        Potential amp.        0.0306 Ry
        Total length         54.2615 bohr
 
 
     Adding external electric field

     Computed dipole along edir(3) : 
        Dipole               -0.4558 Ry au,         -1.1584 Debye
        Dipole field         -0.0003 Ry au, 
 
        Potential amp.        0.0306 Ry
        Total length         54.2615 bohr
 

     total cpu time spent up to now is      237.8 secs

     total energy              =   -7398.05712199 Ry
     estimated scf accuracy    <       0.43358159 Ry

     total magnetization       =    78.97 Bohr mag/cell
     absolute magnetization    =    82.75 Bohr mag/cell

     iteration # 16     ecut=    50.00 Ry     beta= 0.10
     Davidson diagonalization with overlap
     ethr =  4.02E-05,  avg # of iterations =  1.5

     negative rho (up, down):  6.889E-06 1.466E-05
 
     Adding external electric field

     Computed dipole along edir(3) : 
        Dipole               -0.4247 Ry au,         -1.0795 Debye
        Dipole field         -0.0003 Ry au, 
 
        Potential amp.        0.0285 Ry
        Total length         54.2615 bohr
 
 
     Adding external electric field

     Computed dipole along edir(3) : 
        Dipole               -0.4247 Ry au,         -1.0795 Debye
        Dipole field         -0.0003 Ry au, 
 
        Potential amp.        0.0285 Ry
        Total length         54.2615 bohr
 

     total cpu time spent up to now is      249.5 secs

     total energy              =   -7398.07291670 Ry
     estimated scf accuracy    <       0.57112633 Ry

     total magnetization       =    77.74 Bohr mag/cell
     absolute magnetization    =    81.08 Bohr mag/cell

     iteration # 17     ecut=    50.00 Ry     beta= 0.10
     Davidson diagonalization with overlap
     ethr =  4.02E-05,  avg # of iterations =  1.0

     negative rho (up, down):  1.721E-05 2.728E-05
 
     Adding external electric field

     Computed dipole along edir(3) : 
        Dipole               -0.5475 Ry au,         -1.3916 Debye
        Dipole field         -0.0003 Ry au, 
 
        Potential amp.        0.0367 Ry
        Total length         54.2615 bohr
 
 
     Adding external electric field

     Computed dipole along edir(3) : 
        Dipole               -0.5475 Ry au,         -1.3916 Debye
        Dipole field         -0.0003 Ry au, 
 
        Potential amp.        0.0367 Ry
        Total length         54.2615 bohr
 

     total cpu time spent up to now is      260.6 secs

     total energy              =   -7398.07713638 Ry
     estimated scf accuracy    <       1.08064912 Ry

     total magnetization       =    77.11 Bohr mag/cell
     absolute magnetization    =    80.34 Bohr mag/cell

     iteration # 18     ecut=    50.00 Ry     beta= 0.10
     Davidson diagonalization with overlap
     ethr =  4.02E-05,  avg # of iterations =  1.5

     negative rho (up, down):  9.638E-06 1.112E-05
 
     Adding external electric field

     Computed dipole along edir(3) : 
        Dipole               -0.4948 Ry au,         -1.2577 Debye
        Dipole field         -0.0003 Ry au, 
 
        Potential amp.        0.0332 Ry
        Total length         54.2615 bohr
 
 
     Adding external electric field

     Computed dipole along edir(3) : 
        Dipole               -0.4948 Ry au,         -1.2577 Debye
        Dipole field         -0.0003 Ry au, 
 
        Potential amp.        0.0332 Ry
        Total length         54.2615 bohr
 

     total cpu time spent up to now is      272.5 secs

     total energy              =   -7398.07936942 Ry
     estimated scf accuracy    <       0.41389663 Ry

     total magnetization       =    77.44 Bohr mag/cell
     absolute magnetization    =    80.18 Bohr mag/cell

     iteration # 19     ecut=    50.00 Ry     beta= 0.10
     Davidson diagonalization with overlap
     ethr =  3.84E-05,  avg # of iterations =  1.0

     negative rho (up, down):  1.902E-05 1.854E-05
 
     Adding external electric field

     Computed dipole along edir(3) : 
        Dipole               -0.5917 Ry au,         -1.5040 Debye
        Dipole field         -0.0004 Ry au, 
 
        Potential amp.        0.0397 Ry
        Total length         54.2615 bohr
 
 
     Adding external electric field

     Computed dipole along edir(3) : 
        Dipole               -0.5917 Ry au,         -1.5040 Debye
        Dipole field         -0.0004 Ry au, 
 
        Potential amp.        0.0397 Ry
        Total length         54.2615 bohr
 

     total cpu time spent up to now is      283.7 secs

     total energy              =   -7398.08132199 Ry
     estimated scf accuracy    <       0.50791023 Ry

     total magnetization       =    77.55 Bohr mag/cell
     absolute magnetization    =    80.39 Bohr mag/cell

     iteration # 20     ecut=    50.00 Ry     beta= 0.10
     Davidson diagonalization with overlap
     ethr =  3.84E-05,  avg # of iterations =  2.0

     negative rho (up, down):  5.077E-05 2.083E-05
 
     Adding external electric field

     Computed dipole along edir(3) : 
        Dipole               -0.6379 Ry au,         -1.6215 Debye
        Dipole field         -0.0004 Ry au, 
 
        Potential amp.        0.0428 Ry
        Total length         54.2615 bohr
 
 
     Adding external electric field

     Computed dipole along edir(3) : 
        Dipole               -0.6379 Ry au,         -1.6215 Debye
        Dipole field         -0.0004 Ry au, 
 
        Potential amp.        0.0428 Ry
        Total length         54.2615 bohr
 

     total cpu time spent up to now is      296.4 secs

     total energy              =   -7398.08114048 Ry
     estimated scf accuracy    <       0.62769063 Ry

     total magnetization       =    76.63 Bohr mag/cell
     absolute magnetization    =    79.30 Bohr mag/cell

     iteration # 21     ecut=    50.00 Ry     beta= 0.10
     Davidson diagonalization with overlap
     ethr =  3.84E-05,  avg # of iterations =  1.0

     negative rho (up, down):  4.915E-05 1.424E-05
 
     Adding external electric field

     Computed dipole along edir(3) : 
        Dipole               -0.6280 Ry au,         -1.5963 Debye
        Dipole field         -0.0004 Ry au, 
 
        Potential amp.        0.0421 Ry
        Total length         54.2615 bohr
 
 
     Adding external electric field

     Computed dipole along edir(3) : 
        Dipole               -0.6280 Ry au,         -1.5963 Debye
        Dipole field         -0.0004 Ry au, 
 
        Potential amp.        0.0421 Ry
        Total length         54.2615 bohr
 

     total cpu time spent up to now is      307.6 secs

     total energy              =   -7398.08005590 Ry
     estimated scf accuracy    <       0.41877134 Ry

     total magnetization       =    77.59 Bohr mag/cell
     absolute magnetization    =    80.07 Bohr mag/cell

     iteration # 22     ecut=    50.00 Ry     beta= 0.10
     Davidson diagonalization with overlap
     ethr =  3.84E-05,  avg # of iterations =  1.0

     negative rho (up, down):  2.634E-05 2.999E-06
 
     Adding external electric field

     Computed dipole along edir(3) : 
        Dipole               -0.5880 Ry au,         -1.4945 Debye
        Dipole field         -0.0004 Ry au, 
 
        Potential amp.        0.0395 Ry
        Total length         54.2615 bohr
 
 
     Adding external electric field

     Computed dipole along edir(3) : 
        Dipole               -0.5880 Ry au,         -1.4945 Debye
        Dipole field         -0.0004 Ry au, 
 
        Potential amp.        0.0395 Ry
        Total length         54.2615 bohr
 

     total cpu time spent up to now is      318.8 secs

     total energy              =   -7398.07541650 Ry
     estimated scf accuracy    <       0.28829840 Ry

     total magnetization       =    77.87 Bohr mag/cell
     absolute magnetization    =    80.33 Bohr mag/cell

     iteration # 23     ecut=    50.00 Ry     beta= 0.10
     Davidson diagonalization with overlap
     ethr =  2.67E-05,  avg # of iterations =  1.5

     negative rho (up, down):  5.408E-05 1.564E-05
 
     Adding external electric field

     Computed dipole along edir(3) : 
        Dipole               -0.5499 Ry au,         -1.3977 Debye
        Dipole field         -0.0003 Ry au, 
 
        Potential amp.        0.0369 Ry
        Total length         54.2615 bohr
 
 
     Adding external electric field

     Computed dipole along edir(3) : 
        Dipole               -0.5499 Ry au,         -1.3977 Debye
        Dipole field         -0.0003 Ry au, 
 
        Potential amp.        0.0369 Ry
        Total length         54.2615 bohr
 

     total cpu time spent up to now is      330.8 secs

     total energy              =   -7398.07761080 Ry
     estimated scf accuracy    <       0.13426200 Ry

     total magnetization       =    78.43 Bohr mag/cell
     absolute magnetization    =    80.62 Bohr mag/cell

     iteration # 24     ecut=    50.00 Ry     beta= 0.10
     Davidson diagonalization with overlap
     ethr =  1.25E-05,  avg # of iterations =  2.0

     negative rho (up, down):  6.421E-05 4.111E-05
 
     Adding external electric field

     Computed dipole along edir(3) : 
        Dipole               -0.5373 Ry au,         -1.3657 Debye
        Dipole field         -0.0003 Ry au, 
 
        Potential amp.        0.0361 Ry
        Total length         54.2615 bohr
 
 
     Adding external electric field

     Computed dipole along edir(3) : 
        Dipole               -0.5373 Ry au,         -1.3657 Debye
        Dipole field         -0.0003 Ry au, 
 
        Potential amp.        0.0361 Ry
        Total length         54.2615 bohr
 

     total cpu time spent up to now is      343.7 secs

     total energy              =   -7398.08223410 Ry
     estimated scf accuracy    <       0.07058695 Ry

     total magnetization       =    78.55 Bohr mag/cell
     absolute magnetization    =    80.28 Bohr mag/cell

     iteration # 25     ecut=    50.00 Ry     beta= 0.10
     Davidson diagonalization with overlap
     c_bands:  2 eigenvalues not converged
     ethr =  6.55E-06,  avg # of iterations = 33.0

     negative rho (up, down):  5.811E-05 3.600E-05
 
     Adding external electric field

     Computed dipole along edir(3) : 
        Dipole               -0.5250 Ry au,         -1.3344 Debye
        Dipole field         -0.0003 Ry au, 
 
        Potential amp.        0.0352 Ry
        Total length         54.2615 bohr
 
 
     Adding external electric field

     Computed dipole along edir(3) : 
        Dipole               -0.5250 Ry au,         -1.3344 Debye
        Dipole field         -0.0003 Ry au, 
 
        Potential amp.        0.0352 Ry
        Total length         54.2615 bohr
 

     total cpu time spent up to now is      385.5 secs

     total energy              =   -7398.08207714 Ry
     estimated scf accuracy    <       0.04676689 Ry

     total magnetization       =    78.52 Bohr mag/cell
     absolute magnetization    =    80.25 Bohr mag/cell

     iteration # 26     ecut=    50.00 Ry     beta= 0.10
     Davidson diagonalization with overlap
     ethr =  4.34E-06,  avg # of iterations =  6.0

     negative rho (up, down):  8.475E-05 3.836E-05
 
     Adding external electric field

     Computed dipole along edir(3) : 
        Dipole               -0.5030 Ry au,         -1.2785 Debye
        Dipole field         -0.0003 Ry au, 
 
        Potential amp.        0.0338 Ry
        Total length         54.2615 bohr
 
 
     Adding external electric field

     Computed dipole along edir(3) : 
        Dipole               -0.5030 Ry au,         -1.2785 Debye
        Dipole field         -0.0003 Ry au, 
 
        Potential amp.        0.0338 Ry
        Total length         54.2615 bohr
 

     total cpu time spent up to now is      400.3 secs

     total energy              =   -7398.08089946 Ry
     estimated scf accuracy    <       0.03727097 Ry

     total magnetization       =    78.51 Bohr mag/cell
     absolute magnetization    =    80.16 Bohr mag/cell

     iteration # 27     ecut=    50.00 Ry     beta= 0.10
     Davidson diagonalization with overlap
     ethr =  3.46E-06,  avg # of iterations =  2.0

     negative rho (up, down):  3.139E-04 2.040E-04
 
     Adding external electric field

     Computed dipole along edir(3) : 
        Dipole               -0.4454 Ry au,         -1.1321 Debye
        Dipole field         -0.0003 Ry au, 
 
        Potential amp.        0.0299 Ry
        Total length         54.2615 bohr
 
 
     Adding external electric field

     Computed dipole along edir(3) : 
        Dipole               -0.4454 Ry au,         -1.1321 Debye
        Dipole field         -0.0003 Ry au, 
 
        Potential amp.        0.0299 Ry
        Total length         54.2615 bohr
 

     total cpu time spent up to now is      413.2 secs

     total energy              =   -7398.08023944 Ry
     estimated scf accuracy    <       0.02858378 Ry

     total magnetization       =    78.61 Bohr mag/cell
     absolute magnetization    =    80.18 Bohr mag/cell

     iteration # 28     ecut=    50.00 Ry     beta= 0.10
     Davidson diagonalization with overlap
     ethr =  2.65E-06,  avg # of iterations =  2.0

     negative rho (up, down):  1.170E-03 1.108E-03
 
     Adding external electric field

     Computed dipole along edir(3) : 
        Dipole               -0.2929 Ry au,         -0.7444 Debye
        Dipole field         -0.0002 Ry au, 
 
        Potential amp.        0.0197 Ry
        Total length         54.2615 bohr
 
 
     Adding external electric field

     Computed dipole along edir(3) : 
        Dipole               -0.2929 Ry au,         -0.7444 Debye
        Dipole field         -0.0002 Ry au, 
 
        Potential amp.        0.0197 Ry
        Total length         54.2615 bohr
 

     total cpu time spent up to now is      425.8 secs

     total energy              =   -7398.08001926 Ry
     estimated scf accuracy    <       0.02846024 Ry

     total magnetization       =    78.85 Bohr mag/cell
     absolute magnetization    =    80.41 Bohr mag/cell

     iteration # 29     ecut=    50.00 Ry     beta= 0.10
     Davidson diagonalization with overlap
     ethr =  2.64E-06,  avg # of iterations =  4.5

     negative rho (up, down):  1.390E-03 1.383E-03
 
     Adding external electric field

     Computed dipole along edir(3) : 
        Dipole               -0.2633 Ry au,         -0.6692 Debye
        Dipole field         -0.0002 Ry au, 
 
        Potential amp.        0.0177 Ry
        Total length         54.2615 bohr
 
 
     Adding external electric field

     Computed dipole along edir(3) : 
        Dipole               -0.2633 Ry au,         -0.6692 Debye
        Dipole field         -0.0002 Ry au, 
 
        Potential amp.        0.0177 Ry
        Total length         54.2615 bohr
 

     total cpu time spent up to now is      439.9 secs

     total energy              =   -7398.08018912 Ry
     estimated scf accuracy    <       0.04626771 Ry

     total magnetization       =    78.99 Bohr mag/cell
     absolute magnetization    =    80.59 Bohr mag/cell

     iteration # 30     ecut=    50.00 Ry     beta= 0.10
     Davidson diagonalization with overlap
     ethr =  2.64E-06,  avg # of iterations =  2.0

     negative rho (up, down):  1.404E-03 1.331E-03
 
     Adding external electric field

     Computed dipole along edir(3) : 
        Dipole               -0.2575 Ry au,         -0.6544 Debye
        Dipole field         -0.0002 Ry au, 
 
        Potential amp.        0.0173 Ry
        Total length         54.2615 bohr
 
 
     Adding external electric field

     Computed dipole along edir(3) : 
        Dipole               -0.2575 Ry au,         -0.6544 Debye
        Dipole field         -0.0002 Ry au, 
 
        Potential amp.        0.0173 Ry
        Total length         54.2615 bohr
 

     total cpu time spent up to now is      452.6 secs

     total energy              =   -7398.08002990 Ry
     estimated scf accuracy    <       0.04158171 Ry

     total magnetization       =    78.90 Bohr mag/cell
     absolute magnetization    =    80.51 Bohr mag/cell

     iteration # 31     ecut=    50.00 Ry     beta= 0.10
     Davidson diagonalization with overlap
     ethr =  2.64E-06,  avg # of iterations =  2.0

     negative rho (up, down):  4.129E-04 1.265E-04
 
     Adding external electric field

     Computed dipole along edir(3) : 
        Dipole               -0.2903 Ry au,         -0.7379 Debye
        Dipole field         -0.0002 Ry au, 
 
        Potential amp.        0.0195 Ry
        Total length         54.2615 bohr
 
 
     Adding external electric field

     Computed dipole along edir(3) : 
        Dipole               -0.2903 Ry au,         -0.7379 Debye
        Dipole field         -0.0002 Ry au, 
 
        Potential amp.        0.0195 Ry
        Total length         54.2615 bohr
 

     total cpu time spent up to now is      465.2 secs

     total energy              =   -7398.07802710 Ry
     estimated scf accuracy    <       0.03664035 Ry

     total magnetization       =    78.87 Bohr mag/cell
     absolute magnetization    =    80.49 Bohr mag/cell

     iteration # 32     ecut=    50.00 Ry     beta= 0.10
     Davidson diagonalization with overlap
     ethr =  2.64E-06,  avg # of iterations =  2.0

     negative rho (up, down):  1.496E-04 1.857E-05
 
     Adding external electric field

     Computed dipole along edir(3) : 
        Dipole               -0.3282 Ry au,         -0.8341 Debye
        Dipole field         -0.0002 Ry au, 
 
        Potential amp.        0.0220 Ry
        Total length         54.2615 bohr
 
 
     Adding external electric field

     Computed dipole along edir(3) : 
        Dipole               -0.3282 Ry au,         -0.8341 Debye
        Dipole field         -0.0002 Ry au, 
 
        Potential amp.        0.0220 Ry
        Total length         54.2615 bohr
 

     total cpu time spent up to now is      478.2 secs

     total energy              =   -7398.07840049 Ry
     estimated scf accuracy    <       0.02718344 Ry

     total magnetization       =    78.89 Bohr mag/cell
     absolute magnetization    =    80.54 Bohr mag/cell

     iteration # 33     ecut=    50.00 Ry     beta= 0.10
     Davidson diagonalization with overlap
     ethr =  2.52E-06,  avg # of iterations =  2.0

     negative rho (up, down):  1.695E-03 1.369E-03
 
     Adding external electric field

     Computed dipole along edir(3) : 
        Dipole               -0.2305 Ry au,         -0.5858 Debye
        Dipole field         -0.0001 Ry au, 
 
        Potential amp.        0.0155 Ry
        Total length         54.2615 bohr
 
 
     Adding external electric field

     Computed dipole along edir(3) : 
        Dipole               -0.2305 Ry au,         -0.5858 Debye
        Dipole field         -0.0001 Ry au, 
 
        Potential amp.        0.0155 Ry
        Total length         54.2615 bohr
 

     total cpu time spent up to now is      492.2 secs

     total energy              =   -7398.07881953 Ry
     estimated scf accuracy    <       0.02499934 Ry

     total magnetization       =    78.87 Bohr mag/cell
     absolute magnetization    =    80.54 Bohr mag/cell

     iteration # 34     ecut=    50.00 Ry     beta= 0.10
     Davidson diagonalization with overlap
     ethr =  2.32E-06,  avg # of iterations =  3.0

     negative rho (up, down):  1.566E-03 1.248E-03
 
     Adding external electric field

     Computed dipole along edir(3) : 
        Dipole               -0.2410 Ry au,         -0.6127 Debye
        Dipole field         -0.0001 Ry au, 
 
        Potential amp.        0.0162 Ry
        Total length         54.2615 bohr
 
 
     Adding external electric field

     Computed dipole along edir(3) : 
        Dipole               -0.2410 Ry au,         -0.6127 Debye
        Dipole field         -0.0001 Ry au, 
 
        Potential amp.        0.0162 Ry
        Total length         54.2615 bohr
 

     total cpu time spent up to now is      506.7 secs

     total energy              =   -7398.07934786 Ry
     estimated scf accuracy    <       0.03890768 Ry

     total magnetization       =    78.94 Bohr mag/cell
     absolute magnetization    =    80.58 Bohr mag/cell

     iteration # 35     ecut=    50.00 Ry     beta= 0.10
     Davidson diagonalization with overlap
     ethr =  2.32E-06,  avg # of iterations =  1.5

     negative rho (up, down):  2.603E-03 2.248E-03
 
     Adding external electric field

     Computed dipole along edir(3) : 
        Dipole               -0.1874 Ry au,         -0.4764 Debye
        Dipole field         -0.0001 Ry au, 
 
        Potential amp.        0.0126 Ry
        Total length         54.2615 bohr
 
 
     Adding external electric field

     Computed dipole along edir(3) : 
        Dipole               -0.1874 Ry au,         -0.4764 Debye
        Dipole field         -0.0001 Ry au, 
 
        Potential amp.        0.0126 Ry
        Total length         54.2615 bohr
 

     total cpu time spent up to now is      518.2 secs

     total energy              =   -7398.07916653 Ry
     estimated scf accuracy    <       0.03992556 Ry

     total magnetization       =    78.95 Bohr mag/cell
     absolute magnetization    =    80.59 Bohr mag/cell

     iteration # 36     ecut=    50.00 Ry     beta= 0.10
     Davidson diagonalization with overlap
     ethr =  2.32E-06,  avg # of iterations =  2.0

     negative rho (up, down):  3.137E-04 1.951E-04
 
     Adding external electric field

     Computed dipole along edir(3) : 
        Dipole               -0.1596 Ry au,         -0.4057 Debye
        Dipole field         -0.0001 Ry au, 
 
        Potential amp.        0.0107 Ry
        Total length         54.2615 bohr
 
 
     Adding external electric field

     Computed dipole along edir(3) : 
        Dipole               -0.1596 Ry au,         -0.4057 Debye
        Dipole field         -0.0001 Ry au, 
 
        Potential amp.        0.0107 Ry
        Total length         54.2615 bohr
 

     total cpu time spent up to now is      531.0 secs

     total energy              =   -7398.07785058 Ry
     estimated scf accuracy    <       0.04316650 Ry

     total magnetization       =    78.97 Bohr mag/cell
     absolute magnetization    =    80.62 Bohr mag/cell

     iteration # 37     ecut=    50.00 Ry     beta= 0.10
     Davidson diagonalization with overlap
     ethr =  2.32E-06,  avg # of iterations =  3.0

     negative rho (up, down):  3.237E-03 2.961E-03
 
     Adding external electric field

     Computed dipole along edir(3) : 
        Dipole               -0.0065 Ry au,         -0.0165 Debye
        Dipole field         -0.0000 Ry au, 
 
        Potential amp.        0.0004 Ry
        Total length         54.2615 bohr
 
 
     Adding external electric field

     Computed dipole along edir(3) : 
        Dipole               -0.0065 Ry au,         -0.0165 Debye
        Dipole field         -0.0000 Ry au, 
 
        Potential amp.        0.0004 Ry
        Total length         54.2615 bohr
 

     total cpu time spent up to now is      544.8 secs

     total energy              =   -7398.07815141 Ry
     estimated scf accuracy    <       0.02015378 Ry

     total magnetization       =    78.86 Bohr mag/cell
     absolute magnetization    =    80.57 Bohr mag/cell

     iteration # 38     ecut=    50.00 Ry     beta= 0.10
     Davidson diagonalization with overlap
     c_bands:  1 eigenvalues not converged
     ethr =  1.87E-06,  avg # of iterations = 30.0

     negative rho (up, down):  3.057E-03 2.654E-03
 
     Adding external electric field

     Computed dipole along edir(3) : 
        Dipole                0.0273 Ry au,          0.0694 Debye
        Dipole field          0.0000 Ry au, 
 
        Potential amp.       -0.0018 Ry
        Total length         54.2615 bohr
 
 
     Adding external electric field

     Computed dipole along edir(3) : 
        Dipole                0.0273 Ry au,          0.0694 Debye
        Dipole field          0.0000 Ry au, 
 
        Potential amp.       -0.0018 Ry
        Total length         54.2615 bohr
 

     total cpu time spent up to now is      579.6 secs

     total energy              =   -7398.07810860 Ry
     estimated scf accuracy    <       0.00865127 Ry

     total magnetization       =    78.82 Bohr mag/cell
     absolute magnetization    =    80.46 Bohr mag/cell

     iteration # 39     ecut=    50.00 Ry     beta= 0.10
     Davidson diagonalization with overlap
     ethr =  8.03E-07,  avg # of iterations =  2.0

     negative rho (up, down):  4.026E-03 3.535E-03
 
     Adding external electric field

     Computed dipole along edir(3) : 
        Dipole                0.0703 Ry au,          0.1786 Debye
        Dipole field          0.0000 Ry au, 
 
        Potential amp.       -0.0047 Ry
        Total length         54.2615 bohr
 
 
     Adding external electric field

     Computed dipole along edir(3) : 
        Dipole                0.0703 Ry au,          0.1786 Debye
        Dipole field          0.0000 Ry au, 
 
        Potential amp.       -0.0047 Ry
        Total length         54.2615 bohr
 

     total cpu time spent up to now is      592.4 secs

     total energy              =   -7398.07830063 Ry
     estimated scf accuracy    <       0.00630732 Ry

     total magnetization       =    78.82 Bohr mag/cell
     absolute magnetization    =    80.43 Bohr mag/cell

     iteration # 40     ecut=    50.00 Ry     beta= 0.10
     Davidson diagonalization with overlap
     ethr =  5.85E-07,  avg # of iterations =  2.0

     negative rho (up, down):  3.701E-03 3.345E-03
 
     Adding external electric field

     Computed dipole along edir(3) : 
        Dipole                0.0988 Ry au,          0.2512 Debye
        Dipole field          0.0001 Ry au, 
 
        Potential amp.       -0.0066 Ry
        Total length         54.2615 bohr
 
 
     Adding external electric field

     Computed dipole along edir(3) : 
        Dipole                0.0988 Ry au,          0.2512 Debye
        Dipole field          0.0001 Ry au, 
 
        Potential amp.       -0.0066 Ry
        Total length         54.2615 bohr
 

     total cpu time spent up to now is      605.4 secs

     total energy              =   -7398.07862755 Ry
     estimated scf accuracy    <       0.00523281 Ry

     total magnetization       =    78.81 Bohr mag/cell
     absolute magnetization    =    80.41 Bohr mag/cell

     iteration # 41     ecut=    50.00 Ry     beta= 0.10
     Davidson diagonalization with overlap
     ethr =  4.85E-07,  avg # of iterations =  2.0

     negative rho (up, down):  9.756E-04 9.408E-04
 
     Adding external electric field

     Computed dipole along edir(3) : 
        Dipole                0.0824 Ry au,          0.2094 Debye
        Dipole field          0.0001 Ry au, 
 
        Potential amp.       -0.0055 Ry
        Total length         54.2615 bohr
 
 
     Adding external electric field

     Computed dipole along edir(3) : 
        Dipole                0.0824 Ry au,          0.2094 Debye
        Dipole field          0.0001 Ry au, 
 
        Potential amp.       -0.0055 Ry
        Total length         54.2615 bohr
 

     total cpu time spent up to now is      618.2 secs

     total energy              =   -7398.07858415 Ry
     estimated scf accuracy    <       0.00425241 Ry

     total magnetization       =    78.79 Bohr mag/cell
     absolute magnetization    =    80.41 Bohr mag/cell

     iteration # 42     ecut=    50.00 Ry     beta= 0.10
     Davidson diagonalization with overlap
     ethr =  3.94E-07,  avg # of iterations =  2.0

     negative rho (up, down):  3.410E-04 3.336E-04
 
     Adding external electric field

     Computed dipole along edir(3) : 
        Dipole                0.0874 Ry au,          0.2221 Debye
        Dipole field          0.0001 Ry au, 
 
        Potential amp.       -0.0059 Ry
        Total length         54.2615 bohr
 
 
     Adding external electric field

     Computed dipole along edir(3) : 
        Dipole                0.0874 Ry au,          0.2221 Debye
        Dipole field          0.0001 Ry au, 
 
        Potential amp.       -0.0059 Ry
        Total length         54.2615 bohr
 

     total cpu time spent up to now is      631.0 secs

     total energy              =   -7398.07857726 Ry
     estimated scf accuracy    <       0.00239525 Ry

     total magnetization       =    78.74 Bohr mag/cell
     absolute magnetization    =    80.39 Bohr mag/cell

     iteration # 43     ecut=    50.00 Ry     beta= 0.10
     Davidson diagonalization with overlap
     ethr =  2.22E-07,  avg # of iterations =  2.0

     negative rho (up, down):  8.190E-04 9.017E-04
 
     Adding external electric field

     Computed dipole along edir(3) : 
        Dipole                0.0967 Ry au,          0.2457 Debye
        Dipole field          0.0001 Ry au, 
 
        Potential amp.       -0.0065 Ry
        Total length         54.2615 bohr
 
 
     Adding external electric field

     Computed dipole along edir(3) : 
        Dipole                0.0967 Ry au,          0.2457 Debye
        Dipole field          0.0001 Ry au, 
 
        Potential amp.       -0.0065 Ry
        Total length         54.2615 bohr
 

     total cpu time spent up to now is      643.6 secs

     total energy              =   -7398.07847151 Ry
     estimated scf accuracy    <       0.00435318 Ry

     total magnetization       =    78.84 Bohr mag/cell
     absolute magnetization    =    80.50 Bohr mag/cell

     iteration # 44     ecut=    50.00 Ry     beta= 0.10
     Davidson diagonalization with overlap
     ethr =  2.22E-07,  avg # of iterations =  8.0

     negative rho (up, down):  8.301E-04 8.687E-04
 
     Adding external electric field

     Computed dipole along edir(3) : 
        Dipole                0.0930 Ry au,          0.2364 Debye
        Dipole field          0.0001 Ry au, 
 
        Potential amp.       -0.0062 Ry
        Total length         54.2615 bohr
 
 
     Adding external electric field

     Computed dipole along edir(3) : 
        Dipole                0.0930 Ry au,          0.2364 Debye
        Dipole field          0.0001 Ry au, 
 
        Potential amp.       -0.0062 Ry
        Total length         54.2615 bohr
 

     total cpu time spent up to now is      659.2 secs

     total energy              =   -7398.07844559 Ry
     estimated scf accuracy    <       0.00196660 Ry

     total magnetization       =    78.78 Bohr mag/cell
     absolute magnetization    =    80.42 Bohr mag/cell

     iteration # 45     ecut=    50.00 Ry     beta= 0.10
     Davidson diagonalization with overlap
     ethr =  1.82E-07,  avg # of iterations =  1.5

     negative rho (up, down):  1.974E-03 1.999E-03
 
     Adding external electric field

     Computed dipole along edir(3) : 
        Dipole                0.1130 Ry au,          0.2871 Debye
        Dipole field          0.0001 Ry au, 
 
        Potential amp.       -0.0076 Ry
        Total length         54.2615 bohr
 
 
     Adding external electric field

     Computed dipole along edir(3) : 
        Dipole                0.1130 Ry au,          0.2871 Debye
        Dipole field          0.0001 Ry au, 
 
        Potential amp.       -0.0076 Ry
        Total length         54.2615 bohr
 

     total cpu time spent up to now is      670.9 secs

     total energy              =   -7398.07842579 Ry
     estimated scf accuracy    <       0.00150163 Ry

     total magnetization       =    78.76 Bohr mag/cell
     absolute magnetization    =    80.37 Bohr mag/cell

     iteration # 46     ecut=    50.00 Ry     beta= 0.10
     Davidson diagonalization with overlap
     ethr =  1.39E-07,  avg # of iterations =  2.0

     negative rho (up, down):  3.865E-03 3.888E-03
 
     Adding external electric field

     Computed dipole along edir(3) : 
        Dipole                0.1406 Ry au,          0.3575 Debye
        Dipole field          0.0001 Ry au, 
 
        Potential amp.       -0.0094 Ry
        Total length         54.2615 bohr
 
 
     Adding external electric field

     Computed dipole along edir(3) : 
        Dipole                0.1406 Ry au,          0.3575 Debye
        Dipole field          0.0001 Ry au, 
 
        Potential amp.       -0.0094 Ry
        Total length         54.2615 bohr
 

     total cpu time spent up to now is      683.6 secs

     total energy              =   -7398.07853793 Ry
     estimated scf accuracy    <       0.00128160 Ry

     total magnetization       =    78.78 Bohr mag/cell
     absolute magnetization    =    80.36 Bohr mag/cell

     iteration # 47     ecut=    50.00 Ry     beta= 0.10
     Davidson diagonalization with overlap
     ethr =  1.19E-07,  avg # of iterations =  2.0

     negative rho (up, down):  3.639E-03 3.616E-03
 
     Adding external electric field

     Computed dipole along edir(3) : 
        Dipole                0.1483 Ry au,          0.3771 Debye
        Dipole field          0.0001 Ry au, 
 
        Potential amp.       -0.0100 Ry
        Total length         54.2615 bohr
 
 
     Adding external electric field

     Computed dipole along edir(3) : 
        Dipole                0.1483 Ry au,          0.3771 Debye
        Dipole field          0.0001 Ry au, 
 
        Potential amp.       -0.0100 Ry
        Total length         54.2615 bohr
 

     total cpu time spent up to now is      696.7 secs

     total energy              =   -7398.07867153 Ry
     estimated scf accuracy    <       0.00082783 Ry

     total magnetization       =    78.79 Bohr mag/cell
     absolute magnetization    =    80.37 Bohr mag/cell

     iteration # 48     ecut=    50.00 Ry     beta= 0.10
     Davidson diagonalization with overlap
     ethr =  7.68E-08,  avg # of iterations =  2.0

     negative rho (up, down):  2.805E-03 2.718E-03
 
     Adding external electric field

     Computed dipole along edir(3) : 
        Dipole                0.1347 Ry au,          0.3423 Debye
        Dipole field          0.0001 Ry au, 
 
        Potential amp.       -0.0090 Ry
        Total length         54.2615 bohr
 
 
     Adding external electric field

     Computed dipole along edir(3) : 
        Dipole                0.1347 Ry au,          0.3423 Debye
        Dipole field          0.0001 Ry au, 
 
        Potential amp.       -0.0090 Ry
        Total length         54.2615 bohr
 

     total cpu time spent up to now is      709.8 secs

     total energy              =   -7398.07866408 Ry
     estimated scf accuracy    <       0.00050175 Ry

     total magnetization       =    78.79 Bohr mag/cell
     absolute magnetization    =    80.42 Bohr mag/cell

     iteration # 49     ecut=    50.00 Ry     beta= 0.10
     Davidson diagonalization with overlap
     ethr =  4.65E-08,  avg # of iterations =  1.5

     negative rho (up, down):  7.031E-04 4.443E-04
 
     Adding external electric field

     Computed dipole along edir(3) : 
        Dipole                0.1097 Ry au,          0.2787 Debye
        Dipole field          0.0001 Ry au, 
 
        Potential amp.       -0.0074 Ry
        Total length         54.2615 bohr
 
 
     Adding external electric field

     Computed dipole along edir(3) : 
        Dipole                0.1097 Ry au,          0.2787 Debye
        Dipole field          0.0001 Ry au, 
 
        Potential amp.       -0.0074 Ry
        Total length         54.2615 bohr
 

     total cpu time spent up to now is      721.9 secs

     total energy              =   -7398.07864083 Ry
     estimated scf accuracy    <       0.00024789 Ry

     total magnetization       =    78.78 Bohr mag/cell
     absolute magnetization    =    80.44 Bohr mag/cell

     iteration # 50     ecut=    50.00 Ry     beta= 0.10
     Davidson diagonalization with overlap
     ethr =  2.30E-08,  avg # of iterations =  2.0

     negative rho (up, down):  2.933E-04 1.030E-04
 
     Adding external electric field

     Computed dipole along edir(3) : 
        Dipole                0.1001 Ry au,          0.2545 Debye
        Dipole field          0.0001 Ry au, 
 
        Potential amp.       -0.0067 Ry
        Total length         54.2615 bohr
 
 
     Adding external electric field

     Computed dipole along edir(3) : 
        Dipole                0.1001 Ry au,          0.2545 Debye
        Dipole field          0.0001 Ry au, 
 
        Potential amp.       -0.0067 Ry
        Total length         54.2615 bohr
 

     total cpu time spent up to now is      734.6 secs

     total energy              =   -7398.07863564 Ry
     estimated scf accuracy    <       0.00019015 Ry

     total magnetization       =    78.79 Bohr mag/cell
     absolute magnetization    =    80.46 Bohr mag/cell

     iteration # 51     ecut=    50.00 Ry     beta= 0.10
     Davidson diagonalization with overlap
     ethr =  1.76E-08,  avg # of iterations =  1.5

     negative rho (up, down):  8.549E-04 5.622E-04
 
     Adding external electric field

     Computed dipole along edir(3) : 
        Dipole                0.1176 Ry au,          0.2989 Debye
        Dipole field          0.0001 Ry au, 
 
        Potential amp.       -0.0079 Ry
        Total length         54.2615 bohr
 
 
     Adding external electric field

     Computed dipole along edir(3) : 
        Dipole                0.1176 Ry au,          0.2989 Debye
        Dipole field          0.0001 Ry au, 
 
        Potential amp.       -0.0079 Ry
        Total length         54.2615 bohr
 

     total cpu time spent up to now is      746.5 secs

     total energy              =   -7398.07865838 Ry
     estimated scf accuracy    <       0.00012994 Ry

     total magnetization       =    78.78 Bohr mag/cell
     absolute magnetization    =    80.45 Bohr mag/cell

     iteration # 52     ecut=    50.00 Ry     beta= 0.10
     Davidson diagonalization with overlap
     ethr =  1.21E-08,  avg # of iterations =  2.0

     negative rho (up, down):  5.819E-04 2.782E-04
 
     Adding external electric field

     Computed dipole along edir(3) : 
        Dipole                0.1184 Ry au,          0.3008 Debye
        Dipole field          0.0001 Ry au, 
 
        Potential amp.       -0.0079 Ry
        Total length         54.2615 bohr
 
 
     Adding external electric field

     Computed dipole along edir(3) : 
        Dipole                0.1184 Ry au,          0.3008 Debye
        Dipole field          0.0001 Ry au, 
 
        Potential amp.       -0.0079 Ry
        Total length         54.2615 bohr
 

     total cpu time spent up to now is      759.1 secs

     total energy              =   -7398.07866430 Ry
     estimated scf accuracy    <       0.00007388 Ry

     total magnetization       =    78.78 Bohr mag/cell
     absolute magnetization    =    80.45 Bohr mag/cell

     iteration # 53     ecut=    50.00 Ry     beta= 0.10
     Davidson diagonalization with overlap
     ethr =  6.85E-09,  avg # of iterations =  2.0

     negative rho (up, down):  6.216E-04 2.942E-04
 
     Adding external electric field

     Computed dipole along edir(3) : 
        Dipole                0.1233 Ry au,          0.3134 Debye
        Dipole field          0.0001 Ry au, 
 
        Potential amp.       -0.0083 Ry
        Total length         54.2615 bohr
 
 
     Adding external electric field

     Computed dipole along edir(3) : 
        Dipole                0.1233 Ry au,          0.3134 Debye
        Dipole field          0.0001 Ry au, 
 
        Potential amp.       -0.0083 Ry
        Total length         54.2615 bohr
 

     total cpu time spent up to now is      771.6 secs

     total energy              =   -7398.07866900 Ry
     estimated scf accuracy    <       0.00003940 Ry

     total magnetization       =    78.77 Bohr mag/cell
     absolute magnetization    =    80.45 Bohr mag/cell

     iteration # 54     ecut=    50.00 Ry     beta= 0.10
     Davidson diagonalization with overlap
     ethr =  3.65E-09,  avg # of iterations =  2.0

     negative rho (up, down):  8.327E-04 4.935E-04
 
     Adding external electric field

     Computed dipole along edir(3) : 
        Dipole                0.1284 Ry au,          0.3264 Debye
        Dipole field          0.0001 Ry au, 
 
        Potential amp.       -0.0086 Ry
        Total length         54.2615 bohr
 
 
     Adding external electric field

     Computed dipole along edir(3) : 
        Dipole                0.1284 Ry au,          0.3264 Debye
        Dipole field          0.0001 Ry au, 
 
        Potential amp.       -0.0086 Ry
        Total length         54.2615 bohr
 

     total cpu time spent up to now is      784.5 secs

     total energy              =   -7398.07867114 Ry
     estimated scf accuracy    <       0.00001954 Ry

     total magnetization       =    78.77 Bohr mag/cell
     absolute magnetization    =    80.44 Bohr mag/cell

     iteration # 55     ecut=    50.00 Ry     beta= 0.10
     Davidson diagonalization with overlap
     ethr =  1.81E-09,  avg # of iterations =  2.0

     negative rho (up, down):  7.178E-04 3.659E-04
 
     Adding external electric field

     Computed dipole along edir(3) : 
        Dipole                0.1278 Ry au,          0.3247 Debye
        Dipole field          0.0001 Ry au, 
 
        Potential amp.       -0.0086 Ry
        Total length         54.2615 bohr
 
 
     Adding external electric field

     Computed dipole along edir(3) : 
        Dipole                0.1278 Ry au,          0.3247 Debye
        Dipole field          0.0001 Ry au, 
 
        Potential amp.       -0.0086 Ry
        Total length         54.2615 bohr
 

     total cpu time spent up to now is      797.3 secs

     total energy              =   -7398.07867051 Ry
     estimated scf accuracy    <       0.00001076 Ry

     total magnetization       =    78.77 Bohr mag/cell
     absolute magnetization    =    80.43 Bohr mag/cell

     iteration # 56     ecut=    50.00 Ry     beta= 0.10
     Davidson diagonalization with overlap
     ethr =  9.98E-10,  avg # of iterations =  4.0

     negative rho (up, down):  7.947E-04 4.361E-04
 
     Adding external electric field

     Computed dipole along edir(3) : 
        Dipole                0.1301 Ry au,          0.3306 Debye
        Dipole field          0.0001 Ry au, 
 
        Potential amp.       -0.0087 Ry
        Total length         54.2615 bohr
 
 
     Adding external electric field

     Computed dipole along edir(3) : 
        Dipole                0.1301 Ry au,          0.3306 Debye
        Dipole field          0.0001 Ry au, 
 
        Potential amp.       -0.0087 Ry
        Total length         54.2615 bohr
 

     total cpu time spent up to now is      811.2 secs

     total energy              =   -7398.07867147 Ry
     estimated scf accuracy    <       0.00000677 Ry

     total magnetization       =    78.77 Bohr mag/cell
     absolute magnetization    =    80.43 Bohr mag/cell

     iteration # 57     ecut=    50.00 Ry     beta= 0.10
     Davidson diagonalization with overlap
     ethr =  6.28E-10,  avg # of iterations =  2.0

     negative rho (up, down):  8.765E-04 5.177E-04
 
     Adding external electric field

     Computed dipole along edir(3) : 
        Dipole                0.1317 Ry au,          0.3347 Debye
        Dipole field          0.0001 Ry au, 
 
        Potential amp.       -0.0088 Ry
        Total length         54.2615 bohr
 
 
     Adding external electric field

     Computed dipole along edir(3) : 
        Dipole                0.1317 Ry au,          0.3347 Debye
        Dipole field          0.0001 Ry au, 
 
        Potential amp.       -0.0088 Ry
        Total length         54.2615 bohr
 

     total cpu time spent up to now is      823.8 secs

     total energy              =   -7398.07867206 Ry
     estimated scf accuracy    <       0.00000543 Ry

     total magnetization       =    78.77 Bohr mag/cell
     absolute magnetization    =    80.43 Bohr mag/cell

     iteration # 58     ecut=    50.00 Ry     beta= 0.10
     Davidson diagonalization with overlap
     ethr =  5.03E-10,  avg # of iterations =  1.5

     negative rho (up, down):  8.593E-04 4.955E-04
 
     Adding external electric field

     Computed dipole along edir(3) : 
        Dipole                0.1313 Ry au,          0.3337 Debye
        Dipole field          0.0001 Ry au, 
 
        Potential amp.       -0.0088 Ry
        Total length         54.2615 bohr
 
 
[...]
    -6.0017  -5.9829  -5.9699  -5.9566  -5.9469  -5.8992  -5.8585  -5.8510
    -5.8272  -5.8197  -5.7992  -5.7793  -5.7690  -5.7363  -5.7129  -5.6956
    -5.6937  -5.6734  -5.6568  -5.6524  -5.6281  -5.6103  -5.5723  -5.5345
    -5.5078  -5.4726  -5.4437  -5.4235  -5.4144  -5.3917  -5.3611  -5.2953
    -5.2748  -5.2554  -5.2426  -5.2321  -5.1489  -5.1216  -5.1092  -5.0734
    -5.0443  -5.0042  -4.9846  -4.9709  -4.9344  -4.9237  -4.8934  -4.8715
    -4.8181  -4.7966  -4.7477  -4.7386  -4.7097  -4.6983  -4.6652  -4.5913
    -4.5394  -4.5262  -4.5205  -4.4925  -4.4863  -4.4603  -4.4067  -4.3856
    -4.3753  -4.3144  -4.2586  -4.2261  -4.1940  -4.1793  -4.1501  -4.1388
    -4.0876  -4.0589  -4.0333  -4.0193  -3.9913  -3.9600  -3.9428  -3.9253
    -3.9215  -3.8818  -3.8445  -3.8264  -3.8160  -3.7674  -3.7450  -3.7415
    -3.7248  -3.6971  -3.6799  -3.6745  -3.6656  -3.6393  -3.6378  -3.6173
    -3.5676  -3.5465  -3.5402  -3.5164  -3.5101  -3.5054  -3.4722  -3.4663
    -3.4547  -3.4145  -3.3944  -3.3779  -3.3541  -3.3457  -3.3011  -3.2834
    -3.2762  -3.2453  -3.2207  -3.2058  -3.1968  -3.1795  -3.1676  -3.1586
    -3.1234  -3.1131  -3.0785  -3.0488  -3.0421  -3.0211  -3.0141  -2.9660
    -2.9572  -2.9331  -2.9286  -2.9011  -2.8721  -2.8548  -2.8362  -2.8131
    -2.8007  -2.7872  -2.7859  -2.7771  -2.7714  -2.7603  -2.7512  -2.7371
    -2.7141  -2.6988  -2.6771  -2.6700  -2.6454  -2.6390  -2.6143  -2.5997
    -2.5799  -2.5718  -2.5401  -2.5208  -2.5053  -2.5042  -2.4821  -2.4662
    -2.4323  -2.4322  -2.4094  -2.4073  -2.3636  -2.3552  -2.3208  -2.3194
    -2.2936  -2.2647  -2.2521  -2.2332  -2.2103  -2.2054  -2.1771  -2.1498
    -2.1457  -2.1258  -2.0990  -2.0847  -2.0688  -2.0620  -2.0341  -2.0061
    -2.0041  -1.9932  -1.9821  -1.9643  -1.9333  -1.9237  -1.9078  -1.8843
    -1.8621  -1.8457  -1.8140  -1.8076  -1.8040  -1.7718  -1.7526  -1.7316
    -1.7135  -1.6860  -1.6818  -1.6603  -1.6417  -1.6141  -1.5688  -1.5601
    -1.5559  -1.5413  -1.5123  -1.5017  -1.4792  -1.4571  -1.4477  -1.4282
    -1.4259  -1.3931  -1.3606  -1.3307  -1.3175  -1.3029  -1.2827  -1.2492
    -1.2055  -1.1840  -1.1149  -1.1041  -1.0039  -0.9861  -0.9004  -0.8652
    -0.8430  -0.8059  -0.7096  -0.5524  -0.5385  -0.4102  -0.3397  -0.2351
     0.0888   0.1123   0.1386   0.1791   0.2098   0.2171   0.2288   0.2343
     0.2592   0.2729   0.2849   0.2938   0.3006   0.3029   0.3259   0.3327
     0.3365   0.3456   0.3524   0.3625   0.3673   0.3815   0.3851   0.3918
     0.4005   0.4038   0.4077   0.4136   0.4257   0.4308   0.4330   0.4406
     0.4476   0.4643   0.4684   0.4722   0.4754   0.4821   0.4853   0.4917
     0.5086   0.5179   0.5216   0.5237   0.5294   0.5388   0.5430   0.5542
     0.5633   0.5746   0.5863   0.5884   0.5992   0.6009   0.6098   0.6180
     0.6243   0.6297   0.6358   0.6405   0.6525   0.6549   0.6615   0.6669
     0.6762   0.6822   0.7024   0.7089   0.7177   0.7267   0.7276   0.7282
     0.7313   0.7468   0.7500   0.7734   0.7822   0.7916   0.7994   0.8110
     0.8115   0.8240   0.8246   0.8383   0.8457   0.8512   0.8594   0.8740
     0.8756   0.8950   0.8985   0.9203   0.9226   0.9433   0.9579   0.9804
     0.9948   1.1050   1.1388   1.6532   1.6616   1.6669   1.6951   1.6963
     1.7165   1.7190   1.8098   1.8322   1.8610   1.8804   1.9221   1.9273
     1.9471   1.9764   1.9969   2.0008   2.0285   2.0467   2.0533   2.0849
     2.1066   2.1140   2.1488   2.1662   2.1763   2.1890   2.2170   2.2225
     2.2267   2.2424   2.2457   2.2670   2.2782   2.2854   2.3035   2.3145
     2.3225   2.3319   2.3370   2.3610   2.3711   2.3922   2.4067   2.4192
     2.4442   2.4452   2.4716   2.4779   2.5017   2.5071   2.5203   2.5510
     2.5637   2.5730   2.5912   2.6280   2.6586   2.7007   2.7165   2.7756
     2.7805   2.7939   2.8291   2.8522   2.8923   3.2635   3.4492   3.7058
     3.7699   3.8465   3.9153   3.9818   4.0059   4.0723   4.3234   4.4208
     4.6197   4.7463   4.8618   4.8915   4.9330   5.0234   5.3796   6.2863
     6.3331   6.4824   6.5616   6.6497   6.7101   6.8034   6.8124   6.8577
     7.0024   7.0309   7.0928   7.1125   7.2870   7.3378   7.3430   7.3756
     7.5007   7.5838   7.6241   7.6613   7.6939   7.6973   7.7832   7.8151
     7.8647   7.9085   7.9346   7.9493   7.9796   7.9959   8.0495   8.0762
     8.0950   8.1163   8.1514   8.1954   8.2354   8.2488   8.2713   8.3008
     8.3136   8.3426   8.3841   8.4337   8.4565   8.4663   8.4980   8.5164
     8.5348   8.5441   8.5520   8.5769   8.6090   8.6305   8.6349   8.6629
     8.6941   8.7134   8.7327   8.7838   8.8115   8.8307   8.8463

     the Fermi energy is     1.5518 ev

!    total energy              =   -7398.07867182 Ry
     estimated scf accuracy    <       0.00000060 Ry
     smearing contrib. (-TS)   =      -0.01380479 Ry
     internal energy E=F+TS    =   -7398.06486703 Ry

     The total energy is F=E-TS. E is the sum of the following terms:
     one-electron contribution =  -91725.49029220 Ry
     hartree contribution      =   46509.45306161 Ry
     xc contribution           =   -2260.23086059 Ry
     ewald contribution        =   40080.03613235 Ry
     Dispersion Correction     =      -1.83291858 Ry
     electric field correction =       0.00001038 Ry

     total magnetization       =    78.77 Bohr mag/cell
     absolute magnetization    =    80.43 Bohr mag/cell

     convergence has been achieved in  61 iterations

     negative rho (up, down):  9.270E-04 5.559E-04

     Forces acting on atoms (cartesian axes, Ry/au):

     atom    1 type  2   force =     0.00358134   -0.00078885   -0.00417569
     atom    2 type  1   force =     0.00002947    0.00008914   -0.00037366
     atom    3 type  1   force =     0.00005157   -0.00090065   -0.00051137
     atom    4 type  1   force =    -0.00010646    0.00013435    0.00009126
     atom    5 type  1   force =    -0.00018641   -0.00004132   -0.00009757
     atom    6 type  1   force =     0.00014347   -0.00071240   -0.00020991
     atom    7 type  1   force =    -0.00053621   -0.00011843   -0.00042898
     atom    8 type  1   force =    -0.00033652   -0.00007550   -0.00071090
     atom    9 type  1   force =    -0.00025472    0.00043424   -0.00071179
     atom   10 type  1   force =    -0.00051287    0.00022253   -0.00027997
     atom   11 type  1   force =    -0.00057280    0.00036894   -0.00090442
     atom   12 type  1   force =    -0.00003191    0.00002714   -0.00127511
     atom   13 type  3   force =    -0.00037790   -0.00013611   -0.00022748
     atom   14 type  3   force =    -0.00012625    0.00000088   -0.00054150
     atom   15 type  3   force =     0.00003066   -0.00020688   -0.00037366
     atom   16 type  3   force =     0.00001689   -0.00002031   -0.00015054
     atom   17 type  4   force =     0.00004901   -0.00018939    0.00020267
     atom   18 type  4   force =     0.00052015   -0.00029808    0.00005878
     atom   19 type  4   force =     0.00026535   -0.00046695    0.00078224
     atom   20 type  4   force =    -0.00007878    0.00041837    0.00021912
     atom   21 type  4   force =    -0.00020581    0.00029145    0.00012127
     atom   22 type  4   force =    -0.00016727    0.00029928   -0.00014904
     atom   23 type  4   force =     0.00013612   -0.00045674   -0.00079780
     atom   24 type  4   force =     0.00006539    0.00001883    0.00028919
     atom   25 type  4   force =    -0.00024742    0.00000505    0.00013858
     atom   26 type  4   force =     0.00084496    0.00000796   -0.00019294
     atom   27 type  4   force =     0.00006840    0.00038741    0.00003473
     atom   28 type  4   force =    -0.00020085   -0.00002999   -0.00030850
     atom   29 type  4   force =    -0.00017000   -0.00035753    0.00016923
     atom   30 type  4   force =    -0.00050870   -0.00013482   -0.00019556
     atom   31 type  4   force =    -0.00008000    0.00002831   -0.00031168
     atom   32 type  4   force =    -0.00025380    0.00020419   -0.00052973
     atom   33 type  3   force =     0.00071544    0.00006497    0.00040328
     atom   34 type  3   force =    -0.00000922   -0.00007831   -0.00009546
     atom   35 type  3   force =     0.00013763    0.00000607   -0.00001500
     atom   36 type  3   force =    -0.00030313   -0.00005822   -0.00029919
     atom   37 type  4   force =     0.00011674    0.00009761   -0.00001244
     atom   38 type  4   force =    -0.00000195    0.00033934    0.00011860
     atom   39 type  4   force =    -0.00017659   -0.00000790    0.00017166
     atom   40 type  4   force =    -0.00026474   -0.00007589   -0.00040220
     atom   41 type  4   force =     0.00010449   -0.00006787    0.00001657
     atom   42 type  4   force =     0.00051050    0.00096717    0.00058190
     atom   43 type  4   force =     0.00033918    0.00004178    0.00025917
     atom   44 type  4   force =    -0.00005460   -0.00013849    0.00001488
     atom   45 type  4   force =    -0.00021258   -0.00013725   -0.00021856
     atom   46 type  4   force =     0.00051776   -0.00020626    0.00006520
     atom   47 type  4   force =     0.00011439   -0.00029483    0.00012654
     atom   48 type  4   force =     0.00042335    0.00047648   -0.00019658
     atom   49 type  4   force =     0.00015257   -0.00004184   -0.00033197
     atom   50 type  4   force =    -0.00026720    0.00003334    0.00015254
     atom   51 type  4   force =     0.00011208   -0.00033828   -0.00002102
     atom   52 type  4   force =    -0.00003101   -0.00030577   -0.00013684
     atom   53 type  2   force =     0.00255082   -0.00355211    0.00533476
     atom   54 type  1   force =     0.00503208   -0.00206389    0.00409696
     atom   55 type  1   force =     0.00812441   -0.00308624    0.00273654
     atom   56 type  1   force =    -0.00193109    0.01018114    0.00620881
     atom   57 type  1   force =     0.00033656    0.02283931    0.01493201
     atom   58 type  1   force =     0.00215824   -0.00310687   -0.00128216
     atom   59 type  1   force =     0.00088424   -0.00891533    0.00124558
     atom   60 type  1   force =    -0.00516459   -0.00176821    0.00496218
     atom   61 type  1   force =    -0.00192555   -0.00048039    0.00439696
     atom   62 type  1   force =    -0.00440440    0.00820954    0.00612938
     atom   63 type  1   force =    -0.01144530    0.02559682    0.01885843
     atom   64 type  1   force =    -0.00203837    0.00140826    0.00171918
     atom   65 type  3   force =     0.04621708   -0.11393334   -0.01058051
     atom   66 type  3   force =    -0.00057022   -0.00146438    0.00423515
     atom   67 type  3   force =    -0.03975504    0.12467272    0.01504765
     atom   68 type  3   force =     0.06274301   -0.00163288   -0.00332462
     atom   69 type  4   force =     0.01387863   -0.01824799    0.00357078
     atom   70 type  4   force =    -0.00062910    0.00259106   -0.00103588
     atom   71 type  4   force =    -0.00125667    0.00352423   -0.00539394
     atom   72 type  4   force =     0.00403154    0.00186835   -0.00072639
     atom   73 type  4   force =     0.00096703   -0.01151636    0.00277240
     atom   74 type  4   force =    -0.00009523   -0.00078944   -0.00029047
     atom   75 type  4   force =     0.00132056    0.01454906    0.00505882
     atom   76 type  4   force =     0.00835061    0.00520712    0.00928930
     atom   77 type  4   force =     0.00705884   -0.00269307    0.00162470
     atom   78 type  4   force =     0.04453986   -0.14161543   -0.00649740
     atom   79 type  4   force =     0.00182790    0.00192208    0.00146338
     atom   80 type  4   force =     0.00010327    0.00290811   -0.00163390
     atom   81 type  4   force =     0.06778556    0.00049483   -0.00647417
     atom   82 type  4   force =    -0.00001798    0.00088097   -0.00149540
     atom   83 type  4   force =    -0.03918038    0.13483032    0.00274332
     atom   84 type  4   force =    -0.00301710   -0.01100239   -0.00409536
     atom   85 type  3   force =     0.03994510   -0.12018674   -0.01825967
     atom   86 type  3   force =    -0.06404594    0.00009518    0.00870940
     atom   87 type  3   force =    -0.04514598    0.12430398    0.01709898
     atom   88 type  3   force =    -0.00169256    0.00015504    0.00259496
     atom   89 type  4   force =     0.00907946   -0.01516879    0.00383263
     atom   90 type  4   force =    -0.00481933    0.00141276    0.00008368
     atom   91 type  4   force =    -0.00895376    0.00818455   -0.00575304
     atom   92 type  4   force =     0.00006618    0.00016969   -0.00062249
     atom   93 type  4   force =    -0.00173083   -0.00832856    0.00751662
     atom   94 type  4   force =    -0.00398377    0.00011675    0.00099540
     atom   95 type  4   force =    -0.00382580    0.01397124    0.00651728
     atom   96 type  4   force =     0.00415304    0.00516222    0.00968573
     atom   97 type  4   force =    -0.00003374    0.00028619    0.00074345
     atom   98 type  4   force =     0.04015494   -0.14056779   -0.00493785
     atom   99 type  4   force =    -0.06667295    0.00000513    0.00640496
     atom  100 type  4   force =    -0.00156039    0.00403862   -0.00239805
     atom  101 type  4   force =     0.00001618    0.00072229   -0.00079298
     atom  102 type  4   force =    -0.00624528    0.00394457   -0.00138263
     atom  103 type  4   force =    -0.04021923    0.13339741    0.00439184
     atom  104 type  4   force =    -0.00707464   -0.00987129   -0.00512378
     atom  105 type  2   force =     0.00415247   -0.00654030   -0.01780232
     atom  106 type  1   force =     0.02819748    0.01433709    0.01162692
     atom  107 type  1   force =     0.00873365   -0.00613304   -0.01395855
     atom  108 type  1   force =    -0.02844071    0.02165939    0.01863661
     atom  109 type  1   force =     0.00510826    0.01605288    0.00946046
     atom  110 type  1   force =    -0.00256919   -0.00872654   -0.00673719
     atom  111 type  1   force =    -0.00087476   -0.00951070   -0.01126637
     atom  112 type  1   force =     0.02925181    0.01761266    0.01136686
     atom  113 type  1   force =    -0.00073823   -0.00500803   -0.01379088
     atom  114 type  1   force =    -0.02969490    0.02074163    0.01840747
     atom  115 type  1   force =    -0.00723146    0.01846759    0.01219697
     atom  116 type  1   force =    -0.00556755   -0.00431170   -0.00291820
     atom  117 type  3   force =     0.01422655   -0.17391076   -0.10882333
     atom  118 type  3   force =     0.00517885   -0.00850674   -0.01261819
     atom  119 type  3   force =    -0.04466223    0.12489311   -0.00190379
     atom  120 type  3   force =     0.09507850   -0.04106221   -0.07975262
     atom  121 type  4   force =     0.00611563   -0.01708074    0.03722686
     atom  122 type  4   force =    -0.00353183    0.00375611    0.00449802
     atom  123 type  4   force =    -0.00084266    0.00259557   -0.00285878
     atom  124 type  4   force =     0.00850864    0.00215265    0.02702459
     atom  125 type  4   force =     0.00987795   -0.01690604    0.01594109
     atom  126 type  4   force =    -0.00748399    0.00098356   -0.00307427
     atom  127 type  4   force =     0.00398167    0.00969573    0.00052717
     atom  128 type  4   force =    -0.00061763   -0.00110647    0.03014774
     atom  129 type  4   force =    -0.00764618    0.02555122    0.00119863
     atom  130 type  4   force =     0.04339934   -0.14589840   -0.00187099
     atom  131 type  4   force =    -0.01745641   -0.00038778    0.00287147
     atom  132 type  4   force =     0.00337090    0.00265567    0.00204028
     atom  133 type  4   force =     0.06970676    0.00367308   -0.00188151
     atom  134 type  4   force =     0.00093128    0.00361981    0.00275634
     atom  135 type  4   force =    -0.02757297    0.17227100    0.00606814
     atom  136 type  4   force =     0.01961514   -0.00862003    0.00402980
     atom  137 type  3   force =     0.00908885   -0.16687421   -0.09427591
     atom  138 type  3   force =    -0.06464675   -0.00209090   -0.00495070
     atom  139 type  3   force =    -0.04873163    0.11822318    0.00150562
     atom  140 type  3   force =     0.03145043   -0.04324742   -0.07372004
     atom  141 type  4   force =     0.00465091   -0.01331857    0.03216721
     atom  142 type  4   force =    -0.00544490   -0.00031414    0.00431150
     atom  143 type  4   force =    -0.00819028    0.00812869   -0.00352902
     atom  144 type  4   force =     0.00385409    0.00134784    0.02761814
     atom  145 type  4   force =     0.00689399   -0.01301928    0.03232200
     atom  146 type  4   force =    -0.00873706   -0.00177850   -0.00302158
     atom  147 type  4   force =     0.00033295    0.00989974    0.00273618
     atom  148 type  4   force =    -0.00790251    0.00119696    0.02906108
     atom  149 type  4   force =    -0.01315552    0.02946427    0.00050810
     atom  150 type  4   force =     0.03980833   -0.13833814   -0.00135504
     atom  151 type  4   force =    -0.08621330   -0.00173639    0.00916601
     atom  152 type  4   force =     0.00117911    0.00389191    0.00146864
     atom  153 type  4   force =    -0.00352068    0.00085242    0.00300202
     atom  154 type  4   force =    -0.00591255    0.00596513    0.00135630
     atom  155 type  4   force =    -0.02798655    0.16648564    0.00484732
     atom  156 type  4   force =     0.01059011   -0.00972258   -0.00136141
     atom  157 type  4   force =    -0.01625970   -0.00470767    0.00555334
     atom  158 type  5   force =     0.01168739    0.00674469   -0.00190899

     Total force =     0.671089     Total SCF correction =     0.004257
 
     init_run     :      7.75s CPU      8.45s WALL (       1 calls)
     electrons    :    820.92s CPU    861.17s WALL (       1 calls)
     forces       :      4.15s CPU      4.56s WALL (       1 calls)
     force_london :      0.10s CPU      0.10s WALL (       1 calls)

     Called by init_run:
     wfcinit      :      4.43s CPU      4.60s WALL (       1 calls)
     potinit      :      0.79s CPU      1.01s WALL (       1 calls)
     hinit0       :      1.22s CPU      1.33s WALL (       1 calls)

     Called by electrons:
     c_bands      :    650.43s CPU    671.29s WALL (      61 calls)
     sum_band     :    107.97s CPU    118.34s WALL (      61 calls)
     v_of_rho     :     12.69s CPU     13.67s WALL (      62 calls)
     newd         :     33.13s CPU     41.26s WALL (      62 calls)
     mix_rho      :     16.50s CPU     16.63s WALL (      61 calls)
     energy_londo :      0.08s CPU      0.08s WALL (       1 calls)

     Called by c_bands:
     init_us_2    :      2.36s CPU      2.41s WALL (     248 calls)
     init_us_2:cp :      2.36s CPU      2.41s WALL (     248 calls)
     regterg      :    636.77s CPU    657.43s WALL (     126 calls)

     Called by *egterg:
     rdiaghg      :    174.70s CPU    184.50s WALL (     528 calls)
     h_psi        :    249.00s CPU    253.71s WALL (     530 calls)
     s_psi        :     50.51s CPU     50.56s WALL (     530 calls)
     g_psi        :      0.33s CPU      0.34s WALL (     402 calls)

     Called by h_psi:
     h_psi:calbec :     65.77s CPU     69.85s WALL (     530 calls)
     vloc_psi     :    130.36s CPU    130.92s WALL (     530 calls)
     add_vuspsi   :     52.00s CPU     52.05s WALL (     530 calls)

     General routines
     calbec       :     96.46s CPU    102.63s WALL (     660 calls)
     fft          :     14.06s CPU     15.39s WALL (    1129 calls)
     ffts         :      9.59s CPU      9.64s WALL (    7565 calls)
     fftw         :    142.89s CPU    143.49s WALL (  210352 calls)
     interpolate  :      1.08s CPU      1.17s WALL (     124 calls)
 
     Parallel routines
 
     PWSCF        :  13m55.03s CPU  14m36.69s WALL

 
   This run was terminated on:  19:19:49  19Nov2025            

=------------------------------------------------------------------------------=
   JOB DONE.
=------------------------------------------------------------------------------=
