
     Program PWSCF v.7.2 starts on 19Nov2025 at 22: 3:57 

     This program is part of the open-source Quantum ESPRESSO suite
     for quantum simulation of materials; please cite
         "P. Giannozzi et al., J. Phys.:Condens. Matter 21 395502 (2009);
         "P. Giannozzi et al., J. Phys.:Condens. Matter 29 465901 (2017);
         "P. Giannozzi et al., J. Chem. Phys. 152 154105 (2020);
          URL http://www.quantum-espresso.org", 
     in publications or presentations arising from this work. More details at
     http://www.quantum-espresso.org/quote

     Parallel version (MPI), running on    64 processors

     MPI processes distributed on     4 nodes
     385073 MiB available memory on the printing compute node when the environment starts
 
     Reading input from PWINPUT_atm158_zm

     Current dimensions of program PWSCF are:
     Max number of different atomic species (ntypx) = 10
     Max number of k-points (npk) =  40000
     Max angular momentum in pseudopotentials (lmaxx) =  4
     Presently no symmetry can be used with electric field

     file Ni.pbe-n-rrkjus_psl.1.0.0.UPF: wavefunction(s)  3D renormalized
     file Mn.pbe-spn-rrkjus_psl.0.3.1.UPF: wavefunction(s)  3D renormalized
     file O.pbe-rrkjus.UPF: wavefunction(s)  2S renormalized
     file H.pbe-rrkjus.UPF: wavefunction(s)  1S renormalized

     gamma-point specific algorithms are used
 
     R & G space division:  proc/nbgrp/npool/nimage =      64
     Subspace diagonalization in iterative solution of the eigenvalue problem:
     one sub-group per band group will be used
     custom distributed-memory algorithm (size of sub-group:  6*  6 procs)

 
     Parallelization info
     --------------------
     sticks:   dense  smooth     PW     G-vecs:    dense   smooth      PW
     Min         208      82     20                59912    15118    1876
     Max         210      84     22                59974    15196    1926
     Sum       13399    5355   1345              3836275   970529  121367
 
     Using Slab Decomposition
 


     bravais-lattice index     =            0
     lattice parameter (alat)  =      17.7004  a.u.
     unit-cell volume          =   20319.7251 (a.u.)^3
     number of atoms/cell      =          158
     number of atomic types    =            5
     number of electrons       =      1078.00
     number of Kohn-Sham states=          647
     kinetic-energy cutoff     =      50.0000  Ry
     charge density cutoff     =     500.0000  Ry
     scf convergence threshold =      1.0E-06
     mixing beta               =       0.1000
     number of iterations used =            8  local-TF  mixing
     Exchange-correlation=  SLA  PW   PBE  PBE
                           (   1   4   3   4   0   0   0)

     celldm(1)=  17.700384  celldm(2)=   0.000000  celldm(3)=   0.000000
     celldm(4)=   0.000000  celldm(5)=   0.000000  celldm(6)=   0.000000

     crystal axes: (cart. coord. in units of alat)
               a(1) = (   1.000000   0.000000   0.000000 )  
               a(2) = (   0.000000   1.075730   0.000000 )  
               a(3) = (   0.000000   0.000000   3.406172 )  

     reciprocal axes: (cart. coord. in units 2 pi/alat)
               b(1) = (  1.000000  0.000000  0.000000 )  
               b(2) = (  0.000000  0.929602  0.000000 )  
               b(3) = (  0.000000  0.000000  0.293585 )  


     PseudoPot. # 1 for Ni read from file:
     ~/PSEUDO/Ni.pbe-n-rrkjus_psl.1.0.0.UPF
     MD5 check sum: Not computed, couldn't open file
     Pseudo is Ultrasoft + core correction, Zval = 10.0
     Generated using "atomic" code by A. Dal Corso  v.5.1.2
     Using radial grid of 1195 points,  6 beta functions with: 
                l(1) =   0
                l(2) =   0
                l(3) =   1
                l(4) =   1
                l(5) =   2
                l(6) =   2
     Q(r) pseudized with 0 coefficients 


     PseudoPot. # 2 for Mn read from file:
     ~/PSEUDO/Mn.pbe-spn-rrkjus_psl.0.3.1.UPF
     MD5 check sum: Not computed, couldn't open file
     Pseudo is Ultrasoft + core correction, Zval = 15.0
     Generated using &quot;atomic&quot; code by A. Dal Corso  v.6.2.2
     Using radial grid of 1187 points,  6 beta functions with: 
                l(1) =   0
                l(2) =   0
                l(3) =   1
                l(4) =   1
                l(5) =   2
                l(6) =   2
     Q(r) pseudized with 0 coefficients 


     PseudoPot. # 3 for P  read from file:
     ~/PSEUDO/P.pbe-n-rrkjus_psl.1.0.0.UPF
     MD5 check sum: Not computed, couldn't open file
     Pseudo is Ultrasoft + core correction, Zval =  5.0
     Generated using "atomic" code by A. Dal Corso  v.5.1
     Using radial grid of 1147 points,  6 beta functions with: 
                l(1) =   0
                l(2) =   0
                l(3) =   1
                l(4) =   1
                l(5) =   2
                l(6) =   2
     Q(r) pseudized with 0 coefficients 


     PseudoPot. # 4 for O  read from file:
     ~/PSEUDO/O.pbe-rrkjus.UPF
     MD5 check sum: Not computed, couldn't open file
     Pseudo is Ultrasoft, Zval =  6.0
     Generated by new atomic code, or converted to UPF format
     Using radial grid of 1269 points,  4 beta functions with: 
                l(1) =   0
                l(2) =   0
                l(3) =   1
                l(4) =   1
     Q(r) pseudized with 0 coefficients 


     PseudoPot. # 5 for H  read from file:
     ~/PSEUDO/H.pbe-rrkjus.UPF
     MD5 check sum: Not computed, couldn't open file
     Pseudo is Ultrasoft, Zval =  1.0
     Generated by new atomic code, or converted to UPF format
     Using radial grid of 1061 points,  2 beta functions with: 
                l(1) =   0
                l(2) =   0
     Q(r) pseudized with 0 coefficients 


     atomic species   valence    mass     pseudopotential
     Ni               10.00    58.69300     Ni( 1.00)
     Mn               15.00    54.93800     Mn( 1.00)
     P                 5.00    30.97300     P ( 1.00)
     O                 6.00    15.99900     O ( 1.00)
     H                 1.00     1.00790     H ( 1.00)

     Starting magnetic structure 
     atomic species   magnetization
     Ni              1.000
     Mn              1.000
     P               1.000
     O               1.000
     H               0.000

     No symmetry found



   Cartesian axes

     site n.     atom                  positions (alat units)
         1        Mn     tau(   1) = (   0.2517087   0.8371115   1.7089200  )
         2        Ni     tau(   2) = (   0.4946298   0.7752973   1.3725824  )
         3        Ni     tau(   3) = (   0.0015481   0.2961171   1.6749872  )
         4        Ni     tau(   4) = (   0.2613521   0.2396234   1.3678359  )
         5        Ni     tau(   5) = (   0.9984933   1.0749377   1.5355607  )
         6        Ni     tau(   6) = (   0.2572590   0.5404195   1.5326386  )
         7        Ni     tau(   7) = (   0.7529013   0.8355294   1.6752854  )
         8        Ni     tau(   8) = (   0.9935933   0.7756548   1.3720141  )
         9        Ni     tau(   9) = (   0.5024742   0.2964342   1.6745479  )
        10        Ni     tau(  10) = (   0.7618978   0.2375431   1.3667264  )
        11        Ni     tau(  11) = (   0.4990156   1.0768182   1.5305295  )
        12        Ni     tau(  12) = (   0.7564696   0.5358840   1.5310064  )
        13        P      tau(  13) = (   0.2101543   0.9720156   1.3797127  )
        14        P      tau(  14) = (   0.4706542   0.6451455   1.6955617  )
        15        P      tau(  15) = (   0.2884324   0.1127271   1.6923494  )
        16        P      tau(  16) = (   0.0456337   0.4340918   1.3707912  )
        17        O      tau(  17) = (   0.1335059   0.8997101   1.5140650  )
        18        O      tau(  18) = (   0.3867827   0.7182378   1.5594019  )
        19        O      tau(  19) = (   0.3670053   0.1737862   1.5463102  )
        20        O      tau(  20) = (   0.1240237   0.3636575   1.5070371  )
        21        O      tau(  21) = (   0.1473160   0.8837944   1.2542796  )
        22        O      tau(  22) = (   0.4146853   0.7340483   1.8196848  )
        23        O      tau(  23) = (   0.3495356   0.2093518   1.8074273  )
        24        O      tau(  24) = (   0.1052584   0.3464292   1.2439881  )
        25        O      tau(  25) = (   0.1049117   0.5895470   1.3757347  )
        26        O      tau(  26) = (   0.3473708   1.0308751   1.6857652  )
        27        O      tau(  27) = (   0.3810036   0.4281764   1.3825697  )
        28        O      tau(  28) = (   0.1238775   0.1159040   1.6775620  )
        29        O      tau(  29) = (   0.1305439   0.6501957   1.6820985  )
        30        O      tau(  30) = (   0.4132477   0.4886172   1.6862595  )
        31        O      tau(  31) = (   0.1524630   0.0515712   1.3799009  )
        32        O      tau(  32) = (   0.3743678   0.9633656   1.3849747  )
        33        P      tau(  33) = (   0.7103643   0.9714602   1.3712571  )
        34        P      tau(  34) = (   0.9649208   0.6440558   1.6927385  )
        35        P      tau(  35) = (   0.7871885   0.1098825   1.6920406  )
        36        P      tau(  36) = (   0.5450176   0.4335131   1.3702334  )
        37        O      tau(  37) = (   0.6319749   0.9002438   1.5073571  )
        38        O      tau(  38) = (   0.8891581   0.7073457   1.5481759  )
        39        O      tau(  39) = (   0.8662231   0.1700413   1.5462886  )
        40        O      tau(  40) = (   0.6235591   0.3611085   1.5054814  )
        41        O      tau(  41) = (   0.6491843   0.8831538   1.2455076  )
        42        O      tau(  42) = (   0.9034437   0.7399336   1.8095699  )
        43        O      tau(  43) = (   0.8478548   0.2077401   1.8063738  )
        44        O      tau(  44) = (   0.6060435   0.3462002   1.2436710  )
        45        O      tau(  45) = (   0.6035774   0.5890693   1.3768175  )
        46        O      tau(  46) = (   0.8421571   1.0273722   1.6917632  )
        47        O      tau(  47) = (   0.8816644   0.4266506   1.3828449  )
        48        O      tau(  48) = (   0.6221997   0.1135664   1.6772983  )
        49        O      tau(  49) = (   0.6347776   0.6499156   1.6770748  )
        50        O      tau(  50) = (   0.9100442   0.4869846   1.6900532  )
        51        O      tau(  51) = (   0.6512513   0.0508446   1.3744142  )
        52        O      tau(  52) = (   0.8740844   0.9637479   1.3848135  )
        53        Mn     tau(  53) = (   0.2404744   0.8246335   1.0701417  )
        54        Ni     tau(  54) = (   0.4968126   0.7601755   0.7454373  )
        55        Ni     tau(  55) = (   0.0066150   0.2811828   1.0628866  )
        56        Ni     tau(  56) = (   0.2585722   0.2230943   0.7421070  )
        57        Ni     tau(  57) = (   0.9987350   1.0571496   0.9014992  )
        58        Ni     tau(  58) = (   0.2517397   0.5205596   0.9040596  )
        59        Ni     tau(  59) = (   0.7451645   0.8212628   1.0648168  )
        60        Ni     tau(  60) = (   0.9939181   0.7613889   0.7462324  )
        61        Ni     tau(  61) = (   0.5111533   0.2799173   1.0618053  )
        62        Ni     tau(  62) = (   0.7606326   0.2194352   0.7418547  )
        63        Ni     tau(  63) = (   0.5024065   1.0563218   0.8999416  )
        64        Ni     tau(  64) = (   0.7529977   0.5192985   0.9024691  )
        65        P      tau(  65) = (   0.2092944   0.9606182   0.7524883  )
        66        P      tau(  66) = (   0.4655727   0.6234620   1.0595283  )
        67        P      tau(  67) = (   0.2910699   0.0902448   1.0573821  )
        68        P      tau(  68) = (   0.0396216   0.4163480   0.7471080  )
        69        O      tau(  69) = (   0.1294378   0.8888345   0.8859300  )
        70        O      tau(  70) = (   0.3874505   0.6929859   0.9232915  )
        71        O      tau(  71) = (   0.3702540   0.1589885   0.9209891  )
        72        O      tau(  72) = (   0.1184398   0.3458043   0.8831565  )
        73        O      tau(  73) = (   0.1451572   0.8725966   0.6282341  )
        74        O      tau(  74) = (   0.4048762   0.7120670   1.1852426  )
        75        O      tau(  75) = (   0.3523506   0.1775664   1.1834175  )
        76        O      tau(  76) = (   0.1017610   0.3285569   0.6213347  )
        77        O      tau(  77) = (   0.0975396   0.5724373   0.7511996  )
        78        O      tau(  78) = (   0.3483552   1.0190030   1.0599597  )
        79        O      tau(  79) = (   0.3784305   0.4100203   0.7560991  )
        80        O      tau(  80) = (   0.1268237   0.0943029   1.0477175  )
        81        O      tau(  81) = (   0.1212267   0.6299255   1.0507023  )
        82        O      tau(  82) = (   0.4053315   0.4684472   1.0569297  )
        83        O      tau(  83) = (   0.1536621   0.0322003   0.7496532  )
        84        O      tau(  84) = (   0.3732349   0.9506802   0.7613277  )
        85        P      tau(  85) = (   0.7119823   0.9571059   0.7496908  )
        86        P      tau(  86) = (   0.9615208   0.6238477   1.0606987  )
        87        P      tau(  87) = (   0.7927710   0.0845145   1.0577754  )
        88        P      tau(  88) = (   0.5426404   0.4144760   0.7459181  )
        89        O      tau(  89) = (   0.6326879   0.8866267   0.8856678  )
        90        O      tau(  90) = (   0.8842163   0.6958291   0.9244764  )
        91        O      tau(  91) = (   0.8716178   0.1552836   0.9216415  )
        92        O      tau(  92) = (   0.6212010   0.3433751   0.8818834  )
        93        O      tau(  93) = (   0.6507714   0.8687427   0.6238197  )
        94        O      tau(  94) = (   0.9014054   0.7139543   1.1859242  )
        95        O      tau(  95) = (   0.8548963   0.1722994   1.1834447  )
        96        O      tau(  96) = (   0.6044469   0.3253792   0.6209553  )
        97        O      tau(  97) = (   0.6024424   0.5698225   0.7490903  )
        98        O      tau(  98) = (   0.8498940   1.0129567   1.0594762  )
        99        O      tau(  99) = (   0.8798395   0.4080910   0.7564148  )
       100        O      tau( 100) = (   0.6286921   0.0909721   1.0472573  )
       101        O      tau( 101) = (   0.6294973   0.6302838   1.0497366  )
       102        O      tau( 102) = (   0.9024339   0.4685397   1.0573501  )
       103        O      tau( 103) = (   0.6547812   0.0286072   0.7473283  )
       104        O      tau( 104) = (   0.8760507   0.9507690   0.7605412  )
       105        Mn     tau( 105) = (   0.2404744   0.8121420   0.4502541  )
       106        Ni     tau( 106) = (   0.4968126   0.7476840   0.1255496  )
       107        Ni     tau( 107) = (   0.0066150   0.2686914   0.4429989  )
       108        Ni     tau( 108) = (   0.2585722   0.2106028   0.1222194  )
       109        Ni     tau( 109) = (   0.9987350   1.0446581   0.2816116  )
       110        Ni     tau( 110) = (   0.2517397   0.5080681   0.2841720  )
       111        Ni     tau( 111) = (   0.7451645   0.8087713   0.4449291  )
       112        Ni     tau( 112) = (   0.9939181   0.7488974   0.1263448  )
       113        Ni     tau( 113) = (   0.5111533   0.2674258   0.4419177  )
       114        Ni     tau( 114) = (   0.7606326   0.2069438   0.1219670  )
       115        Ni     tau( 115) = (   0.5024065   1.0438304   0.2800540  )
       116        Ni     tau( 116) = (   0.7529977   0.5068070   0.2825815  )
       117        P      tau( 117) = (   0.2092944   0.9481267   0.1326007  )
       118        P      tau( 118) = (   0.4655727   0.6109705   0.4396407  )
       119        P      tau( 119) = (   0.2910699   0.0777534   0.4374945  )
       120        P      tau( 120) = (   0.0396216   0.4038566   0.1272204  )
       121        O      tau( 121) = (   0.1294378   0.8763430   0.2660424  )
       122        O      tau( 122) = (   0.3874505   0.6804944   0.3034039  )
       123        O      tau( 123) = (   0.3702540   0.1464970   0.3011014  )
       124        O      tau( 124) = (   0.1184398   0.3333129   0.2632689  )
       125        O      tau( 125) = (   0.1451572   0.8601051   0.0083464  )
       126        O      tau( 126) = (   0.4048762   0.6995756   0.5653550  )
       127        O      tau( 127) = (   0.3523506   0.1650749   0.5635298  )
       128        O      tau( 128) = (   0.1017610   0.3160655   0.0014470  )
       129        O      tau( 129) = (   0.0975396   0.5599458   0.1313120  )
       130        O      tau( 130) = (   0.3483552   1.0065115   0.4400720  )
       131        O      tau( 131) = (   0.3784305   0.3975288   0.1362114  )
       132        O      tau( 132) = (   0.1268237   0.0818115   0.4278298  )
       133        O      tau( 133) = (   0.1212267   0.6174340   0.4308146  )
       134        O      tau( 134) = (   0.4053315   0.4559557   0.4370420  )
       135        O      tau( 135) = (   0.1536621   0.0197088   0.1297656  )
       136        O      tau( 136) = (   0.3732349   0.9381887   0.1414400  )
       137        P      tau( 137) = (   0.7119823   0.9446144   0.1298032  )
       138        P      tau( 138) = (   0.9615208   0.6113562   0.4408111  )
       139        P      tau( 139) = (   0.7927710   0.0720230   0.4378878  )
       140        P      tau( 140) = (   0.5426404   0.4019845   0.1260304  )
       141        O      tau( 141) = (   0.6326879   0.8741353   0.2657802  )
       142        O      tau( 142) = (   0.8842163   0.6833376   0.3045887  )
       143        O      tau( 143) = (   0.8716178   0.1427921   0.3017538  )
       144        O      tau( 144) = (   0.6212010   0.3308836   0.2619957  )
       145        O      tau( 145) = (   0.6507714   0.8562512   0.0039320  )
       146        O      tau( 146) = (   0.9014054   0.7014628   0.5660366  )
       147        O      tau( 147) = (   0.8548963   0.1598079   0.5635571  )
       148        O      tau( 148) = (   0.6044469   0.3128877   0.0010676  )
       149        O      tau( 149) = (   0.6024424   0.5573310   0.1292027  )
       150        O      tau( 150) = (   0.8498940   1.0004653   0.4395886  )
       151        O      tau( 151) = (   0.8798395   0.3955995   0.1365272  )
       152        O      tau( 152) = (   0.6286921   0.0784807   0.4273696  )
       153        O      tau( 153) = (   0.6294973   0.6177923   0.4298489  )
       154        O      tau( 154) = (   0.9024339   0.4560482   0.4374624  )
       155        O      tau( 155) = (   0.6547812   0.0161158   0.1274406  )
       156        O      tau( 156) = (   0.8760507   0.9382775   0.1406535  )
       157        O      tau( 157) = (   1.1426512   0.9081323   1.8444903  )
       158        H      tau( 158) = (   1.0494652   0.8581547   1.8551478  )

     -------------------------------------------------
     Parameters for Dispersion (Grimme-D2) Correction:
     -------------------------------------------------
       atom      VdW radius       C_6     

        Ni         2.952        374.666
        Mn         2.952        374.666
        P          3.222        271.980
        O          2.536         24.284
        H          1.892          4.857

     number of k points=     1  Gaussian smearing, width (Ry)=  0.0100
                       cart. coord. in units 2pi/alat
        k(    1) = (   0.0000000   0.0000000   0.0000000), wk =   1.0000000

     Dense  grid:  1918138 G-vectors     FFT dimensions: ( 125, 135, 432)

     Smooth grid:   485265 G-vectors     FFT dimensions: (  80,  90, 288)

     Estimated max dynamical RAM per process >     320.12 MB

     Estimated total dynamical RAM >      20.01 GB
     Generating pointlists ...
     new r_m :   0.0866 (alat units)  1.5324 (a.u.) for type    1
     new r_m :   0.0775 (alat units)  1.3721 (a.u.) for type    2
     new r_m :   0.0650 (alat units)  1.1499 (a.u.) for type    3
     new r_m :   0.0438 (alat units)  0.7760 (a.u.) for type    4
     new r_m :   0.0438 (alat units)  0.7760 (a.u.) for type    5

     Initial potential from superposition of free atoms

     starting charge    1077.8900, renormalised to    1078.0000

     negative rho (up, down):  1.249E-03 4.554E-04
 
     Adding external electric field

     Computed dipole along edir(3) : 
        Dipole                1.6024 Ry au,          4.0728 Debye
        Dipole field          0.0010 Ry au, 
 
        Potential amp.       -0.1075 Ry
        Total length         54.2615 bohr
 
 
     Adding external electric field

     Computed dipole along edir(3) : 
        Dipole                1.6024 Ry au,          4.0728 Debye
        Dipole field          0.0010 Ry au, 
 
        Potential amp.       -0.1075 Ry
        Total length         54.2615 bohr
 
     Starting wfcs are  812 randomized atomic wfcs

     total cpu time spent up to now is       10.1 secs

     Self-consistent Calculation

     iteration #  1     ecut=    50.00 Ry     beta= 0.10
     Davidson diagonalization with overlap
     ethr =  1.00E-02,  avg # of iterations =  6.0

     negative rho (up, down):  3.272E-01 3.065E-07
 
     Adding external electric field

     Computed dipole along edir(3) : 
        Dipole               -3.5645 Ry au,         -9.0601 Debye
        Dipole field         -0.0022 Ry au, 
 
        Potential amp.        0.2392 Ry
        Total length         54.2615 bohr
 
 
     Adding external electric field

     Computed dipole along edir(3) : 
        Dipole               -3.5645 Ry au,         -9.0601 Debye
        Dipole field         -0.0022 Ry au, 
 
        Potential amp.        0.2392 Ry
        Total length         54.2615 bohr
 

     total cpu time spent up to now is       38.6 secs

     total energy              =   -7177.45266770 Ry
     estimated scf accuracy    <     733.30396211 Ry

     total magnetization       =   216.00 Bohr mag/cell
     absolute magnetization    =   296.65 Bohr mag/cell

     iteration #  2     ecut=    50.00 Ry     beta= 0.10
     Davidson diagonalization with overlap
     ethr =  1.00E-02,  avg # of iterations =  2.0

     negative rho (up, down):  3.134E-01 1.312E-07
 
     Adding external electric field

     Computed dipole along edir(3) : 
        Dipole               -2.3161 Ry au,         -5.8869 Debye
        Dipole field         -0.0014 Ry au, 
 
        Potential amp.        0.1554 Ry
        Total length         54.2615 bohr
 
 
     Adding external electric field

     Computed dipole along edir(3) : 
        Dipole               -2.3161 Ry au,         -5.8869 Debye
        Dipole field         -0.0014 Ry au, 
 
        Potential amp.        0.1554 Ry
        Total length         54.2615 bohr
 

     total cpu time spent up to now is       53.2 secs

     total energy              =   -7261.51536270 Ry
     estimated scf accuracy    <     217.55771675 Ry

     total magnetization       =   152.15 Bohr mag/cell
     absolute magnetization    =   201.11 Bohr mag/cell

     iteration #  3     ecut=    50.00 Ry     beta= 0.10
     Davidson diagonalization with overlap
     ethr =  1.00E-02,  avg # of iterations =  1.5

     negative rho (up, down):  2.771E-01 8.847E-08
 
     Adding external electric field

     Computed dipole along edir(3) : 
        Dipole               -2.0234 Ry au,         -5.1429 Debye
        Dipole field         -0.0013 Ry au, 
 
        Potential amp.        0.1358 Ry
        Total length         54.2615 bohr
 
 
     Adding external electric field

     Computed dipole along edir(3) : 
        Dipole               -2.0234 Ry au,         -5.1429 Debye
        Dipole field         -0.0013 Ry au, 
 
        Potential amp.        0.1358 Ry
        Total length         54.2615 bohr
 

     total cpu time spent up to now is       65.2 secs

     total energy              =   -7291.41493032 Ry
     estimated scf accuracy    <      97.28679324 Ry

     total magnetization       =   126.99 Bohr mag/cell
     absolute magnetization    =   180.15 Bohr mag/cell

     iteration #  4     ecut=    50.00 Ry     beta= 0.10
     Davidson diagonalization with overlap
     ethr =  9.02E-03,  avg # of iterations =  1.5

     negative rho (up, down):  2.101E-01 1.572E-08
 
     Adding external electric field

     Computed dipole along edir(3) : 
        Dipole               -1.9994 Ry au,         -5.0819 Debye
        Dipole field         -0.0012 Ry au, 
 
        Potential amp.        0.1342 Ry
        Total length         54.2615 bohr
 
 
     Adding external electric field

     Computed dipole along edir(3) : 
        Dipole               -1.9994 Ry au,         -5.0819 Debye
        Dipole field         -0.0012 Ry au, 
 
        Potential amp.        0.1342 Ry
        Total length         54.2615 bohr
 

     total cpu time spent up to now is       76.8 secs

     total energy              =   -7324.59107180 Ry
     estimated scf accuracy    <      79.43319319 Ry

     total magnetization       =   111.70 Bohr mag/cell
     absolute magnetization    =   165.87 Bohr mag/cell

     iteration #  5     ecut=    50.00 Ry     beta= 0.10
     Davidson diagonalization with overlap
     ethr =  7.37E-03,  avg # of iterations =  1.5

     negative rho (up, down):  1.360E-02 3.335E-07
 
     Adding external electric field

     Computed dipole along edir(3) : 
        Dipole               -1.6422 Ry au,         -4.1740 Debye
        Dipole field         -0.0010 Ry au, 
 
        Potential amp.        0.1102 Ry
        Total length         54.2615 bohr
 
 
     Adding external electric field

     Computed dipole along edir(3) : 
        Dipole               -1.6422 Ry au,         -4.1740 Debye
        Dipole field         -0.0010 Ry au, 
 
        Potential amp.        0.1102 Ry
        Total length         54.2615 bohr
 

     total cpu time spent up to now is       89.2 secs

     total energy              =   -7384.35348600 Ry
     estimated scf accuracy    <      63.24189555 Ry

     total magnetization       =    88.16 Bohr mag/cell
     absolute magnetization    =   146.87 Bohr mag/cell

     iteration #  6     ecut=    50.00 Ry     beta= 0.10
     Davidson diagonalization with overlap
     ethr =  5.87E-03,  avg # of iterations =  1.5

     negative rho (up, down):  4.066E-04 7.380E-04
 
     Adding external electric field

     Computed dipole along edir(3) : 
        Dipole               -1.3677 Ry au,         -3.4764 Debye
        Dipole field         -0.0008 Ry au, 
 
        Potential amp.        0.0918 Ry
        Total length         54.2615 bohr
 
 
     Adding external electric field

     Computed dipole along edir(3) : 
        Dipole               -1.3677 Ry au,         -3.4764 Debye
        Dipole field         -0.0008 Ry au, 
 
        Potential amp.        0.0918 Ry
        Total length         54.2615 bohr
 

     total cpu time spent up to now is      100.9 secs

     total energy              =   -7395.17310197 Ry
     estimated scf accuracy    <      12.01802805 Ry

     total magnetization       =    81.89 Bohr mag/cell
     absolute magnetization    =   117.30 Bohr mag/cell

     iteration #  7     ecut=    50.00 Ry     beta= 0.10
     Davidson diagonalization with overlap
     ethr =  1.11E-03,  avg # of iterations =  4.5

     negative rho (up, down):  3.817E-04 6.605E-04
 
     Adding external electric field

     Computed dipole along edir(3) : 
        Dipole               -1.3508 Ry au,         -3.4335 Debye
        Dipole field         -0.0008 Ry au, 
 
        Potential amp.        0.0907 Ry
        Total length         54.2615 bohr
 
 
     Adding external electric field

     Computed dipole along edir(3) : 
        Dipole               -1.3508 Ry au,         -3.4335 Debye
        Dipole field         -0.0008 Ry au, 
 
        Potential amp.        0.0907 Ry
        Total length         54.2615 bohr
 

     total cpu time spent up to now is      118.9 secs

     total energy              =   -7397.79105127 Ry
     estimated scf accuracy    <      19.06006844 Ry

     total magnetization       =    66.67 Bohr mag/cell
     absolute magnetization    =    84.47 Bohr mag/cell

     iteration #  8     ecut=    50.00 Ry     beta= 0.10
     Davidson diagonalization with overlap
     ethr =  1.11E-03,  avg # of iterations =  1.0

     negative rho (up, down):  2.691E-04 4.614E-04
 
     Adding external electric field

     Computed dipole along edir(3) : 
        Dipole               -1.2367 Ry au,         -3.1434 Debye
        Dipole field         -0.0008 Ry au, 
 
        Potential amp.        0.0830 Ry
        Total length         54.2615 bohr
 
 
     Adding external electric field

     Computed dipole along edir(3) : 
        Dipole               -1.2367 Ry au,         -3.1434 Debye
        Dipole field         -0.0008 Ry au, 
 
        Potential amp.        0.0830 Ry
        Total length         54.2615 bohr
 

     total cpu time spent up to now is      129.8 secs

     total energy              =   -7397.71678974 Ry
     estimated scf accuracy    <      17.33622998 Ry

     total magnetization       =    67.50 Bohr mag/cell
     absolute magnetization    =    84.94 Bohr mag/cell

     iteration #  9     ecut=    50.00 Ry     beta= 0.10
     Davidson diagonalization with overlap
     ethr =  1.11E-03,  avg # of iterations =  1.0

     negative rho (up, down):  7.517E-05 2.044E-04
 
     Adding external electric field

     Computed dipole along edir(3) : 
        Dipole               -0.9176 Ry au,         -2.3323 Debye
        Dipole field         -0.0006 Ry au, 
 
        Potential amp.        0.0616 Ry
        Total length         54.2615 bohr
 
 
     Adding external electric field

     Computed dipole along edir(3) : 
        Dipole               -0.9176 Ry au,         -2.3323 Debye
        Dipole field         -0.0006 Ry au, 
 
        Potential amp.        0.0616 Ry
        Total length         54.2615 bohr
 

     total cpu time spent up to now is      140.4 secs

     total energy              =   -7397.52569096 Ry
     estimated scf accuracy    <      13.33048197 Ry

     total magnetization       =    68.71 Bohr mag/cell
     absolute magnetization    =    85.15 Bohr mag/cell

     iteration # 10     ecut=    50.00 Ry     beta= 0.10
     Davidson diagonalization with overlap
     ethr =  1.11E-03,  avg # of iterations =  1.5

     negative rho (up, down):  7.435E-05 2.025E-04
 
     Adding external electric field

     Computed dipole along edir(3) : 
        Dipole               -1.0324 Ry au,         -2.6240 Debye
        Dipole field         -0.0006 Ry au, 
 
        Potential amp.        0.0693 Ry
        Total length         54.2615 bohr
 
 
     Adding external electric field

     Computed dipole along edir(3) : 
        Dipole               -1.0324 Ry au,         -2.6240 Debye
        Dipole field         -0.0006 Ry au, 
 
        Potential amp.        0.0693 Ry
        Total length         54.2615 bohr
 

     total cpu time spent up to now is      151.5 secs

     total energy              =   -7397.62943526 Ry
     estimated scf accuracy    <       6.08941096 Ry

     total magnetization       =    72.06 Bohr mag/cell
     absolute magnetization    =    85.67 Bohr mag/cell

     iteration # 11     ecut=    50.00 Ry     beta= 0.10
     Davidson diagonalization with overlap
     ethr =  5.65E-04,  avg # of iterations =  2.0

     negative rho (up, down):  3.669E-05 1.225E-04
 
     Adding external electric field

     Computed dipole along edir(3) : 
        Dipole               -1.0387 Ry au,         -2.6400 Debye
        Dipole field         -0.0006 Ry au, 
 
        Potential amp.        0.0697 Ry
        Total length         54.2615 bohr
 
 
     Adding external electric field

     Computed dipole along edir(3) : 
        Dipole               -1.0387 Ry au,         -2.6400 Debye
        Dipole field         -0.0006 Ry au, 
 
        Potential amp.        0.0697 Ry
        Total length         54.2615 bohr
 

     total cpu time spent up to now is      163.1 secs

     total energy              =   -7397.60767969 Ry
     estimated scf accuracy    <       4.76116724 Ry

     total magnetization       =    72.10 Bohr mag/cell
     absolute magnetization    =    85.25 Bohr mag/cell

     iteration # 12     ecut=    50.00 Ry     beta= 0.10
     Davidson diagonalization with overlap
     ethr =  4.42E-04,  avg # of iterations =  1.5

     negative rho (up, down):  1.086E-05 7.860E-05
 
     Adding external electric field

     Computed dipole along edir(3) : 
        Dipole               -0.9443 Ry au,         -2.4001 Debye
        Dipole field         -0.0006 Ry au, 
 
        Potential amp.        0.0634 Ry
        Total length         54.2615 bohr
 
 
     Adding external electric field

     Computed dipole along edir(3) : 
        Dipole               -0.9443 Ry au,         -2.4001 Debye
        Dipole field         -0.0006 Ry au, 
 
        Potential amp.        0.0634 Ry
        Total length         54.2615 bohr
 

     total cpu time spent up to now is      174.9 secs

     total energy              =   -7397.74924404 Ry
     estimated scf accuracy    <       0.70405458 Ry

     total magnetization       =    77.62 Bohr mag/cell
     absolute magnetization    =    88.66 Bohr mag/cell

     iteration # 13     ecut=    50.00 Ry     beta= 0.10
     Davidson diagonalization with overlap
     ethr =  6.53E-05,  avg # of iterations = 15.5

     negative rho (up, down):  6.353E-06 3.739E-05
 
     Adding external electric field

     Computed dipole along edir(3) : 
        Dipole               -0.7573 Ry au,         -1.9249 Debye
        Dipole field         -0.0005 Ry au, 
 
        Potential amp.        0.0508 Ry
        Total length         54.2615 bohr
 
 
     Adding external electric field

     Computed dipole along edir(3) : 
        Dipole               -0.7573 Ry au,         -1.9249 Debye
        Dipole field         -0.0005 Ry au, 
 
        Potential amp.        0.0508 Ry
        Total length         54.2615 bohr
 

     total cpu time spent up to now is      200.5 secs

     total energy              =   -7397.91895975 Ry
     estimated scf accuracy    <       0.56809672 Ry

     total magnetization       =    79.71 Bohr mag/cell
     absolute magnetization    =    87.99 Bohr mag/cell

     iteration # 14     ecut=    50.00 Ry     beta= 0.10
     Davidson diagonalization with overlap
     ethr =  5.27E-05,  avg # of iterations =  1.5

     negative rho (up, down):  6.424E-06 1.365E-05
 
     Adding external electric field

     Computed dipole along edir(3) : 
        Dipole               -0.4034 Ry au,         -1.0254 Debye
        Dipole field         -0.0002 Ry au, 
 
        Potential amp.        0.0271 Ry
        Total length         54.2615 bohr
 
 
     Adding external electric field

     Computed dipole along edir(3) : 
        Dipole               -0.4034 Ry au,         -1.0254 Debye
        Dipole field         -0.0002 Ry au, 
 
        Potential amp.        0.0271 Ry
        Total length         54.2615 bohr
 

     total cpu time spent up to now is      211.6 secs

     total energy              =   -7398.06470031 Ry
     estimated scf accuracy    <       0.56416857 Ry

     total magnetization       =    79.76 Bohr mag/cell
     absolute magnetization    =    86.10 Bohr mag/cell

     iteration # 15     ecut=    50.00 Ry     beta= 0.10
     Davidson diagonalization with overlap
     ethr =  5.23E-05,  avg # of iterations =  2.0

     negative rho (up, down):  2.231E-07 6.025E-07
 
     Adding external electric field

     Computed dipole along edir(3) : 
        Dipole               -0.4678 Ry au,         -1.1889 Debye
        Dipole field         -0.0003 Ry au, 
 
        Potential amp.        0.0314 Ry
        Total length         54.2615 bohr
 
 
     Adding external electric field

     Computed dipole along edir(3) : 
        Dipole               -0.4678 Ry au,         -1.1889 Debye
        Dipole field         -0.0003 Ry au, 
 
        Potential amp.        0.0314 Ry
        Total length         54.2615 bohr
 

     total cpu time spent up to now is      223.6 secs

     total energy              =   -7398.07612260 Ry
     estimated scf accuracy    <       1.41687360 Ry

     total magnetization       =    79.14 Bohr mag/cell
     absolute magnetization    =    82.69 Bohr mag/cell

     iteration # 16     ecut=    50.00 Ry     beta= 0.10
     Davidson diagonalization with overlap
     ethr =  5.23E-05,  avg # of iterations =  1.0
 
     Adding external electric field

     Computed dipole along edir(3) : 
        Dipole               -0.4068 Ry au,         -1.0340 Debye
        Dipole field         -0.0003 Ry au, 
 
        Potential amp.        0.0273 Ry
        Total length         54.2615 bohr
 
 
     Adding external electric field

     Computed dipole along edir(3) : 
        Dipole               -0.4068 Ry au,         -1.0340 Debye
        Dipole field         -0.0003 Ry au, 
 
        Potential amp.        0.0273 Ry
        Total length         54.2615 bohr
 

     total cpu time spent up to now is      234.0 secs

     total energy              =   -7398.07668419 Ry
     estimated scf accuracy    <       0.49051131 Ry

     total magnetization       =    79.29 Bohr mag/cell
     absolute magnetization    =    82.83 Bohr mag/cell

     iteration # 17     ecut=    50.00 Ry     beta= 0.10
     Davidson diagonalization with overlap
     ethr =  4.55E-05,  avg # of iterations =  1.0
 
     Adding external electric field

     Computed dipole along edir(3) : 
        Dipole               -0.4122 Ry au,         -1.0477 Debye
        Dipole field         -0.0003 Ry au, 
 
        Potential amp.        0.0277 Ry
        Total length         54.2615 bohr
 
 
     Adding external electric field

     Computed dipole along edir(3) : 
        Dipole               -0.4122 Ry au,         -1.0477 Debye
        Dipole field         -0.0003 Ry au, 
 
        Potential amp.        0.0277 Ry
        Total length         54.2615 bohr
 

     total cpu time spent up to now is      244.6 secs

     total energy              =   -7398.09160622 Ry
     estimated scf accuracy    <       0.52910441 Ry

     total magnetization       =    78.55 Bohr mag/cell
     absolute magnetization    =    81.10 Bohr mag/cell

     iteration # 18     ecut=    50.00 Ry     beta= 0.10
     Davidson diagonalization with overlap
     ethr =  4.55E-05,  avg # of iterations =  1.0
 
     Adding external electric field

     Computed dipole along edir(3) : 
        Dipole               -0.4826 Ry au,         -1.2267 Debye
        Dipole field         -0.0003 Ry au, 
 
        Potential amp.        0.0324 Ry
        Total length         54.2615 bohr
 
 
     Adding external electric field

     Computed dipole along edir(3) : 
        Dipole               -0.4826 Ry au,         -1.2267 Debye
        Dipole field         -0.0003 Ry au, 
 
        Potential amp.        0.0324 Ry
        Total length         54.2615 bohr
 

     total cpu time spent up to now is      255.0 secs

     total energy              =   -7398.08175251 Ry
     estimated scf accuracy    <       0.47175121 Ry

     total magnetization       =    78.63 Bohr mag/cell
     absolute magnetization    =    81.03 Bohr mag/cell

     iteration # 19     ecut=    50.00 Ry     beta= 0.10
     Davidson diagonalization with overlap
     ethr =  4.38E-05,  avg # of iterations =  1.0
 
     Adding external electric field

     Computed dipole along edir(3) : 
        Dipole               -0.4885 Ry au,         -1.2416 Debye
        Dipole field         -0.0003 Ry au, 
 
        Potential amp.        0.0328 Ry
        Total length         54.2615 bohr
 
 
     Adding external electric field

     Computed dipole along edir(3) : 
        Dipole               -0.4885 Ry au,         -1.2416 Debye
        Dipole field         -0.0003 Ry au, 
 
        Potential amp.        0.0328 Ry
        Total length         54.2615 bohr
 

     total cpu time spent up to now is      265.3 secs

     total energy              =   -7398.08578065 Ry
     estimated scf accuracy    <       0.28968189 Ry

     total magnetization       =    78.40 Bohr mag/cell
     absolute magnetization    =    80.53 Bohr mag/cell

     iteration # 20     ecut=    50.00 Ry     beta= 0.10
     Davidson diagonalization with overlap
     ethr =  2.69E-05,  avg # of iterations =  1.0

     negative rho (up, down):  3.337E-07 7.094E-08
 
     Adding external electric field

     Computed dipole along edir(3) : 
        Dipole               -0.5159 Ry au,         -1.3114 Debye
        Dipole field         -0.0003 Ry au, 
 
        Potential amp.        0.0346 Ry
        Total length         54.2615 bohr
 
 
     Adding external electric field

     Computed dipole along edir(3) : 
        Dipole               -0.5159 Ry au,         -1.3114 Debye
        Dipole field         -0.0003 Ry au, 
 
        Potential amp.        0.0346 Ry
        Total length         54.2615 bohr
 

     total cpu time spent up to now is      275.6 secs

     total energy              =   -7398.08301792 Ry
     estimated scf accuracy    <       0.24876420 Ry

     total magnetization       =    78.52 Bohr mag/cell
     absolute magnetization    =    80.59 Bohr mag/cell

     iteration # 21     ecut=    50.00 Ry     beta= 0.10
     Davidson diagonalization with overlap
     ethr =  2.31E-05,  avg # of iterations =  1.0

     negative rho (up, down):  4.240E-05 7.320E-06
 
     Adding external electric field

     Computed dipole along edir(3) : 
        Dipole               -0.5188 Ry au,         -1.3188 Debye
        Dipole field         -0.0003 Ry au, 
 
        Potential amp.        0.0348 Ry
        Total length         54.2615 bohr
 
 
     Adding external electric field

     Computed dipole along edir(3) : 
        Dipole               -0.5188 Ry au,         -1.3188 Debye
        Dipole field         -0.0003 Ry au, 
 
        Potential amp.        0.0348 Ry
        Total length         54.2615 bohr
 

     total cpu time spent up to now is      286.0 secs

     total energy              =   -7398.08090503 Ry
     estimated scf accuracy    <       0.09978143 Ry

     total magnetization       =    79.11 Bohr mag/cell
     absolute magnetization    =    80.92 Bohr mag/cell

     iteration # 22     ecut=    50.00 Ry     beta= 0.10
     Davidson diagonalization with overlap
     ethr =  9.26E-06,  avg # of iterations = 12.0

     negative rho (up, down):  2.461E-05 1.586E-06
 
     Adding external electric field

     Computed dipole along edir(3) : 
        Dipole               -0.5055 Ry au,         -1.2848 Debye
        Dipole field         -0.0003 Ry au, 
 
        Potential amp.        0.0339 Ry
        Total length         54.2615 bohr
 
 
     Adding external electric field

     Computed dipole along edir(3) : 
        Dipole               -0.5055 Ry au,         -1.2848 Debye
        Dipole field         -0.0003 Ry au, 
 
        Potential amp.        0.0339 Ry
        Total length         54.2615 bohr
 

     total cpu time spent up to now is      306.8 secs

     total energy              =   -7398.08072910 Ry
     estimated scf accuracy    <       0.08078480 Ry

     total magnetization       =    79.26 Bohr mag/cell
     absolute magnetization    =    80.80 Bohr mag/cell

     iteration # 23     ecut=    50.00 Ry     beta= 0.10
     Davidson diagonalization with overlap
     ethr =  7.49E-06,  avg # of iterations =  2.0

     negative rho (up, down):  3.029E-05 6.377E-07
 
     Adding external electric field

     Computed dipole along edir(3) : 
        Dipole               -0.4902 Ry au,         -1.2458 Debye
        Dipole field         -0.0003 Ry au, 
 
        Potential amp.        0.0329 Ry
        Total length         54.2615 bohr
 
 
     Adding external electric field

     Computed dipole along edir(3) : 
        Dipole               -0.4902 Ry au,         -1.2458 Debye
        Dipole field         -0.0003 Ry au, 
 
        Potential amp.        0.0329 Ry
        Total length         54.2615 bohr
 

     total cpu time spent up to now is      319.4 secs

     total energy              =   -7398.08004999 Ry
     estimated scf accuracy    <       0.08100639 Ry

     total magnetization       =    78.94 Bohr mag/cell
     absolute magnetization    =    80.59 Bohr mag/cell

     iteration # 24     ecut=    50.00 Ry     beta= 0.10
     Davidson diagonalization with overlap
     ethr =  7.49E-06,  avg # of iterations =  2.0

     negative rho (up, down):  1.095E-04 7.868E-06
 
     Adding external electric field

     Computed dipole along edir(3) : 
        Dipole               -0.5081 Ry au,         -1.2915 Debye
        Dipole field         -0.0003 Ry au, 
 
        Potential amp.        0.0341 Ry
        Total length         54.2615 bohr
 
 
     Adding external electric field

     Computed dipole along edir(3) : 
        Dipole               -0.5081 Ry au,         -1.2915 Debye
        Dipole field         -0.0003 Ry au, 
 
        Potential amp.        0.0341 Ry
        Total length         54.2615 bohr
 

     total cpu time spent up to now is      331.5 secs

     total energy              =   -7398.07668026 Ry
     estimated scf accuracy    <       0.09081550 Ry

     total magnetization       =    78.89 Bohr mag/cell
     absolute magnetization    =    80.55 Bohr mag/cell

     iteration # 25     ecut=    50.00 Ry     beta= 0.10
     Davidson diagonalization with overlap
     ethr =  7.49E-06,  avg # of iterations =  2.0

     negative rho (up, down):  3.264E-05 5.307E-06
 
     Adding external electric field

     Computed dipole along edir(3) : 
        Dipole               -0.4865 Ry au,         -1.2367 Debye
        Dipole field         -0.0003 Ry au, 
 
        Potential amp.        0.0327 Ry
        Total length         54.2615 bohr
 
 
     Adding external electric field

     Computed dipole along edir(3) : 
        Dipole               -0.4865 Ry au,         -1.2367 Debye
        Dipole field         -0.0003 Ry au, 
 
        Potential amp.        0.0327 Ry
        Total length         54.2615 bohr
 

     total cpu time spent up to now is      343.4 secs

     total energy              =   -7398.08050849 Ry
     estimated scf accuracy    <       0.04151256 Ry

     total magnetization       =    78.64 Bohr mag/cell
     absolute magnetization    =    80.36 Bohr mag/cell

     iteration # 26     ecut=    50.00 Ry     beta= 0.10
     Davidson diagonalization with overlap
     c_bands:  2 eigenvalues not converged
     c_bands:  3 eigenvalues not converged
     ethr =  3.85E-06,  avg # of iterations = 20.0

     negative rho (up, down):  2.957E-05 3.149E-05
 
     Adding external electric field

     Computed dipole along edir(3) : 
        Dipole               -0.4761 Ry au,         -1.2100 Debye
        Dipole field         -0.0003 Ry au, 
 
        Potential amp.        0.0319 Ry
        Total length         54.2615 bohr
 
 
     Adding external electric field

     Computed dipole along edir(3) : 
        Dipole               -0.4761 Ry au,         -1.2100 Debye
        Dipole field         -0.0003 Ry au, 
 
        Potential amp.        0.0319 Ry
        Total length         54.2615 bohr
 

     total cpu time spent up to now is      364.3 secs

     total energy              =   -7398.08050159 Ry
     estimated scf accuracy    <       0.05145558 Ry

     total magnetization       =    79.01 Bohr mag/cell
     absolute magnetization    =    80.65 Bohr mag/cell

     iteration # 27     ecut=    50.00 Ry     beta= 0.10
     Davidson diagonalization with overlap
     c_bands:  4 eigenvalues not converged
     ethr =  3.85E-06,  avg # of iterations = 11.0

     negative rho (up, down):  2.227E-05 2.497E-05
 
     Adding external electric field

     Computed dipole along edir(3) : 
        Dipole               -0.4751 Ry au,         -1.2076 Debye
        Dipole field         -0.0003 Ry au, 
 
        Potential amp.        0.0319 Ry
        Total length         54.2615 bohr
 
 
     Adding external electric field

     Computed dipole along edir(3) : 
        Dipole               -0.4751 Ry au,         -1.2076 Debye
        Dipole field         -0.0003 Ry au, 
 
        Potential amp.        0.0319 Ry
        Total length         54.2615 bohr
 

     total cpu time spent up to now is      380.4 secs

     total energy              =   -7398.08156754 Ry
     estimated scf accuracy    <       0.03365610 Ry

     total magnetization       =    78.47 Bohr mag/cell
     absolute magnetization    =    80.26 Bohr mag/cell

     iteration # 28     ecut=    50.00 Ry     beta= 0.10
     Davidson diagonalization with overlap
     ethr =  3.12E-06,  avg # of iterations =  9.5

     negative rho (up, down):  1.915E-05 2.111E-05
 
     Adding external electric field

     Computed dipole along edir(3) : 
        Dipole               -0.4796 Ry au,         -1.2191 Debye
        Dipole field         -0.0003 Ry au, 
 
        Potential amp.        0.0322 Ry
        Total length         54.2615 bohr
 
 
     Adding external electric field

     Computed dipole along edir(3) : 
        Dipole               -0.4796 Ry au,         -1.2191 Debye
        Dipole field         -0.0003 Ry au, 
 
        Potential amp.        0.0322 Ry
        Total length         54.2615 bohr
 

     total cpu time spent up to now is      394.9 secs

     total energy              =   -7398.08157747 Ry
     estimated scf accuracy    <       0.03786966 Ry

     total magnetization       =    78.48 Bohr mag/cell
     absolute magnetization    =    80.30 Bohr mag/cell

     iteration # 29     ecut=    50.00 Ry     beta= 0.10
     Davidson diagonalization with overlap
     ethr =  3.12E-06,  avg # of iterations =  2.0

     negative rho (up, down):  2.001E-05 2.392E-05
 
     Adding external electric field

     Computed dipole along edir(3) : 
        Dipole               -0.4805 Ry au,         -1.2213 Debye
        Dipole field         -0.0003 Ry au, 
 
        Potential amp.        0.0322 Ry
        Total length         54.2615 bohr
 
 
     Adding external electric field

     Computed dipole along edir(3) : 
        Dipole               -0.4805 Ry au,         -1.2213 Debye
        Dipole field         -0.0003 Ry au, 
 
        Potential amp.        0.0322 Ry
        Total length         54.2615 bohr
 

     total cpu time spent up to now is      406.7 secs

     total energy              =   -7398.08185482 Ry
     estimated scf accuracy    <       0.02531089 Ry

     total magnetization       =    78.72 Bohr mag/cell
     absolute magnetization    =    80.51 Bohr mag/cell

     iteration # 30     ecut=    50.00 Ry     beta= 0.10
     Davidson diagonalization with overlap
     ethr =  2.35E-06,  avg # of iterations =  2.0

     negative rho (up, down):  5.288E-05 6.477E-05
 
     Adding external electric field

     Computed dipole along edir(3) : 
        Dipole               -0.4730 Ry au,         -1.2024 Debye
        Dipole field         -0.0003 Ry au, 
 
        Potential amp.        0.0317 Ry
        Total length         54.2615 bohr
 
 
     Adding external electric field

     Computed dipole along edir(3) : 
        Dipole               -0.4730 Ry au,         -1.2024 Debye
        Dipole field         -0.0003 Ry au, 
 
        Potential amp.        0.0317 Ry
        Total length         54.2615 bohr
 

     total cpu time spent up to now is      418.4 secs

     total energy              =   -7398.08169138 Ry
     estimated scf accuracy    <       0.02572818 Ry

     total magnetization       =    78.79 Bohr mag/cell
     absolute magnetization    =    80.55 Bohr mag/cell

     iteration # 31     ecut=    50.00 Ry     beta= 0.10
     Davidson diagonalization with overlap
     ethr =  2.35E-06,  avg # of iterations =  2.0

     negative rho (up, down):  4.819E-05 6.746E-05
 
     Adding external electric field

     Computed dipole along edir(3) : 
        Dipole               -0.4795 Ry au,         -1.2188 Debye
        Dipole field         -0.0003 Ry au, 
 
        Potential amp.        0.0322 Ry
        Total length         54.2615 bohr
 
 
     Adding external electric field

     Computed dipole along edir(3) : 
        Dipole               -0.4795 Ry au,         -1.2188 Debye
        Dipole field         -0.0003 Ry au, 
 
        Potential amp.        0.0322 Ry
        Total length         54.2615 bohr
 

     total cpu time spent up to now is      430.2 secs

     total energy              =   -7398.08170423 Ry
     estimated scf accuracy    <       0.02126392 Ry

     total magnetization       =    78.63 Bohr mag/cell
     absolute magnetization    =    80.36 Bohr mag/cell

     iteration # 32     ecut=    50.00 Ry     beta= 0.10
     Davidson diagonalization with overlap
     ethr =  1.97E-06,  avg # of iterations =  1.5

     negative rho (up, down):  3.806E-05 5.407E-05
 
     Adding external electric field

     Computed dipole along edir(3) : 
        Dipole               -0.4509 Ry au,         -1.1461 Debye
        Dipole field         -0.0003 Ry au, 
 
        Potential amp.        0.0303 Ry
        Total length         54.2615 bohr
 
 
     Adding external electric field

     Computed dipole along edir(3) : 
        Dipole               -0.4509 Ry au,         -1.1461 Debye
        Dipole field         -0.0003 Ry au, 
 
        Potential amp.        0.0303 Ry
        Total length         54.2615 bohr
 

     total cpu time spent up to now is      441.3 secs

     total energy              =   -7398.08155402 Ry
     estimated scf accuracy    <       0.02147247 Ry

     total magnetization       =    78.62 Bohr mag/cell
     absolute magnetization    =    80.40 Bohr mag/cell

     iteration # 33     ecut=    50.00 Ry     beta= 0.10
     Davidson diagonalization with overlap
     ethr =  1.97E-06,  avg # of iterations =  2.0

     negative rho (up, down):  2.093E-05 3.384E-05
 
     Adding external electric field

     Computed dipole along edir(3) : 
        Dipole               -0.4339 Ry au,         -1.1028 Debye
        Dipole field         -0.0003 Ry au, 
 
        Potential amp.        0.0291 Ry
        Total length         54.2615 bohr
 
 
     Adding external electric field

     Computed dipole along edir(3) : 
        Dipole               -0.4339 Ry au,         -1.1028 Debye
        Dipole field         -0.0003 Ry au, 
 
        Potential amp.        0.0291 Ry
        Total length         54.2615 bohr
 

     total cpu time spent up to now is      452.7 secs

     total energy              =   -7398.08136746 Ry
     estimated scf accuracy    <       0.02017076 Ry

     total magnetization       =    78.56 Bohr mag/cell
     absolute magnetization    =    80.25 Bohr mag/cell

     iteration # 34     ecut=    50.00 Ry     beta= 0.10
     Davidson diagonalization with overlap
     ethr =  1.87E-06,  avg # of iterations =  1.5

     negative rho (up, down):  6.634E-06 1.790E-05
 
     Adding external electric field

     Computed dipole along edir(3) : 
        Dipole               -0.4032 Ry au,         -1.0249 Debye
        Dipole field         -0.0002 Ry au, 
 
        Potential amp.        0.0271 Ry
        Total length         54.2615 bohr
 
 
     Adding external electric field

     Computed dipole along edir(3) : 
        Dipole               -0.4032 Ry au,         -1.0249 Debye
        Dipole field         -0.0002 Ry au, 
 
        Potential amp.        0.0271 Ry
        Total length         54.2615 bohr
 

     total cpu time spent up to now is      463.4 secs

     total energy              =   -7398.08065456 Ry
     estimated scf accuracy    <       0.02022801 Ry

     total magnetization       =    78.62 Bohr mag/cell
     absolute magnetization    =    80.25 Bohr mag/cell

     iteration # 35     ecut=    50.00 Ry     beta= 0.10
     Davidson diagonalization with overlap
     ethr =  1.87E-06,  avg # of iterations =  1.5

     negative rho (up, down):  1.461E-05 3.223E-05
 
     Adding external electric field

     Computed dipole along edir(3) : 
        Dipole               -0.4128 Ry au,         -1.0493 Debye
        Dipole field         -0.0003 Ry au, 
 
        Potential amp.        0.0277 Ry
        Total length         54.2615 bohr
 
 
     Adding external electric field

     Computed dipole along edir(3) : 
        Dipole               -0.4128 Ry au,         -1.0493 Debye
        Dipole field         -0.0003 Ry au, 
 
        Potential amp.        0.0277 Ry
        Total length         54.2615 bohr
 

     total cpu time spent up to now is      474.0 secs

     total energy              =   -7398.08100054 Ry
     estimated scf accuracy    <       0.02996882 Ry

     total magnetization       =    78.73 Bohr mag/cell
     absolute magnetization    =    80.31 Bohr mag/cell

     iteration # 36     ecut=    50.00 Ry     beta= 0.10
     Davidson diagonalization with overlap
     ethr =  1.87E-06,  avg # of iterations =  1.0

     negative rho (up, down):  3.690E-05 3.951E-05
 
     Adding external electric field

     Computed dipole along edir(3) : 
        Dipole               -0.4501 Ry au,         -1.1439 Debye
        Dipole field         -0.0003 Ry au, 
 
        Potential amp.        0.0302 Ry
        Total length         54.2615 bohr
 
 
     Adding external electric field

     Computed dipole along edir(3) : 
        Dipole               -0.4501 Ry au,         -1.1439 Debye
        Dipole field         -0.0003 Ry au, 
 
        Potential amp.        0.0302 Ry
        Total length         54.2615 bohr
 

     total cpu time spent up to now is      483.9 secs

     total energy              =   -7398.08113349 Ry
     estimated scf accuracy    <       0.02369121 Ry

     total magnetization       =    78.68 Bohr mag/cell
     absolute magnetization    =    80.27 Bohr mag/cell

     iteration # 37     ecut=    50.00 Ry     beta= 0.10
     Davidson diagonalization with overlap
     ethr =  1.87E-06,  avg # of iterations =  2.0

     negative rho (up, down):  1.836E-04 2.052E-04
 
     Adding external electric field

     Computed dipole along edir(3) : 
        Dipole               -0.4869 Ry au,         -1.2375 Debye
        Dipole field         -0.0003 Ry au, 
 
        Potential amp.        0.0327 Ry
        Total length         54.2615 bohr
 
 
     Adding external electric field

     Computed dipole along edir(3) : 
        Dipole               -0.4869 Ry au,         -1.2375 Debye
        Dipole field         -0.0003 Ry au, 
 
        Potential amp.        0.0327 Ry
        Total length         54.2615 bohr
 

     total cpu time spent up to now is      495.1 secs

     total energy              =   -7398.08101326 Ry
     estimated scf accuracy    <       0.02819006 Ry

     total magnetization       =    78.74 Bohr mag/cell
     absolute magnetization    =    80.32 Bohr mag/cell

     iteration # 38     ecut=    50.00 Ry     beta= 0.10
     Davidson diagonalization with overlap
     ethr =  1.87E-06,  avg # of iterations =  2.0

     negative rho (up, down):  7.888E-04 9.942E-04
 
     Adding external electric field

     Computed dipole along edir(3) : 
        Dipole               -0.5350 Ry au,         -1.3598 Debye
        Dipole field         -0.0003 Ry au, 
 
        Potential amp.        0.0359 Ry
        Total length         54.2615 bohr
 
 
     Adding external electric field

     Computed dipole along edir(3) : 
        Dipole               -0.5350 Ry au,         -1.3598 Debye
        Dipole field         -0.0003 Ry au, 
 
        Potential amp.        0.0359 Ry
        Total length         54.2615 bohr
 

     total cpu time spent up to now is      506.3 secs

     total energy              =   -7398.07944513 Ry
     estimated scf accuracy    <       0.01775956 Ry

     total magnetization       =    78.66 Bohr mag/cell
     absolute magnetization    =    80.29 Bohr mag/cell

     iteration # 39     ecut=    50.00 Ry     beta= 0.10
     Davidson diagonalization with overlap
     ethr =  1.65E-06,  avg # of iterations =  2.0

     negative rho (up, down):  8.543E-04 1.115E-03
 
     Adding external electric field

     Computed dipole along edir(3) : 
        Dipole               -0.5240 Ry au,         -1.3319 Debye
        Dipole field         -0.0003 Ry au, 
 
        Potential amp.        0.0352 Ry
        Total length         54.2615 bohr
 
 
     Adding external electric field

     Computed dipole along edir(3) : 
        Dipole               -0.5240 Ry au,         -1.3319 Debye
        Dipole field         -0.0003 Ry au, 
 
        Potential amp.        0.0352 Ry
        Total length         54.2615 bohr
 

     total cpu time spent up to now is      518.2 secs

     total energy              =   -7398.07969187 Ry
     estimated scf accuracy    <       0.01465068 Ry

     total magnetization       =    78.65 Bohr mag/cell
     absolute magnetization    =    80.47 Bohr mag/cell

     iteration # 40     ecut=    50.00 Ry     beta= 0.10
     Davidson diagonalization with overlap
     ethr =  1.36E-06,  avg # of iterations =  1.0

     negative rho (up, down):  1.246E-03 1.639E-03
 
     Adding external electric field

     Computed dipole along edir(3) : 
        Dipole               -0.5127 Ry au,         -1.3031 Debye
        Dipole field         -0.0003 Ry au, 
 
        Potential amp.        0.0344 Ry
        Total length         54.2615 bohr
 
 
     Adding external electric field

     Computed dipole along edir(3) : 
        Dipole               -0.5127 Ry au,         -1.3031 Debye
        Dipole field         -0.0003 Ry au, 
 
        Potential amp.        0.0344 Ry
        Total length         54.2615 bohr
 

     total cpu time spent up to now is      528.8 secs

     total energy              =   -7398.07896208 Ry
     estimated scf accuracy    <       0.01424090 Ry

     total magnetization       =    78.63 Bohr mag/cell
     absolute magnetization    =    80.45 Bohr mag/cell

     iteration # 41     ecut=    50.00 Ry     beta= 0.10
     Davidson diagonalization with overlap
     ethr =  1.32E-06,  avg # of iterations =  2.0

     negative rho (up, down):  1.491E-03 1.902E-03
 
     Adding external electric field

     Computed dipole along edir(3) : 
        Dipole               -0.4907 Ry au,         -1.2473 Debye
        Dipole field         -0.0003 Ry au, 
 
        Potential amp.        0.0329 Ry
        Total length         54.2615 bohr
 
 
     Adding external electric field

     Computed dipole along edir(3) : 
        Dipole               -0.4907 Ry au,         -1.2473 Debye
        Dipole field         -0.0003 Ry au, 
 
        Potential amp.        0.0329 Ry
        Total length         54.2615 bohr
 

     total cpu time spent up to now is      540.8 secs

     total energy              =   -7398.07917660 Ry
     estimated scf accuracy    <       0.01546687 Ry

     total magnetization       =    78.64 Bohr mag/cell
     absolute magnetization    =    80.50 Bohr mag/cell

     iteration # 42     ecut=    50.00 Ry     beta= 0.10
     Davidson diagonalization with overlap
     ethr =  1.32E-06,  avg # of iterations =  2.0

     negative rho (up, down):  1.148E-03 1.531E-03
 
     Adding external electric field

     Computed dipole along edir(3) : 
        Dipole               -0.4924 Ry au,         -1.2514 Debye
        Dipole field         -0.0003 Ry au, 
 
        Potential amp.        0.0330 Ry
        Total length         54.2615 bohr
 
 
     Adding external electric field

     Computed dipole along edir(3) : 
        Dipole               -0.4924 Ry au,         -1.2514 Debye
        Dipole field         -0.0003 Ry au, 
 
        Potential amp.        0.0330 Ry
        Total length         54.2615 bohr
 

     total cpu time spent up to now is      551.8 secs

     total energy              =   -7398.07918601 Ry
     estimated scf accuracy    <       0.02168729 Ry

     total magnetization       =    78.67 Bohr mag/cell
     absolute magnetization    =    80.47 Bohr mag/cell

     iteration # 43     ecut=    50.00 Ry     beta= 0.10
     Davidson diagonalization with overlap
     ethr =  1.32E-06,  avg # of iterations =  2.0

     negative rho (up, down):  8.984E-04 1.204E-03
 
     Adding external electric field

     Computed dipole along edir(3) : 
        Dipole               -0.4513 Ry au,         -1.1471 Debye
        Dipole field         -0.0003 Ry au, 
 
        Potential amp.        0.0303 Ry
        Total length         54.2615 bohr
 
 
     Adding external electric field

     Computed dipole along edir(3) : 
        Dipole               -0.4513 Ry au,         -1.1471 Debye
        Dipole field         -0.0003 Ry au, 
 
        Potential amp.        0.0303 Ry
        Total length         54.2615 bohr
 

     total cpu time spent up to now is      563.3 secs

     total energy              =   -7398.07942891 Ry
     estimated scf accuracy    <       0.02239193 Ry

     total magnetization       =    78.67 Bohr mag/cell
     absolute magnetization    =    80.48 Bohr mag/cell

     iteration # 44     ecut=    50.00 Ry     beta= 0.10
     Davidson diagonalization with overlap
     ethr =  1.32E-06,  avg # of iterations =  2.0

     negative rho (up, down):  9.790E-04 1.238E-03
 
     Adding external electric field

     Computed dipole along edir(3) : 
        Dipole               -0.4945 Ry au,         -1.2570 Debye
        Dipole field         -0.0003 Ry au, 
 
        Potential amp.        0.0332 Ry
        Total length         54.2615 bohr
 
 
     Adding external electric field

     Computed dipole along edir(3) : 
        Dipole               -0.4945 Ry au,         -1.2570 Debye
        Dipole field         -0.0003 Ry au, 
 
        Potential amp.        0.0332 Ry
        Total length         54.2615 bohr
 

     total cpu time spent up to now is      574.9 secs

     total energy              =   -7398.07934056 Ry
     estimated scf accuracy    <       0.02206796 Ry

     total magnetization       =    78.68 Bohr mag/cell
     absolute magnetization    =    80.50 Bohr mag/cell

     iteration # 45     ecut=    50.00 Ry     beta= 0.10
     Davidson diagonalization with overlap
     ethr =  1.32E-06,  avg # of iterations =  2.0

     negative rho (up, down):  9.260E-04 1.358E-03
 
     Adding external electric field

     Computed dipole along edir(3) : 
        Dipole               -0.4348 Ry au,         -1.1052 Debye
        Dipole field         -0.0003 Ry au, 
 
        Potential amp.        0.0292 Ry
        Total length         54.2615 bohr
 
 
     Adding external electric field

     Computed dipole along edir(3) : 
        Dipole               -0.4348 Ry au,         -1.1052 Debye
        Dipole field         -0.0003 Ry au, 
 
        Potential amp.        0.0292 Ry
        Total length         54.2615 bohr
 

     total cpu time spent up to now is      586.5 secs

     total energy              =   -7398.07895304 Ry
     estimated scf accuracy    <       0.02267320 Ry

     total magnetization       =    78.69 Bohr mag/cell
     absolute magnetization    =    80.54 Bohr mag/cell

     iteration # 46     ecut=    50.00 Ry     beta= 0.10
     Davidson diagonalization with overlap
     ethr =  1.32E-06,  avg # of iterations =  2.0

     negative rho (up, down):  1.683E-03 2.066E-03
 
     Adding external electric field

     Computed dipole along edir(3) : 
        Dipole               -0.4900 Ry au,         -1.2454 Debye
        Dipole field         -0.0003 Ry au, 
 
        Potential amp.        0.0329 Ry
        Total length         54.2615 bohr
 
 
     Adding external electric field

     Computed dipole along edir(3) : 
        Dipole               -0.4900 Ry au,         -1.2454 Debye
        Dipole field         -0.0003 Ry au, 
 
        Potential amp.        0.0329 Ry
        Total length         54.2615 bohr
 

     total cpu time spent up to now is      598.3 secs

     total energy              =   -7398.07956868 Ry
     estimated scf accuracy    <       0.01955578 Ry

     total magnetization       =    78.65 Bohr mag/cell
     absolute magnetization    =    80.47 Bohr mag/cell

     iteration # 47     ecut=    50.00 Ry     beta= 0.10
     Davidson diagonalization with overlap
     ethr =  1.32E-06,  avg # of iterations =  2.0

     negative rho (up, down):  1.407E-03 1.885E-03
 
     Adding external electric field

     Computed dipole along edir(3) : 
        Dipole               -0.4653 Ry au,         -1.1826 Debye
        Dipole field         -0.0003 Ry au, 
 
        Potential amp.        0.0312 Ry
        Total length         54.2615 bohr
 
 
     Adding external electric field

     Computed dipole along edir(3) : 
        Dipole               -0.4653 Ry au,         -1.1826 Debye
        Dipole field         -0.0003 Ry au, 
 
        Potential amp.        0.0312 Ry
        Total length         54.2615 bohr
 

     total cpu time spent up to now is      609.8 secs

     total energy              =   -7398.07899502 Ry
     estimated scf accuracy    <       0.01720681 Ry

     total magnetization       =    78.65 Bohr mag/cell
     absolute magnetization    =    80.46 Bohr mag/cell

     iteration # 48     ecut=    50.00 Ry     beta= 0.10
     Davidson diagonalization with overlap
     ethr =  1.32E-06,  avg # of iterations =  1.0

     negative rho (up, down):  1.219E-03 1.650E-03
 
     Adding external electric field

     Computed dipole along edir(3) : 
        Dipole               -0.4857 Ry au,         -1.2345 Debye
        Dipole field         -0.0003 Ry au, 
 
        Potential amp.        0.0326 Ry
        Total length         54.2615 bohr
 
 
     Adding external electric field

     Computed dipole along edir(3) : 
        Dipole               -0.4857 Ry au,         -1.2345 Debye
        Dipole field         -0.0003 Ry au, 
 
        Potential amp.        0.0326 Ry
        Total length         54.2615 bohr
 

     total cpu time spent up to now is      619.5 secs

     total energy              =   -7398.07904055 Ry
     estimated scf accuracy    <       0.01795096 Ry

     total magnetization       =    78.65 Bohr mag/cell
     absolute magnetization    =    80.47 Bohr mag/cell

     iteration # 49     ecut=    50.00 Ry     beta= 0.10
     Davidson diagonalization with overlap
     ethr =  1.32E-06,  avg # of iterations =  2.0

     negative rho (up, down):  8.697E-04 1.166E-03
 
     Adding external electric field

     Computed dipole along edir(3) : 
        Dipole               -0.5155 Ry au,         -1.3102 Debye
        Dipole field         -0.0003 Ry au, 
 
        Potential amp.        0.0346 Ry
        Total length         54.2615 bohr
 
 
     Adding external electric field

     Computed dipole along edir(3) : 
        Dipole               -0.5155 Ry au,         -1.3102 Debye
        Dipole field         -0.0003 Ry au, 
 
        Potential amp.        0.0346 Ry
        Total length         54.2615 bohr
 

     total cpu time spent up to now is      630.7 secs

     total energy              =   -7398.07920466 Ry
     estimated scf accuracy    <       0.01639232 Ry

     total magnetization       =    78.65 Bohr mag/cell
     absolute magnetization    =    80.46 Bohr mag/cell

     iteration # 50     ecut=    50.00 Ry     beta= 0.10
     Davidson diagonalization with overlap
     ethr =  1.32E-06,  avg # of iterations =  2.0

     negative rho (up, down):  1.064E-03 1.390E-03
 
     Adding external electric field

     Computed dipole along edir(3) : 
        Dipole               -0.5284 Ry au,         -1.3430 Debye
        Dipole field         -0.0003 Ry au, 
 
        Potential amp.        0.0355 Ry
        Total length         54.2615 bohr
 
 
     Adding external electric field

     Computed dipole along edir(3) : 
        Dipole               -0.5284 Ry au,         -1.3430 Debye
        Dipole field         -0.0003 Ry au, 
 
        Potential amp.        0.0355 Ry
        Total length         54.2615 bohr
 

     total cpu time spent up to now is      641.6 secs

     total energy              =   -7398.07917471 Ry
     estimated scf accuracy    <       0.01461021 Ry

     total magnetization       =    78.68 Bohr mag/cell
     absolute magnetization    =    80.44 Bohr mag/cell

     iteration # 51     ecut=    50.00 Ry     beta= 0.10
     Davidson diagonalization with overlap
     ethr =  1.32E-06,  avg # of iterations =  1.5

     negative rho (up, down):  1.533E-03 1.886E-03
 
     Adding external electric field

     Computed dipole along edir(3) : 
        Dipole               -0.5531 Ry au,         -1.4059 Debye
        Dipole field         -0.0003 Ry au, 
 
        Potential amp.        0.0371 Ry
        Total length         54.2615 bohr
 
 
     Adding external electric field

     Computed dipole along edir(3) : 
        Dipole               -0.5531 Ry au,         -1.4059 Debye
        Dipole field         -0.0003 Ry au, 
 
        Potential amp.        0.0371 Ry
        Total length         54.2615 bohr
 

     total cpu time spent up to now is      652.4 secs

     total energy              =   -7398.07930327 Ry
     estimated scf accuracy    <       0.01452113 Ry

     total magnetization       =    78.70 Bohr mag/cell
     absolute magnetization    =    80.48 Bohr mag/cell

     iteration # 52     ecut=    50.00 Ry     beta= 0.10
     Davidson diagonalization with overlap
     ethr =  1.32E-06,  avg # of iterations =  2.0

     negative rho (up, down):  1.549E-03 1.967E-03
 
     Adding external electric field

     Computed dipole along edir(3) : 
        Dipole               -0.5578 Ry au,         -1.4178 Debye
        Dipole field         -0.0003 Ry au, 
 
        Potential amp.        0.0374 Ry
        Total length         54.2615 bohr
 
 
     Adding external electric field

     Computed dipole along edir(3) : 
        Dipole               -0.5578 Ry au,         -1.4178 Debye
        Dipole field         -0.0003 Ry au, 
 
        Potential amp.        0.0374 Ry
        Total length         54.2615 bohr
 

     total cpu time spent up to now is      663.6 secs

     total energy              =   -7398.07897355 Ry
     estimated scf accuracy    <       0.01443533 Ry

     total magnetization       =    78.71 Bohr mag/cell
     absolute magnetization    =    80.49 Bohr mag/cell

     iteration # 53     ecut=    50.00 Ry     beta= 0.10
     Davidson diagonalization with overlap
     ethr =  1.32E-06,  avg # of iterations =  1.5

     negative rho (up, down):  1.109E-03 1.400E-03
 
     Adding external electric field

     Computed dipole along edir(3) : 
        Dipole               -0.5313 Ry au,         -1.3503 Debye
        Dipole field         -0.0003 Ry au, 
 
        Potential amp.        0.0357 Ry
        Total length         54.2615 bohr
 
 
     Adding external electric field

     Computed dipole along edir(3) : 
        Dipole               -0.5313 Ry au,         -1.3503 Debye
        Dipole field         -0.0003 Ry au, 
 
        Potential amp.        0.0357 Ry
        Total length         54.2615 bohr
 

     total cpu time spent up to now is      674.3 secs

     total energy              =   -7398.07931379 Ry
     estimated scf accuracy    <       0.01448515 Ry

     total magnetization       =    78.70 Bohr mag/cell
     absolute magnetization    =    80.47 Bohr mag/cell

     iteration # 54     ecut=    50.00 Ry     beta= 0.10
     Davidson diagonalization with overlap
     ethr =  1.32E-06,  avg # of iterations =  1.5

     negative rho (up, down):  8.278E-04 9.871E-04
 
     Adding external electric field

     Computed dipole along edir(3) : 
        Dipole               -0.5624 Ry au,         -1.4295 Debye
        Dipole field         -0.0003 Ry au, 
 
        Potential amp.        0.0377 Ry
        Total length         54.2615 bohr
 
 
     Adding external electric field

     Computed dipole along edir(3) : 
        Dipole               -0.5624 Ry au,         -1.4295 Debye
        Dipole field         -0.0003 Ry au, 
 
        Potential amp.        0.0377 Ry
        Total length         54.2615 bohr
 

     total cpu time spent up to now is      685.2 secs

     total energy              =   -7398.07978507 Ry
     estimated scf accuracy    <       0.01426553 Ry

     total magnetization       =    78.71 Bohr mag/cell
     absolute magnetization    =    80.50 Bohr mag/cell

     iteration # 55     ecut=    50.00 Ry     beta= 0.10
     Davidson diagonalization with overlap
     ethr =  1.32E-06,  avg # of iterations =  1.5

     negative rho (up, down):  4.857E-04 6.315E-04
 
     Adding external electric field

     Computed dipole along edir(3) : 
        Dipole               -0.4928 Ry au,         -1.2525 Debye
        Dipole field         -0.0003 Ry au, 
 
        Potential amp.        0.0331 Ry
        Total length         54.2615 bohr
 
 
     Adding external electric field

     Computed dipole along edir(3) : 
        Dipole               -0.4928 Ry au,         -1.2525 Debye
        Dipole field         -0.0003 Ry au, 
 
        Potential amp.        0.0331 Ry
        Total length         54.2615 bohr
 

     total cpu time spent up to now is      696.4 secs

     total energy              =   -7398.07947811 Ry
     estimated scf accuracy    <       0.01430732 Ry

     total magnetization       =    78.73 Bohr mag/cell
     absolute magnetization    =    80.53 Bohr mag/cell

     iteration # 56     ecut=    50.00 Ry     beta= 0.10
     Davidson diagonalization with overlap
     ethr =  1.32E-06,  avg # of iterations =  1.5

     negative rho (up, down):  5.044E-04 6.656E-04
 
     Adding external electric field

     Computed dipole along edir(3) : 
        Dipole               -0.3349 Ry au,         -0.8512 Debye
        Dipole field         -0.0002 Ry au, 
 
        Potential amp.        0.0225 Ry
        Total length         54.2615 bohr
 
 
     Adding external electric field

     Computed dipole along edir(3) : 
        Dipole               -0.3349 Ry au,         -0.8512 Debye
        Dipole field         -0.0002 Ry au, 
 
        Potential amp.        0.0225 Ry
        Total length         54.2615 bohr
 

     total cpu time spent up to now is      707.4 secs

     total energy              =   -7398.07900770 Ry
     estimated scf accuracy    <       0.01273426 Ry

     total magnetization       =    78.72 Bohr mag/cell
     absolute magnetization    =    80.50 Bohr mag/cell

     iteration # 57     ecut=    50.00 Ry     beta= 0.10
     Davidson diagonalization with overlap
     ethr =  1.18E-06,  avg # of iterations =  5.0

     negative rho (up, down):  1.063E-03 1.178E-03
 
     Adding external electric field

     Computed dipole along edir(3) : 
        Dipole               -0.2412 Ry au,         -0.6132 Debye
        Dipole field         -0.0001 Ry au, 
 
        Potential amp.        0.0162 Ry
        Total length         54.2615 bohr
 
 
     Adding external electric field

     Computed dipole along edir(3) : 
        Dipole               -0.2412 Ry au,         -0.6132 Debye
        Dipole field         -0.0001 Ry au, 
 
        Potential amp.        0.0162 Ry
        Total length         54.2615 bohr
 

     total cpu time spent up to now is      720.9 secs

     total energy              =   -7398.07871820 Ry
     estimated scf accuracy    <       0.01021198 Ry

     total magnetization       =    78.73 Bohr mag/cell
     absolute magnetization    =    80.45 Bohr mag/cell

     iteration # 58     ecut=    50.00 Ry     beta= 0.10
     Davidson diagonalization with overlap
     ethr =  9.47E-07,  avg # of iterations =  8.5

     negative rho (up, down):  7.844E-04 7.897E-04
 
     Adding external electric field

     Computed dipole along edir(3) : 
        Dipole               -0.2032 Ry au,         -0.5164 Debye
        Dipole field         -0.0001 Ry au, 
 
        Potential amp.        0.0136 Ry
        Total length         54.2615 bohr
 
 
     Adding external electric field

     Computed dipole along edir(3) : 
        Dipole               -0.2032 Ry au,         -0.5164 Debye
[...]
    -6.0040  -5.9851  -5.9721  -5.9589  -5.9491  -5.9014  -5.8608  -5.8534
    -5.8291  -5.8221  -5.8016  -5.7813  -5.7710  -5.7388  -5.7150  -5.6979
    -5.6957  -5.6754  -5.6594  -5.6549  -5.6300  -5.6124  -5.5748  -5.5369
    -5.5096  -5.4750  -5.4460  -5.4258  -5.4168  -5.3937  -5.3630  -5.2961
    -5.2769  -5.2568  -5.2449  -5.2344  -5.1509  -5.1234  -5.1087  -5.0762
    -5.0461  -5.0062  -4.9863  -4.9721  -4.9366  -4.9254  -4.8955  -4.8731
    -4.8198  -4.7983  -4.7493  -4.7405  -4.7112  -4.7003  -4.6676  -4.5931
    -4.5415  -4.5287  -4.5224  -4.4946  -4.4878  -4.4627  -4.4087  -4.3881
    -4.3775  -4.3163  -4.2608  -4.2285  -4.1953  -4.1817  -4.1523  -4.1412
    -4.0903  -4.0613  -4.0354  -4.0214  -3.9928  -3.9623  -3.9450  -3.9276
    -3.9240  -3.8838  -3.8467  -3.8285  -3.8179  -3.7698  -3.7476  -3.7435
    -3.7265  -3.6994  -3.6823  -3.6767  -3.6676  -3.6412  -3.6399  -3.6192
    -3.5697  -3.5484  -3.5422  -3.5184  -3.5120  -3.5073  -3.4742  -3.4684
    -3.4569  -3.4168  -3.3964  -3.3798  -3.3556  -3.3476  -3.3030  -3.2852
    -3.2775  -3.2473  -3.2225  -3.2080  -3.1987  -3.1819  -3.1697  -3.1604
    -3.1256  -3.1151  -3.0804  -3.0506  -3.0445  -3.0232  -3.0157  -2.9679
    -2.9593  -2.9355  -2.9303  -2.9026  -2.8740  -2.8571  -2.8388  -2.8153
    -2.8029  -2.7896  -2.7882  -2.7794  -2.7735  -2.7623  -2.7533  -2.7390
    -2.7164  -2.7002  -2.6786  -2.6720  -2.6474  -2.6411  -2.6168  -2.6019
    -2.5825  -2.5739  -2.5419  -2.5230  -2.5072  -2.5062  -2.4844  -2.4685
    -2.4343  -2.4341  -2.4115  -2.4091  -2.3656  -2.3567  -2.3228  -2.3209
    -2.2961  -2.2666  -2.2541  -2.2352  -2.2121  -2.2065  -2.1791  -2.1516
    -2.1478  -2.1281  -2.1010  -2.0868  -2.0708  -2.0638  -2.0356  -2.0072
    -2.0062  -1.9956  -1.9843  -1.9667  -1.9355  -1.9254  -1.9097  -1.8864
    -1.8642  -1.8468  -1.8136  -1.8095  -1.8050  -1.7732  -1.7527  -1.7342
    -1.7153  -1.6879  -1.6818  -1.6616  -1.6439  -1.6163  -1.5707  -1.5618
    -1.5578  -1.5432  -1.5126  -1.5041  -1.4814  -1.4578  -1.4485  -1.4301
    -1.4281  -1.3954  -1.3627  -1.3326  -1.3188  -1.3040  -1.2846  -1.2500
    -1.2070  -1.1857  -1.1173  -1.1008  -1.0058  -0.9881  -0.9025  -0.8643
    -0.8452  -0.8061  -0.7101  -0.5544  -0.5199  -0.4124  -0.3417  -0.2373
     0.0859   0.1093   0.1358   0.1762   0.2070   0.2148   0.2264   0.2318
     0.2564   0.2703   0.2824   0.2914   0.2984   0.3003   0.3235   0.3304
     0.3341   0.3430   0.3501   0.3601   0.3649   0.3791   0.3826   0.3895
     0.3981   0.4015   0.4056   0.4111   0.4234   0.4285   0.4308   0.4382
     0.4454   0.4618   0.4662   0.4699   0.4730   0.4800   0.4831   0.4893
     0.5062   0.5155   0.5194   0.5213   0.5271   0.5365   0.5408   0.5517
     0.5609   0.5723   0.5841   0.5861   0.5972   0.5987   0.6075   0.6161
     0.6221   0.6272   0.6336   0.6381   0.6503   0.6527   0.6593   0.6647
     0.6739   0.6799   0.7002   0.7065   0.7153   0.7246   0.7255   0.7263
     0.7292   0.7447   0.7482   0.7711   0.7800   0.7895   0.7975   0.8088
     0.8094   0.8217   0.8222   0.8361   0.8434   0.8489   0.8573   0.8718
     0.8735   0.8937   0.8963   0.9182   0.9206   0.9417   0.9569   0.9782
     0.9925   1.1026   1.1364   1.6516   1.6595   1.6648   1.6934   1.6944
     1.7144   1.7171   1.8069   1.8294   1.8586   1.8778   1.9194   1.9247
     1.9445   1.9739   1.9943   1.9984   2.0261   2.0442   2.0508   2.0824
     2.1042   2.1118   2.1465   2.1637   2.1740   2.1867   2.2149   2.2202
     2.2246   2.2401   2.2434   2.2645   2.2756   2.2829   2.3010   2.3124
     2.3202   2.3295   2.3349   2.3591   2.3690   2.3899   2.4047   2.4169
     2.4421   2.4432   2.4696   2.4760   2.4995   2.5051   2.5184   2.5487
     2.5616   2.5708   2.5886   2.6259   2.6560   2.6986   2.7152   2.7736
     2.7789   2.7918   2.8269   2.8504   2.8902   3.2591   3.4476   3.6946
     3.7675   3.8444   3.9128   3.9789   4.0039   4.0697   4.3204   4.4109
     4.6167   4.7436   4.8596   4.8893   4.9306   5.0219   5.3780   6.2850
     6.3311   6.4803   6.5592   6.6488   6.7083   6.8026   6.8111   6.8563
     7.0000   7.0288   7.0905   7.1103   7.2848   7.3355   7.3416   7.3732
     7.4988   7.5818   7.6286   7.6593   7.6919   7.6954   7.7812   7.8131
     7.8636   7.9067   7.9324   7.9470   7.9800   7.9934   8.0469   8.0741
     8.0932   8.1140   8.1490   8.1936   8.2333   8.2487   8.2700   8.2988
     8.3117   8.3427   8.3832   8.4320   8.4543   8.4643   8.4958   8.5154
     8.5339   8.5424   8.5506   8.5754   8.6071   8.6288   8.6341   8.6618
     8.6934   8.7132   8.7342   8.7958   8.8196   8.8352   8.9030

     the Fermi energy is     1.5497 ev

!    total energy              =   -7398.07882951 Ry
     estimated scf accuracy    <       0.00000096 Ry
     smearing contrib. (-TS)   =      -0.01376642 Ry
     internal energy E=F+TS    =   -7398.06506309 Ry

     The total energy is F=E-TS. E is the sum of the following terms:
     one-electron contribution =  -91725.90959638 Ry
     hartree contribution      =   46509.65148916 Ry
     xc contribution           =   -2260.23563166 Ry
     ewald contribution        =   40080.26159869 Ry
     Dispersion Correction     =      -1.83293270 Ry
     electric field correction =       0.00000980 Ry

     total magnetization       =    78.78 Bohr mag/cell
     absolute magnetization    =    80.44 Bohr mag/cell

     convergence has been achieved in  83 iterations

     negative rho (up, down):  9.272E-04 5.559E-04

     Forces acting on atoms (cartesian axes, Ry/au):

     atom    1 type  2   force =     0.00043364    0.00104995   -0.00079631
     atom    2 type  1   force =     0.00008524    0.00007387    0.00028872
     atom    3 type  1   force =    -0.00001955   -0.00097907   -0.00026457
     atom    4 type  1   force =    -0.00016952    0.00009457    0.00077500
     atom    5 type  1   force =    -0.00031128    0.00012732    0.00071202
     atom    6 type  1   force =    -0.00011842   -0.00083502    0.00036656
     atom    7 type  1   force =    -0.00014593   -0.00003988   -0.00000244
     atom    8 type  1   force =    -0.00046789   -0.00008169    0.00017107
     atom    9 type  1   force =    -0.00011088    0.00019487   -0.00050015
     atom   10 type  1   force =    -0.00034559    0.00019952    0.00043791
     atom   11 type  1   force =    -0.00043645    0.00062486   -0.00021263
     atom   12 type  1   force =     0.00028243   -0.00003370   -0.00059152
     atom   13 type  3   force =    -0.00044867   -0.00016068   -0.00022159
     atom   14 type  3   force =    -0.00003667   -0.00004483   -0.00036216
     atom   15 type  3   force =    -0.00015708   -0.00009037   -0.00034782
     atom   16 type  3   force =     0.00000824   -0.00001531   -0.00016336
     atom   17 type  4   force =     0.00010134   -0.00016039    0.00010493
     atom   18 type  4   force =     0.00043933   -0.00017831    0.00013468
     atom   19 type  4   force =     0.00028544   -0.00051507    0.00085376
     atom   20 type  4   force =    -0.00010383    0.00043669    0.00021706
     atom   21 type  4   force =    -0.00030745    0.00022162   -0.00001984
     atom   22 type  4   force =    -0.00013457    0.00023147   -0.00027991
     atom   23 type  4   force =     0.00011521   -0.00057348   -0.00101150
     atom   24 type  4   force =     0.00012277   -0.00005566    0.00018677
     atom   25 type  4   force =    -0.00021472    0.00007436    0.00016617
     atom   26 type  4   force =     0.00053438   -0.00011212    0.00007723
     atom   27 type  4   force =    -0.00003496    0.00038599    0.00006312
     atom   28 type  4   force =     0.00000577    0.00002391   -0.00036770
     atom   29 type  4   force =    -0.00012077   -0.00037564    0.00006413
     atom   30 type  4   force =    -0.00050550   -0.00006760   -0.00022971
     atom   31 type  4   force =    -0.00010376    0.00009333   -0.00028317
     atom   32 type  4   force =    -0.00011519    0.00022346   -0.00050044
     atom   33 type  3   force =     0.00074118    0.00006782    0.00040124
     atom   34 type  3   force =    -0.00035127    0.00005227    0.00029526
     atom   35 type  3   force =     0.00018341   -0.00009269    0.00006490
     atom   36 type  3   force =    -0.00029455   -0.00006182   -0.00030637
     atom   37 type  4   force =     0.00010171    0.00011915    0.00001773
     atom   38 type  4   force =    -0.00002923    0.00034987    0.00006343
     atom   39 type  4   force =    -0.00015671   -0.00000176    0.00026020
     atom   40 type  4   force =    -0.00025997   -0.00008114   -0.00039737
     atom   41 type  4   force =    -0.00000703   -0.00016541   -0.00014591
     atom   42 type  4   force =     0.00007603    0.00023399   -0.00028367
     atom   43 type  4   force =     0.00029486   -0.00006541   -0.00005017
     atom   44 type  4   force =     0.00002852   -0.00022049   -0.00010237
     atom   45 type  4   force =    -0.00015621   -0.00002658   -0.00020027
     atom   46 type  4   force =     0.00040253    0.00000087   -0.00005528
     atom   47 type  4   force =     0.00008579   -0.00030950    0.00016474
     atom   48 type  4   force =     0.00049754    0.00050148   -0.00024172
     atom   49 type  4   force =     0.00005534   -0.00003753   -0.00036196
     atom   50 type  4   force =    -0.00017295    0.00002626    0.00002971
     atom   51 type  4   force =     0.00007934   -0.00026071    0.00002124
     atom   52 type  4   force =     0.00001380   -0.00028633   -0.00010397
     atom   53 type  2   force =     0.00245402   -0.00344124    0.00536637
     atom   54 type  1   force =     0.00509683   -0.00223502    0.00370217
     atom   55 type  1   force =     0.00810503   -0.00308293    0.00261531
     atom   56 type  1   force =    -0.00188761    0.01039234    0.00587577
     atom   57 type  1   force =     0.00027225    0.02299288    0.01468278
     atom   58 type  1   force =     0.00214655   -0.00333621   -0.00167452
     atom   59 type  1   force =     0.00089679   -0.00882897    0.00109583
     atom   60 type  1   force =    -0.00519875   -0.00186914    0.00465179
     atom   61 type  1   force =    -0.00182777   -0.00050140    0.00419517
     atom   62 type  1   force =    -0.00441787    0.00832249    0.00574369
     atom   63 type  1   force =    -0.01135793    0.02580016    0.01859984
     atom   64 type  1   force =    -0.00206751    0.00112166    0.00129481
     atom   65 type  3   force =     0.04620183   -0.11393121   -0.01061270
     atom   66 type  3   force =    -0.00058669   -0.00145825    0.00420806
     atom   67 type  3   force =    -0.03974446    0.12466436    0.01502704
     atom   68 type  3   force =     0.06273815   -0.00163969   -0.00336309
     atom   69 type  4   force =     0.01379882   -0.01833438    0.00363858
     atom   70 type  4   force =    -0.00069004    0.00266519   -0.00125282
     atom   71 type  4   force =    -0.00119222    0.00361050   -0.00555975
     atom   72 type  4   force =     0.00407944    0.00180285   -0.00068701
     atom   73 type  4   force =     0.00089439   -0.01154475    0.00264372
     atom   74 type  4   force =    -0.00019975   -0.00069057   -0.00008113
     atom   75 type  4   force =     0.00140315    0.01463078    0.00520292
     atom   76 type  4   force =     0.00836236    0.00519864    0.00922089
     atom   77 type  4   force =     0.00712126   -0.00259539    0.00154058
     atom   78 type  4   force =     0.04464569   -0.14180264   -0.00647522
     atom   79 type  4   force =     0.00175083    0.00192099    0.00138439
     atom   80 type  4   force =    -0.00009356    0.00290988   -0.00163676
     atom   81 type  4   force =     0.06799788    0.00046817   -0.00648245
     atom   82 type  4   force =    -0.00011250    0.00067750   -0.00149222
     atom   83 type  4   force =    -0.03924902    0.13498259    0.00264634
     atom   84 type  4   force =    -0.00285094   -0.01098733   -0.00418875
     atom   85 type  3   force =     0.03993440   -0.12017756   -0.01830410
     atom   86 type  3   force =    -0.06404236    0.00009775    0.00869013
     atom   87 type  3   force =    -0.04513241    0.12430736    0.01707640
     atom   88 type  3   force =    -0.00169693    0.00015024    0.00255198
     atom   89 type  4   force =     0.00900465   -0.01526362    0.00391954
     atom   90 type  4   force =    -0.00489509    0.00150466   -0.00012345
     atom   91 type  4   force =    -0.00890970    0.00826671   -0.00591131
     atom   92 type  4   force =     0.00011931    0.00010669   -0.00060106
     atom   93 type  4   force =    -0.00177373   -0.00835168    0.00739068
     atom   94 type  4   force =    -0.00408439    0.00021411    0.00118358
     atom   95 type  4   force =    -0.00375214    0.01403691    0.00664902
     atom   96 type  4   force =     0.00415586    0.00516637    0.00963752
     atom   97 type  4   force =     0.00001774    0.00036430    0.00065210
     atom   98 type  4   force =     0.04026610   -0.14077535   -0.00490844
     atom   99 type  4   force =    -0.06675591   -0.00000777    0.00632767
     atom  100 type  4   force =    -0.00174336    0.00404114   -0.00241017
     atom  101 type  4   force =     0.00026283    0.00069512   -0.00079617
     atom  102 type  4   force =    -0.00633147    0.00375656   -0.00137854
     atom  103 type  4   force =    -0.04025767    0.13350792    0.00429733
     atom  104 type  4   force =    -0.00693278   -0.00984685   -0.00521831
     atom  105 type  2   force =     0.00422472   -0.00654478   -0.01796401
     atom  106 type  1   force =     0.02825761    0.01426239    0.01176845
     atom  107 type  1   force =     0.00862925   -0.00620804   -0.01408651
     atom  108 type  1   force =    -0.02829432    0.02171518    0.01878924
     atom  109 type  1   force =     0.00489928    0.01619848    0.00952121
     atom  110 type  1   force =    -0.00242361   -0.00881853   -0.00670244
     atom  111 type  1   force =    -0.00095673   -0.00943699   -0.01156715
     atom  112 type  1   force =     0.02902570    0.01752447    0.01140556
     atom  113 type  1   force =    -0.00062800   -0.00499029   -0.01393946
     atom  114 type  1   force =    -0.02971338    0.02068607    0.01860989
     atom  115 type  1   force =    -0.00705446    0.01861203    0.01221702
     atom  116 type  1   force =    -0.00567060   -0.00439727   -0.00292363
     atom  117 type  3   force =     0.01422871   -0.17391441   -0.10884035
     atom  118 type  3   force =     0.00518215   -0.00851420   -0.01264617
     atom  119 type  3   force =    -0.04467368    0.12490529   -0.00192740
     atom  120 type  3   force =     0.09507703   -0.04106312   -0.07976697
     atom  121 type  4   force =     0.00609029   -0.01710460    0.03721815
     atom  122 type  4   force =    -0.00351855    0.00373805    0.00447130
     atom  123 type  4   force =    -0.00083901    0.00259547   -0.00286217
     atom  124 type  4   force =     0.00851002    0.00214641    0.02698532
     atom  125 type  4   force =     0.00986100   -0.01692540    0.01585285
     atom  126 type  4   force =    -0.00749246    0.00099582   -0.00306874
     atom  127 type  4   force =     0.00399674    0.00971429    0.00047228
     atom  128 type  4   force =    -0.00061269   -0.00111364    0.03011111
     atom  129 type  4   force =    -0.00763471    0.02556173    0.00117635
     atom  130 type  4   force =     0.04343050   -0.14592209   -0.00190482
     atom  131 type  4   force =    -0.01743840   -0.00039543    0.00286166
     atom  132 type  4   force =     0.00336538    0.00267109    0.00200456
     atom  133 type  4   force =     0.06974289    0.00365565   -0.00190899
     atom  134 type  4   force =     0.00095529    0.00364927    0.00271555
     atom  135 type  4   force =    -0.02758504    0.17230018    0.00604690
     atom  136 type  4   force =     0.01963753   -0.00861227    0.00399980
     atom  137 type  3   force =     0.00909219   -0.16687773   -0.09429081
     atom  138 type  3   force =    -0.06465007   -0.00209691   -0.00497505
     atom  139 type  3   force =    -0.04874533    0.11823141    0.00148470
     atom  140 type  3   force =     0.03144379   -0.04324218   -0.07373804
     atom  141 type  4   force =     0.00465155   -0.01331607    0.03212413
     atom  142 type  4   force =    -0.00546188   -0.00030963    0.00427387
     atom  143 type  4   force =    -0.00820772    0.00810982   -0.00351823
     atom  144 type  4   force =     0.00384626    0.00135310    0.02756356
     atom  145 type  4   force =     0.00689370   -0.01301556    0.03230216
     atom  146 type  4   force =    -0.00878050   -0.00175323   -0.00302459
     atom  147 type  4   force =     0.00031391    0.00990073    0.00266439
     atom  148 type  4   force =    -0.00790541    0.00120952    0.02907165
     atom  149 type  4   force =    -0.01316147    0.02944473    0.00049813
     atom  150 type  4   force =     0.03979496   -0.13831013   -0.00140372
     atom  151 type  4   force =    -0.08621000   -0.00174479    0.00914869
     atom  152 type  4   force =     0.00123155    0.00390942    0.00142431
     atom  153 type  4   force =    -0.00353862    0.00084448    0.00296682
     atom  154 type  4   force =    -0.00591867    0.00595903    0.00132347
     atom  155 type  4   force =    -0.02796826    0.16646619    0.00484520
     atom  156 type  4   force =     0.01058312   -0.00971128   -0.00137906
     atom  157 type  4   force =     0.00079520    0.00055524   -0.00030956
     atom  158 type  5   force =    -0.00175565    0.00026889    0.00074183

     Total force =     0.670899     Total SCF correction =     0.003796
 
     init_run     :      7.36s CPU      7.96s WALL (       1 calls)
     electrons    :    978.05s CPU   1020.84s WALL (       1 calls)
     forces       :      3.94s CPU      4.18s WALL (       1 calls)
     force_london :      0.09s CPU      0.09s WALL (       1 calls)

     Called by init_run:
     wfcinit      :      4.23s CPU      4.35s WALL (       1 calls)
     potinit      :      0.57s CPU      0.75s WALL (       1 calls)
     hinit0       :      1.51s CPU      1.60s WALL (       1 calls)

     Called by electrons:
     c_bands      :    761.29s CPU    783.47s WALL (      83 calls)
     sum_band     :    139.28s CPU    150.48s WALL (      83 calls)
     v_of_rho     :     14.66s CPU     15.53s WALL (      84 calls)
     newd         :     42.33s CPU     50.96s WALL (      84 calls)
     mix_rho      :     19.86s CPU     19.98s WALL (      83 calls)
     energy_londo :      0.09s CPU      0.09s WALL (       1 calls)

     Called by c_bands:
     init_us_2    :      1.80s CPU      1.86s WALL (     336 calls)
     init_us_2:cp :      1.80s CPU      1.85s WALL (     336 calls)
     regterg      :    744.31s CPU    766.22s WALL (     167 calls)

     Called by *egterg:
     rdiaghg      :    192.23s CPU    203.53s WALL (     640 calls)
     h_psi        :    285.80s CPU    290.46s WALL (     642 calls)
     s_psi        :     49.55s CPU     49.57s WALL (     642 calls)
     g_psi        :      0.36s CPU      0.36s WALL (     473 calls)

     Called by h_psi:
     h_psi:calbec :     81.26s CPU     85.18s WALL (     642 calls)
     vloc_psi     :    153.72s CPU    154.38s WALL (     642 calls)
     add_vuspsi   :     50.30s CPU     50.38s WALL (     642 calls)

     General routines
     calbec       :    120.40s CPU    126.38s WALL (     816 calls)
     fft          :     27.17s CPU     28.25s WALL (    1525 calls)
     ffts         :     12.75s CPU     12.78s WALL (   10337 calls)
     fftw         :    179.80s CPU    180.51s WALL (  277758 calls)
     interpolate  :      1.27s CPU      1.36s WALL (     168 calls)
 
     Parallel routines
 
     PWSCF        :  16m31.36s CPU  17m15.29s WALL

 
   This run was terminated on:  22:21:12  19Nov2025            

=------------------------------------------------------------------------------=
   JOB DONE.
=------------------------------------------------------------------------------=
