
     Program PWSCF v.7.2 starts on 19Nov2025 at 19:47:47 

     This program is part of the open-source Quantum ESPRESSO suite
     for quantum simulation of materials; please cite
         "P. Giannozzi et al., J. Phys.:Condens. Matter 21 395502 (2009);
         "P. Giannozzi et al., J. Phys.:Condens. Matter 29 465901 (2017);
         "P. Giannozzi et al., J. Chem. Phys. 152 154105 (2020);
          URL http://www.quantum-espresso.org", 
     in publications or presentations arising from this work. More details at
     http://www.quantum-espresso.org/quote

     Parallel version (MPI), running on    64 processors

     MPI processes distributed on     4 nodes
     384823 MiB available memory on the printing compute node when the environment starts
 
     Reading input from PWINPUT_atm157_ym

     Current dimensions of program PWSCF are:
     Max number of different atomic species (ntypx) = 10
     Max number of k-points (npk) =  40000
     Max angular momentum in pseudopotentials (lmaxx) =  4
     Presently no symmetry can be used with electric field

     file Ni.pbe-n-rrkjus_psl.1.0.0.UPF: wavefunction(s)  3D renormalized
     file Mn.pbe-spn-rrkjus_psl.0.3.1.UPF: wavefunction(s)  3D renormalized
     file O.pbe-rrkjus.UPF: wavefunction(s)  2S renormalized
     file H.pbe-rrkjus.UPF: wavefunction(s)  1S renormalized

     gamma-point specific algorithms are used
 
     R & G space division:  proc/nbgrp/npool/nimage =      64
     Subspace diagonalization in iterative solution of the eigenvalue problem:
     one sub-group per band group will be used
     custom distributed-memory algorithm (size of sub-group:  6*  6 procs)

 
     Parallelization info
     --------------------
     sticks:   dense  smooth     PW     G-vecs:    dense   smooth      PW
     Min         208      82     20                59912    15118    1876
     Max         210      84     22                59974    15196    1926
     Sum       13399    5355   1345              3836275   970529  121367
 
     Using Slab Decomposition
 


     bravais-lattice index     =            0
     lattice parameter (alat)  =      17.7004  a.u.
     unit-cell volume          =   20319.7251 (a.u.)^3
     number of atoms/cell      =          158
     number of atomic types    =            5
     number of electrons       =      1078.00
     number of Kohn-Sham states=          647
     kinetic-energy cutoff     =      50.0000  Ry
     charge density cutoff     =     500.0000  Ry
     scf convergence threshold =      1.0E-06
     mixing beta               =       0.1000
     number of iterations used =            8  local-TF  mixing
     Exchange-correlation=  SLA  PW   PBE  PBE
                           (   1   4   3   4   0   0   0)

     celldm(1)=  17.700384  celldm(2)=   0.000000  celldm(3)=   0.000000
     celldm(4)=   0.000000  celldm(5)=   0.000000  celldm(6)=   0.000000

     crystal axes: (cart. coord. in units of alat)
               a(1) = (   1.000000   0.000000   0.000000 )  
               a(2) = (   0.000000   1.075730   0.000000 )  
               a(3) = (   0.000000   0.000000   3.406172 )  

     reciprocal axes: (cart. coord. in units 2 pi/alat)
               b(1) = (  1.000000  0.000000  0.000000 )  
               b(2) = (  0.000000  0.929602  0.000000 )  
               b(3) = (  0.000000  0.000000  0.293585 )  


     PseudoPot. # 1 for Ni read from file:
     ~/PSEUDO/Ni.pbe-n-rrkjus_psl.1.0.0.UPF
     MD5 check sum: Not computed, couldn't open file
     Pseudo is Ultrasoft + core correction, Zval = 10.0
     Generated using "atomic" code by A. Dal Corso  v.5.1.2
     Using radial grid of 1195 points,  6 beta functions with: 
                l(1) =   0
                l(2) =   0
                l(3) =   1
                l(4) =   1
                l(5) =   2
                l(6) =   2
     Q(r) pseudized with 0 coefficients 


     PseudoPot. # 2 for Mn read from file:
     ~/PSEUDO/Mn.pbe-spn-rrkjus_psl.0.3.1.UPF
     MD5 check sum: Not computed, couldn't open file
     Pseudo is Ultrasoft + core correction, Zval = 15.0
     Generated using &quot;atomic&quot; code by A. Dal Corso  v.6.2.2
     Using radial grid of 1187 points,  6 beta functions with: 
                l(1) =   0
                l(2) =   0
                l(3) =   1
                l(4) =   1
                l(5) =   2
                l(6) =   2
     Q(r) pseudized with 0 coefficients 


     PseudoPot. # 3 for P  read from file:
     ~/PSEUDO/P.pbe-n-rrkjus_psl.1.0.0.UPF
     MD5 check sum: Not computed, couldn't open file
     Pseudo is Ultrasoft + core correction, Zval =  5.0
     Generated using "atomic" code by A. Dal Corso  v.5.1
     Using radial grid of 1147 points,  6 beta functions with: 
                l(1) =   0
                l(2) =   0
                l(3) =   1
                l(4) =   1
                l(5) =   2
                l(6) =   2
     Q(r) pseudized with 0 coefficients 


     PseudoPot. # 4 for O  read from file:
     ~/PSEUDO/O.pbe-rrkjus.UPF
     MD5 check sum: Not computed, couldn't open file
     Pseudo is Ultrasoft, Zval =  6.0
     Generated by new atomic code, or converted to UPF format
     Using radial grid of 1269 points,  4 beta functions with: 
                l(1) =   0
                l(2) =   0
                l(3) =   1
                l(4) =   1
     Q(r) pseudized with 0 coefficients 


     PseudoPot. # 5 for H  read from file:
     ~/PSEUDO/H.pbe-rrkjus.UPF
     MD5 check sum: Not computed, couldn't open file
     Pseudo is Ultrasoft, Zval =  1.0
     Generated by new atomic code, or converted to UPF format
     Using radial grid of 1061 points,  2 beta functions with: 
                l(1) =   0
                l(2) =   0
     Q(r) pseudized with 0 coefficients 


     atomic species   valence    mass     pseudopotential
     Ni               10.00    58.69300     Ni( 1.00)
     Mn               15.00    54.93800     Mn( 1.00)
     P                 5.00    30.97300     P ( 1.00)
     O                 6.00    15.99900     O ( 1.00)
     H                 1.00     1.00790     H ( 1.00)

     Starting magnetic structure 
     atomic species   magnetization
     Ni              1.000
     Mn              1.000
     P               1.000
     O               1.000
     H               0.000

     No symmetry found



   Cartesian axes

     site n.     atom                  positions (alat units)
         1        Mn     tau(   1) = (   0.2517087   0.8371115   1.7089200  )
         2        Ni     tau(   2) = (   0.4946298   0.7752973   1.3725824  )
         3        Ni     tau(   3) = (   0.0015481   0.2961171   1.6749872  )
         4        Ni     tau(   4) = (   0.2613521   0.2396234   1.3678359  )
         5        Ni     tau(   5) = (   0.9984933   1.0749377   1.5355607  )
         6        Ni     tau(   6) = (   0.2572590   0.5404195   1.5326386  )
         7        Ni     tau(   7) = (   0.7529013   0.8355294   1.6752854  )
         8        Ni     tau(   8) = (   0.9935933   0.7756548   1.3720141  )
         9        Ni     tau(   9) = (   0.5024742   0.2964342   1.6745479  )
        10        Ni     tau(  10) = (   0.7618978   0.2375431   1.3667264  )
        11        Ni     tau(  11) = (   0.4990156   1.0768182   1.5305295  )
        12        Ni     tau(  12) = (   0.7564696   0.5358840   1.5310064  )
        13        P      tau(  13) = (   0.2101543   0.9720156   1.3797127  )
        14        P      tau(  14) = (   0.4706542   0.6451455   1.6955617  )
        15        P      tau(  15) = (   0.2884324   0.1127271   1.6923494  )
        16        P      tau(  16) = (   0.0456337   0.4340918   1.3707912  )
        17        O      tau(  17) = (   0.1335059   0.8997101   1.5140650  )
        18        O      tau(  18) = (   0.3867827   0.7182378   1.5594019  )
        19        O      tau(  19) = (   0.3670053   0.1737862   1.5463102  )
        20        O      tau(  20) = (   0.1240237   0.3636575   1.5070371  )
        21        O      tau(  21) = (   0.1473160   0.8837944   1.2542796  )
        22        O      tau(  22) = (   0.4146853   0.7340483   1.8196848  )
        23        O      tau(  23) = (   0.3495356   0.2093518   1.8074273  )
        24        O      tau(  24) = (   0.1052584   0.3464292   1.2439881  )
        25        O      tau(  25) = (   0.1049117   0.5895470   1.3757347  )
        26        O      tau(  26) = (   0.3473708   1.0308751   1.6857652  )
        27        O      tau(  27) = (   0.3810036   0.4281764   1.3825697  )
        28        O      tau(  28) = (   0.1238775   0.1159040   1.6775620  )
        29        O      tau(  29) = (   0.1305439   0.6501957   1.6820985  )
        30        O      tau(  30) = (   0.4132477   0.4886172   1.6862595  )
        31        O      tau(  31) = (   0.1524630   0.0515712   1.3799009  )
        32        O      tau(  32) = (   0.3743678   0.9633656   1.3849747  )
        33        P      tau(  33) = (   0.7103643   0.9714602   1.3712571  )
        34        P      tau(  34) = (   0.9649208   0.6440558   1.6927385  )
        35        P      tau(  35) = (   0.7871885   0.1098825   1.6920406  )
        36        P      tau(  36) = (   0.5450176   0.4335131   1.3702334  )
        37        O      tau(  37) = (   0.6319749   0.9002438   1.5073571  )
        38        O      tau(  38) = (   0.8891581   0.7073457   1.5481759  )
        39        O      tau(  39) = (   0.8662231   0.1700413   1.5462886  )
        40        O      tau(  40) = (   0.6235591   0.3611085   1.5054814  )
        41        O      tau(  41) = (   0.6491843   0.8831538   1.2455076  )
        42        O      tau(  42) = (   0.9034437   0.7399336   1.8095699  )
        43        O      tau(  43) = (   0.8478548   0.2077401   1.8063738  )
        44        O      tau(  44) = (   0.6060435   0.3462002   1.2436710  )
        45        O      tau(  45) = (   0.6035774   0.5890693   1.3768175  )
        46        O      tau(  46) = (   0.8421571   1.0273722   1.6917632  )
        47        O      tau(  47) = (   0.8816644   0.4266506   1.3828449  )
        48        O      tau(  48) = (   0.6221997   0.1135664   1.6772983  )
        49        O      tau(  49) = (   0.6347776   0.6499156   1.6770748  )
        50        O      tau(  50) = (   0.9100442   0.4869846   1.6900532  )
        51        O      tau(  51) = (   0.6512513   0.0508446   1.3744142  )
        52        O      tau(  52) = (   0.8740844   0.9637479   1.3848135  )
        53        Mn     tau(  53) = (   0.2404744   0.8246335   1.0701417  )
        54        Ni     tau(  54) = (   0.4968126   0.7601755   0.7454373  )
        55        Ni     tau(  55) = (   0.0066150   0.2811828   1.0628866  )
        56        Ni     tau(  56) = (   0.2585722   0.2230943   0.7421070  )
        57        Ni     tau(  57) = (   0.9987350   1.0571496   0.9014992  )
        58        Ni     tau(  58) = (   0.2517397   0.5205596   0.9040596  )
        59        Ni     tau(  59) = (   0.7451645   0.8212628   1.0648168  )
        60        Ni     tau(  60) = (   0.9939181   0.7613889   0.7462324  )
        61        Ni     tau(  61) = (   0.5111533   0.2799173   1.0618053  )
        62        Ni     tau(  62) = (   0.7606326   0.2194352   0.7418547  )
        63        Ni     tau(  63) = (   0.5024065   1.0563218   0.8999416  )
        64        Ni     tau(  64) = (   0.7529977   0.5192985   0.9024691  )
        65        P      tau(  65) = (   0.2092944   0.9606182   0.7524883  )
        66        P      tau(  66) = (   0.4655727   0.6234620   1.0595283  )
        67        P      tau(  67) = (   0.2910699   0.0902448   1.0573821  )
        68        P      tau(  68) = (   0.0396216   0.4163480   0.7471080  )
        69        O      tau(  69) = (   0.1294378   0.8888345   0.8859300  )
        70        O      tau(  70) = (   0.3874505   0.6929859   0.9232915  )
        71        O      tau(  71) = (   0.3702540   0.1589885   0.9209891  )
        72        O      tau(  72) = (   0.1184398   0.3458043   0.8831565  )
        73        O      tau(  73) = (   0.1451572   0.8725966   0.6282341  )
        74        O      tau(  74) = (   0.4048762   0.7120670   1.1852426  )
        75        O      tau(  75) = (   0.3523506   0.1775664   1.1834175  )
        76        O      tau(  76) = (   0.1017610   0.3285569   0.6213347  )
        77        O      tau(  77) = (   0.0975396   0.5724373   0.7511996  )
        78        O      tau(  78) = (   0.3483552   1.0190030   1.0599597  )
        79        O      tau(  79) = (   0.3784305   0.4100203   0.7560991  )
        80        O      tau(  80) = (   0.1268237   0.0943029   1.0477175  )
        81        O      tau(  81) = (   0.1212267   0.6299255   1.0507023  )
        82        O      tau(  82) = (   0.4053315   0.4684472   1.0569297  )
        83        O      tau(  83) = (   0.1536621   0.0322003   0.7496532  )
        84        O      tau(  84) = (   0.3732349   0.9506802   0.7613277  )
        85        P      tau(  85) = (   0.7119823   0.9571059   0.7496908  )
        86        P      tau(  86) = (   0.9615208   0.6238477   1.0606987  )
        87        P      tau(  87) = (   0.7927710   0.0845145   1.0577754  )
        88        P      tau(  88) = (   0.5426404   0.4144760   0.7459181  )
        89        O      tau(  89) = (   0.6326879   0.8866267   0.8856678  )
        90        O      tau(  90) = (   0.8842163   0.6958291   0.9244764  )
        91        O      tau(  91) = (   0.8716178   0.1552836   0.9216415  )
        92        O      tau(  92) = (   0.6212010   0.3433751   0.8818834  )
        93        O      tau(  93) = (   0.6507714   0.8687427   0.6238197  )
        94        O      tau(  94) = (   0.9014054   0.7139543   1.1859242  )
        95        O      tau(  95) = (   0.8548963   0.1722994   1.1834447  )
        96        O      tau(  96) = (   0.6044469   0.3253792   0.6209553  )
        97        O      tau(  97) = (   0.6024424   0.5698225   0.7490903  )
        98        O      tau(  98) = (   0.8498940   1.0129567   1.0594762  )
        99        O      tau(  99) = (   0.8798395   0.4080910   0.7564148  )
       100        O      tau( 100) = (   0.6286921   0.0909721   1.0472573  )
       101        O      tau( 101) = (   0.6294973   0.6302838   1.0497366  )
       102        O      tau( 102) = (   0.9024339   0.4685397   1.0573501  )
       103        O      tau( 103) = (   0.6547812   0.0286072   0.7473283  )
       104        O      tau( 104) = (   0.8760507   0.9507690   0.7605412  )
       105        Mn     tau( 105) = (   0.2404744   0.8121420   0.4502541  )
       106        Ni     tau( 106) = (   0.4968126   0.7476840   0.1255496  )
       107        Ni     tau( 107) = (   0.0066150   0.2686914   0.4429989  )
       108        Ni     tau( 108) = (   0.2585722   0.2106028   0.1222194  )
       109        Ni     tau( 109) = (   0.9987350   1.0446581   0.2816116  )
       110        Ni     tau( 110) = (   0.2517397   0.5080681   0.2841720  )
       111        Ni     tau( 111) = (   0.7451645   0.8087713   0.4449291  )
       112        Ni     tau( 112) = (   0.9939181   0.7488974   0.1263448  )
       113        Ni     tau( 113) = (   0.5111533   0.2674258   0.4419177  )
       114        Ni     tau( 114) = (   0.7606326   0.2069438   0.1219670  )
       115        Ni     tau( 115) = (   0.5024065   1.0438304   0.2800540  )
       116        Ni     tau( 116) = (   0.7529977   0.5068070   0.2825815  )
       117        P      tau( 117) = (   0.2092944   0.9481267   0.1326007  )
       118        P      tau( 118) = (   0.4655727   0.6109705   0.4396407  )
       119        P      tau( 119) = (   0.2910699   0.0777534   0.4374945  )
       120        P      tau( 120) = (   0.0396216   0.4038566   0.1272204  )
       121        O      tau( 121) = (   0.1294378   0.8763430   0.2660424  )
       122        O      tau( 122) = (   0.3874505   0.6804944   0.3034039  )
       123        O      tau( 123) = (   0.3702540   0.1464970   0.3011014  )
       124        O      tau( 124) = (   0.1184398   0.3333129   0.2632689  )
       125        O      tau( 125) = (   0.1451572   0.8601051   0.0083464  )
       126        O      tau( 126) = (   0.4048762   0.6995756   0.5653550  )
       127        O      tau( 127) = (   0.3523506   0.1650749   0.5635298  )
       128        O      tau( 128) = (   0.1017610   0.3160655   0.0014470  )
       129        O      tau( 129) = (   0.0975396   0.5599458   0.1313120  )
       130        O      tau( 130) = (   0.3483552   1.0065115   0.4400720  )
       131        O      tau( 131) = (   0.3784305   0.3975288   0.1362114  )
       132        O      tau( 132) = (   0.1268237   0.0818115   0.4278298  )
       133        O      tau( 133) = (   0.1212267   0.6174340   0.4308146  )
       134        O      tau( 134) = (   0.4053315   0.4559557   0.4370420  )
       135        O      tau( 135) = (   0.1536621   0.0197088   0.1297656  )
       136        O      tau( 136) = (   0.3732349   0.9381887   0.1414400  )
       137        P      tau( 137) = (   0.7119823   0.9446144   0.1298032  )
       138        P      tau( 138) = (   0.9615208   0.6113562   0.4408111  )
       139        P      tau( 139) = (   0.7927710   0.0720230   0.4378878  )
       140        P      tau( 140) = (   0.5426404   0.4019845   0.1260304  )
       141        O      tau( 141) = (   0.6326879   0.8741353   0.2657802  )
       142        O      tau( 142) = (   0.8842163   0.6833376   0.3045887  )
       143        O      tau( 143) = (   0.8716178   0.1427921   0.3017538  )
       144        O      tau( 144) = (   0.6212010   0.3308836   0.2619957  )
       145        O      tau( 145) = (   0.6507714   0.8562512   0.0039320  )
       146        O      tau( 146) = (   0.9014054   0.7014628   0.5660366  )
       147        O      tau( 147) = (   0.8548963   0.1598079   0.5635571  )
       148        O      tau( 148) = (   0.6044469   0.3128877   0.0010676  )
       149        O      tau( 149) = (   0.6024424   0.5573310   0.1292027  )
       150        O      tau( 150) = (   0.8498940   1.0004653   0.4395886  )
       151        O      tau( 151) = (   0.8798395   0.3955995   0.1365272  )
       152        O      tau( 152) = (   0.6286921   0.0784807   0.4273696  )
       153        O      tau( 153) = (   0.6294973   0.6177923   0.4298489  )
       154        O      tau( 154) = (   0.9024339   0.4560482   0.4374624  )
       155        O      tau( 155) = (   0.6547812   0.0161158   0.1274406  )
       156        O      tau( 156) = (   0.8760507   0.9382775   0.1406535  )
       157        O      tau( 157) = (   1.1426512   0.9070646   1.8444903  )
       158        H      tau( 158) = (   1.0494652   0.8581547   1.8562154  )

     -------------------------------------------------
     Parameters for Dispersion (Grimme-D2) Correction:
     -------------------------------------------------
       atom      VdW radius       C_6     

        Ni         2.952        374.666
        Mn         2.952        374.666
        P          3.222        271.980
        O          2.536         24.284
        H          1.892          4.857

     number of k points=     1  Gaussian smearing, width (Ry)=  0.0100
                       cart. coord. in units 2pi/alat
        k(    1) = (   0.0000000   0.0000000   0.0000000), wk =   1.0000000

     Dense  grid:  1918138 G-vectors     FFT dimensions: ( 125, 135, 432)

     Smooth grid:   485265 G-vectors     FFT dimensions: (  80,  90, 288)

     Estimated max dynamical RAM per process >     320.12 MB

     Estimated total dynamical RAM >      20.01 GB
     Generating pointlists ...
     new r_m :   0.0866 (alat units)  1.5324 (a.u.) for type    1
     new r_m :   0.0774 (alat units)  1.3692 (a.u.) for type    2
     new r_m :   0.0650 (alat units)  1.1499 (a.u.) for type    3
     new r_m :   0.0437 (alat units)  0.7732 (a.u.) for type    4
     new r_m :   0.0437 (alat units)  0.7732 (a.u.) for type    5

     Initial potential from superposition of free atoms

     starting charge    1077.8900, renormalised to    1078.0000

     negative rho (up, down):  1.248E-03 4.554E-04
 
     Adding external electric field

     Computed dipole along edir(3) : 
        Dipole                1.6042 Ry au,          4.0774 Debye
        Dipole field          0.0010 Ry au, 
 
        Potential amp.       -0.1077 Ry
        Total length         54.2615 bohr
 
 
     Adding external electric field

     Computed dipole along edir(3) : 
        Dipole                1.6042 Ry au,          4.0774 Debye
        Dipole field          0.0010 Ry au, 
 
        Potential amp.       -0.1077 Ry
        Total length         54.2615 bohr
 
     Starting wfcs are  812 randomized atomic wfcs

     total cpu time spent up to now is       10.0 secs

     Self-consistent Calculation

     iteration #  1     ecut=    50.00 Ry     beta= 0.10
     Davidson diagonalization with overlap
     ethr =  1.00E-02,  avg # of iterations =  6.0

     negative rho (up, down):  3.276E-01 2.465E-07
 
     Adding external electric field

     Computed dipole along edir(3) : 
        Dipole               -3.5495 Ry au,         -9.0220 Debye
        Dipole field         -0.0022 Ry au, 
 
        Potential amp.        0.2382 Ry
        Total length         54.2615 bohr
 
 
     Adding external electric field

     Computed dipole along edir(3) : 
        Dipole               -3.5495 Ry au,         -9.0220 Debye
        Dipole field         -0.0022 Ry au, 
 
        Potential amp.        0.2382 Ry
        Total length         54.2615 bohr
 

     total cpu time spent up to now is       36.7 secs

     total energy              =   -7177.26209211 Ry
     estimated scf accuracy    <     733.67789126 Ry

     total magnetization       =   216.00 Bohr mag/cell
     absolute magnetization    =   296.66 Bohr mag/cell

     iteration #  2     ecut=    50.00 Ry     beta= 0.10
     Davidson diagonalization with overlap
     ethr =  1.00E-02,  avg # of iterations =  2.0

     negative rho (up, down):  3.143E-01 1.327E-07
 
     Adding external electric field

     Computed dipole along edir(3) : 
        Dipole               -2.3094 Ry au,         -5.8699 Debye
        Dipole field         -0.0014 Ry au, 
 
        Potential amp.        0.1550 Ry
        Total length         54.2615 bohr
 
 
     Adding external electric field

     Computed dipole along edir(3) : 
        Dipole               -2.3094 Ry au,         -5.8699 Debye
        Dipole field         -0.0014 Ry au, 
 
        Potential amp.        0.1550 Ry
        Total length         54.2615 bohr
 

     total cpu time spent up to now is       53.5 secs

     total energy              =   -7261.45525055 Ry
     estimated scf accuracy    <     218.51889329 Ry

     total magnetization       =   152.58 Bohr mag/cell
     absolute magnetization    =   201.43 Bohr mag/cell

     iteration #  3     ecut=    50.00 Ry     beta= 0.10
     Davidson diagonalization with overlap
     ethr =  1.00E-02,  avg # of iterations =  1.5

     negative rho (up, down):  2.782E-01 9.807E-08
 
     Adding external electric field

     Computed dipole along edir(3) : 
        Dipole               -2.0180 Ry au,         -5.1293 Debye
        Dipole field         -0.0012 Ry au, 
 
        Potential amp.        0.1354 Ry
        Total length         54.2615 bohr
 
 
     Adding external electric field

     Computed dipole along edir(3) : 
        Dipole               -2.0180 Ry au,         -5.1293 Debye
        Dipole field         -0.0012 Ry au, 
 
        Potential amp.        0.1354 Ry
        Total length         54.2615 bohr
 

     total cpu time spent up to now is       67.1 secs

     total energy              =   -7291.23521209 Ry
     estimated scf accuracy    <      97.36489376 Ry

     total magnetization       =   127.21 Bohr mag/cell
     absolute magnetization    =   180.31 Bohr mag/cell

     iteration #  4     ecut=    50.00 Ry     beta= 0.10
     Davidson diagonalization with overlap
     ethr =  9.03E-03,  avg # of iterations =  1.5

     negative rho (up, down):  2.113E-01 1.408E-08
 
     Adding external electric field

     Computed dipole along edir(3) : 
        Dipole               -1.9876 Ry au,         -5.0519 Debye
        Dipole field         -0.0012 Ry au, 
 
        Potential amp.        0.1334 Ry
        Total length         54.2615 bohr
 
 
     Adding external electric field

     Computed dipole along edir(3) : 
        Dipole               -1.9876 Ry au,         -5.0519 Debye
        Dipole field         -0.0012 Ry au, 
 
        Potential amp.        0.1334 Ry
        Total length         54.2615 bohr
 

     total cpu time spent up to now is       80.6 secs

     total energy              =   -7324.25360788 Ry
     estimated scf accuracy    <      79.46780115 Ry

     total magnetization       =   111.84 Bohr mag/cell
     absolute magnetization    =   166.02 Bohr mag/cell

     iteration #  5     ecut=    50.00 Ry     beta= 0.10
     Davidson diagonalization with overlap
     ethr =  7.37E-03,  avg # of iterations =  1.5

     negative rho (up, down):  1.498E-02 3.803E-07
 
     Adding external electric field

     Computed dipole along edir(3) : 
        Dipole               -1.6324 Ry au,         -4.1491 Debye
        Dipole field         -0.0010 Ry au, 
 
        Potential amp.        0.1096 Ry
        Total length         54.2615 bohr
 
 
     Adding external electric field

     Computed dipole along edir(3) : 
        Dipole               -1.6324 Ry au,         -4.1491 Debye
        Dipole field         -0.0010 Ry au, 
 
        Potential amp.        0.1096 Ry
        Total length         54.2615 bohr
 

     total cpu time spent up to now is       93.8 secs

     total energy              =   -7383.96589228 Ry
     estimated scf accuracy    <      63.36875386 Ry

     total magnetization       =    88.20 Bohr mag/cell
     absolute magnetization    =   147.05 Bohr mag/cell

     iteration #  6     ecut=    50.00 Ry     beta= 0.10
     Davidson diagonalization with overlap
     ethr =  5.88E-03,  avg # of iterations =  1.5

     negative rho (up, down):  5.784E-04 1.007E-03
 
     Adding external electric field

     Computed dipole along edir(3) : 
        Dipole               -1.3588 Ry au,         -3.4537 Debye
        Dipole field         -0.0008 Ry au, 
 
        Potential amp.        0.0912 Ry
        Total length         54.2615 bohr
 
 
     Adding external electric field

     Computed dipole along edir(3) : 
        Dipole               -1.3588 Ry au,         -3.4537 Debye
        Dipole field         -0.0008 Ry au, 
 
        Potential amp.        0.0912 Ry
        Total length         54.2615 bohr
 

     total cpu time spent up to now is      107.1 secs

     total energy              =   -7395.10517894 Ry
     estimated scf accuracy    <      12.14988306 Ry

     total magnetization       =    81.96 Bohr mag/cell
     absolute magnetization    =   117.63 Bohr mag/cell

     iteration #  7     ecut=    50.00 Ry     beta= 0.10
     Davidson diagonalization with overlap
     ethr =  1.13E-03,  avg # of iterations =  4.5

     negative rho (up, down):  5.492E-04 9.135E-04
 
     Adding external electric field

     Computed dipole along edir(3) : 
        Dipole               -1.3441 Ry au,         -3.4164 Debye
        Dipole field         -0.0008 Ry au, 
 
        Potential amp.        0.0902 Ry
        Total length         54.2615 bohr
 
 
     Adding external electric field

     Computed dipole along edir(3) : 
        Dipole               -1.3441 Ry au,         -3.4164 Debye
        Dipole field         -0.0008 Ry au, 
 
        Potential amp.        0.0902 Ry
        Total length         54.2615 bohr
 

     total cpu time spent up to now is      128.5 secs

     total energy              =   -7397.78758778 Ry
     estimated scf accuracy    <      18.98532148 Ry

     total magnetization       =    66.64 Bohr mag/cell
     absolute magnetization    =    84.46 Bohr mag/cell

     iteration #  8     ecut=    50.00 Ry     beta= 0.10
     Davidson diagonalization with overlap
     ethr =  1.13E-03,  avg # of iterations =  1.0

     negative rho (up, down):  3.891E-04 6.584E-04
 
     Adding external electric field

     Computed dipole along edir(3) : 
        Dipole               -1.2394 Ry au,         -3.1502 Debye
        Dipole field         -0.0008 Ry au, 
 
        Potential amp.        0.0832 Ry
        Total length         54.2615 bohr
 
 
     Adding external electric field

     Computed dipole along edir(3) : 
        Dipole               -1.2394 Ry au,         -3.1502 Debye
        Dipole field         -0.0008 Ry au, 
 
        Potential amp.        0.0832 Ry
        Total length         54.2615 bohr
 

     total cpu time spent up to now is      141.3 secs

     total energy              =   -7397.71739449 Ry
     estimated scf accuracy    <      17.18213717 Ry

     total magnetization       =    67.53 Bohr mag/cell
     absolute magnetization    =    84.97 Bohr mag/cell

     iteration #  9     ecut=    50.00 Ry     beta= 0.10
     Davidson diagonalization with overlap
     ethr =  1.13E-03,  avg # of iterations =  1.0

     negative rho (up, down):  8.275E-05 2.058E-04
 
     Adding external electric field

     Computed dipole along edir(3) : 
        Dipole               -0.8858 Ry au,         -2.2515 Debye
        Dipole field         -0.0005 Ry au, 
 
        Potential amp.        0.0595 Ry
        Total length         54.2615 bohr
 
 
     Adding external electric field

     Computed dipole along edir(3) : 
        Dipole               -0.8858 Ry au,         -2.2515 Debye
        Dipole field         -0.0005 Ry au, 
 
        Potential amp.        0.0595 Ry
        Total length         54.2615 bohr
 

     total cpu time spent up to now is      153.5 secs

     total energy              =   -7397.45208509 Ry
     estimated scf accuracy    <      13.67956974 Ry

     total magnetization       =    68.41 Bohr mag/cell
     absolute magnetization    =    84.92 Bohr mag/cell

     iteration # 10     ecut=    50.00 Ry     beta= 0.10
     Davidson diagonalization with overlap
     ethr =  1.13E-03,  avg # of iterations =  1.5

     negative rho (up, down):  7.895E-05 2.045E-04
 
     Adding external electric field

     Computed dipole along edir(3) : 
        Dipole               -0.9537 Ry au,         -2.4240 Debye
        Dipole field         -0.0006 Ry au, 
 
        Potential amp.        0.0640 Ry
        Total length         54.2615 bohr
 
 
     Adding external electric field

     Computed dipole along edir(3) : 
        Dipole               -0.9537 Ry au,         -2.4240 Debye
        Dipole field         -0.0006 Ry au, 
 
        Potential amp.        0.0640 Ry
        Total length         54.2615 bohr
 

     total cpu time spent up to now is      166.4 secs

     total energy              =   -7397.63482341 Ry
     estimated scf accuracy    <       4.73049418 Ry

     total magnetization       =    73.71 Bohr mag/cell
     absolute magnetization    =    86.68 Bohr mag/cell

     iteration # 11     ecut=    50.00 Ry     beta= 0.10
     Davidson diagonalization with overlap
     ethr =  4.39E-04,  avg # of iterations =  2.0

     negative rho (up, down):  3.025E-05 9.726E-05
 
     Adding external electric field

     Computed dipole along edir(3) : 
        Dipole               -0.9351 Ry au,         -2.3767 Debye
        Dipole field         -0.0006 Ry au, 
 
        Potential amp.        0.0628 Ry
        Total length         54.2615 bohr
 
 
     Adding external electric field

     Computed dipole along edir(3) : 
        Dipole               -0.9351 Ry au,         -2.3767 Debye
        Dipole field         -0.0006 Ry au, 
 
        Potential amp.        0.0628 Ry
        Total length         54.2615 bohr
 

     total cpu time spent up to now is      180.2 secs

     total energy              =   -7397.65882968 Ry
     estimated scf accuracy    <       3.43221619 Ry

     total magnetization       =    74.07 Bohr mag/cell
     absolute magnetization    =    86.49 Bohr mag/cell

     iteration # 12     ecut=    50.00 Ry     beta= 0.10
     Davidson diagonalization with overlap
     ethr =  3.18E-04,  avg # of iterations =  2.0

     negative rho (up, down):  9.859E-06 5.078E-05
 
     Adding external electric field

     Computed dipole along edir(3) : 
        Dipole               -0.8752 Ry au,         -2.2246 Debye
        Dipole field         -0.0005 Ry au, 
 
        Potential amp.        0.0587 Ry
        Total length         54.2615 bohr
 
 
     Adding external electric field

     Computed dipole along edir(3) : 
        Dipole               -0.8752 Ry au,         -2.2246 Debye
        Dipole field         -0.0005 Ry au, 
 
        Potential amp.        0.0587 Ry
        Total length         54.2615 bohr
 

     total cpu time spent up to now is      194.0 secs

     total energy              =   -7397.81285889 Ry
     estimated scf accuracy    <       0.64650534 Ry

     total magnetization       =    79.18 Bohr mag/cell
     absolute magnetization    =    89.23 Bohr mag/cell

     iteration # 13     ecut=    50.00 Ry     beta= 0.10
     Davidson diagonalization with overlap
     ethr =  6.00E-05,  avg # of iterations = 16.0

     negative rho (up, down):  4.357E-07 3.714E-06
 
     Adding external electric field

     Computed dipole along edir(3) : 
        Dipole               -0.6571 Ry au,         -1.6701 Debye
        Dipole field         -0.0004 Ry au, 
 
        Potential amp.        0.0441 Ry
        Total length         54.2615 bohr
 
 
     Adding external electric field

     Computed dipole along edir(3) : 
        Dipole               -0.6571 Ry au,         -1.6701 Debye
        Dipole field         -0.0004 Ry au, 
 
        Potential amp.        0.0441 Ry
        Total length         54.2615 bohr
 

     total cpu time spent up to now is      224.0 secs

     total energy              =   -7397.98828123 Ry
     estimated scf accuracy    <       0.61823185 Ry

     total magnetization       =    79.76 Bohr mag/cell
     absolute magnetization    =    87.55 Bohr mag/cell

     iteration # 14     ecut=    50.00 Ry     beta= 0.10
     Davidson diagonalization with overlap
     ethr =  5.73E-05,  avg # of iterations =  1.5

     negative rho (up, down):  1.726E-08 1.152E-07
 
     Adding external electric field

     Computed dipole along edir(3) : 
        Dipole               -0.5155 Ry au,         -1.3102 Debye
        Dipole field         -0.0003 Ry au, 
 
        Potential amp.        0.0346 Ry
        Total length         54.2615 bohr
 
 
     Adding external electric field

     Computed dipole along edir(3) : 
        Dipole               -0.5155 Ry au,         -1.3102 Debye
        Dipole field         -0.0003 Ry au, 
 
        Potential amp.        0.0346 Ry
        Total length         54.2615 bohr
 

     total cpu time spent up to now is      235.6 secs

     total energy              =   -7398.05656431 Ry
     estimated scf accuracy    <       0.53300014 Ry

     total magnetization       =    79.62 Bohr mag/cell
     absolute magnetization    =    84.65 Bohr mag/cell

     iteration # 15     ecut=    50.00 Ry     beta= 0.10
     Davidson diagonalization with overlap
     ethr =  4.94E-05,  avg # of iterations =  1.0

     negative rho (up, down):  1.225E-08 4.982E-08
 
     Adding external electric field

     Computed dipole along edir(3) : 
        Dipole               -0.5434 Ry au,         -1.3812 Debye
        Dipole field         -0.0003 Ry au, 
 
        Potential amp.        0.0365 Ry
        Total length         54.2615 bohr
 
 
     Adding external electric field

     Computed dipole along edir(3) : 
        Dipole               -0.5434 Ry au,         -1.3812 Debye
        Dipole field         -0.0003 Ry au, 
 
        Potential amp.        0.0365 Ry
        Total length         54.2615 bohr
 

     total cpu time spent up to now is      246.3 secs

     total energy              =   -7398.06988844 Ry
     estimated scf accuracy    <       0.41346104 Ry

     total magnetization       =    78.99 Bohr mag/cell
     absolute magnetization    =    82.05 Bohr mag/cell

     iteration # 16     ecut=    50.00 Ry     beta= 0.10
     Davidson diagonalization with overlap
     ethr =  3.84E-05,  avg # of iterations =  1.0

     negative rho (up, down):  6.246E-10 1.180E-08
 
     Adding external electric field

     Computed dipole along edir(3) : 
        Dipole               -0.5492 Ry au,         -1.3960 Debye
        Dipole field         -0.0003 Ry au, 
 
        Potential amp.        0.0369 Ry
        Total length         54.2615 bohr
 
 
     Adding external electric field

     Computed dipole along edir(3) : 
        Dipole               -0.5492 Ry au,         -1.3960 Debye
        Dipole field         -0.0003 Ry au, 
 
        Potential amp.        0.0369 Ry
        Total length         54.2615 bohr
 

     total cpu time spent up to now is      257.3 secs

     total energy              =   -7398.07832254 Ry
     estimated scf accuracy    <       0.32773946 Ry

     total magnetization       =    79.00 Bohr mag/cell
     absolute magnetization    =    82.04 Bohr mag/cell

     iteration # 17     ecut=    50.00 Ry     beta= 0.10
     Davidson diagonalization with overlap
     ethr =  3.04E-05,  avg # of iterations =  1.0

     negative rho (up, down):  0.000E+00 8.052E-07
 
     Adding external electric field

     Computed dipole along edir(3) : 
        Dipole               -0.5648 Ry au,         -1.4357 Debye
        Dipole field         -0.0003 Ry au, 
 
        Potential amp.        0.0379 Ry
        Total length         54.2615 bohr
 
 
     Adding external electric field

     Computed dipole along edir(3) : 
        Dipole               -0.5648 Ry au,         -1.4357 Debye
        Dipole field         -0.0003 Ry au, 
 
        Potential amp.        0.0379 Ry
        Total length         54.2615 bohr
 

     total cpu time spent up to now is      268.7 secs

     total energy              =   -7398.08012709 Ry
     estimated scf accuracy    <       0.13321143 Ry

     total magnetization       =    78.95 Bohr mag/cell
     absolute magnetization    =    81.17 Bohr mag/cell

     iteration # 18     ecut=    50.00 Ry     beta= 0.10
     Davidson diagonalization with overlap
     ethr =  1.24E-05,  avg # of iterations =  2.0

     negative rho (up, down):  1.110E-06 4.134E-05
 
     Adding external electric field

     Computed dipole along edir(3) : 
        Dipole               -0.5907 Ry au,         -1.5014 Debye
        Dipole field         -0.0004 Ry au, 
 
        Potential amp.        0.0396 Ry
        Total length         54.2615 bohr
 
 
     Adding external electric field

     Computed dipole along edir(3) : 
        Dipole               -0.5907 Ry au,         -1.5014 Debye
        Dipole field         -0.0004 Ry au, 
 
        Potential amp.        0.0396 Ry
        Total length         54.2615 bohr
 

     total cpu time spent up to now is      281.7 secs

     total energy              =   -7398.07515260 Ry
     estimated scf accuracy    <       0.11043736 Ry

     total magnetization       =    78.97 Bohr mag/cell
     absolute magnetization    =    81.13 Bohr mag/cell

     iteration # 19     ecut=    50.00 Ry     beta= 0.10
     Davidson diagonalization with overlap
     ethr =  1.02E-05,  avg # of iterations =  1.0

     negative rho (up, down):  1.091E-06 5.137E-05
 
     Adding external electric field

     Computed dipole along edir(3) : 
        Dipole               -0.5991 Ry au,         -1.5228 Debye
        Dipole field         -0.0004 Ry au, 
 
        Potential amp.        0.0402 Ry
        Total length         54.2615 bohr
 
 
     Adding external electric field

     Computed dipole along edir(3) : 
        Dipole               -0.5991 Ry au,         -1.5228 Debye
        Dipole field         -0.0004 Ry au, 
 
        Potential amp.        0.0402 Ry
        Total length         54.2615 bohr
 

     total cpu time spent up to now is      292.8 secs

     total energy              =   -7398.07516982 Ry
     estimated scf accuracy    <       0.06719407 Ry

     total magnetization       =    78.68 Bohr mag/cell
     absolute magnetization    =    80.70 Bohr mag/cell

     iteration # 20     ecut=    50.00 Ry     beta= 0.10
     Davidson diagonalization with overlap
     ethr =  6.23E-06,  avg # of iterations =  2.0

     negative rho (up, down):  2.953E-08 4.733E-06
 
     Adding external electric field

     Computed dipole along edir(3) : 
        Dipole               -0.5609 Ry au,         -1.4256 Debye
        Dipole field         -0.0003 Ry au, 
 
        Potential amp.        0.0376 Ry
        Total length         54.2615 bohr
 
 
     Adding external electric field

     Computed dipole along edir(3) : 
        Dipole               -0.5609 Ry au,         -1.4256 Debye
        Dipole field         -0.0003 Ry au, 
 
        Potential amp.        0.0376 Ry
        Total length         54.2615 bohr
 

     total cpu time spent up to now is      305.6 secs

     total energy              =   -7398.07920311 Ry
     estimated scf accuracy    <       0.06022916 Ry

     total magnetization       =    78.73 Bohr mag/cell
     absolute magnetization    =    80.71 Bohr mag/cell

     iteration # 21     ecut=    50.00 Ry     beta= 0.10
     Davidson diagonalization with overlap
     c_bands:  1 eigenvalues not converged
     ethr =  5.59E-06,  avg # of iterations = 11.0

     negative rho (up, down):  5.477E-05 7.160E-05
 
     Adding external electric field

     Computed dipole along edir(3) : 
        Dipole               -0.5226 Ry au,         -1.3284 Debye
        Dipole field         -0.0003 Ry au, 
 
        Potential amp.        0.0351 Ry
        Total length         54.2615 bohr
 
 
     Adding external electric field

     Computed dipole along edir(3) : 
        Dipole               -0.5226 Ry au,         -1.3284 Debye
        Dipole field         -0.0003 Ry au, 
 
        Potential amp.        0.0351 Ry
        Total length         54.2615 bohr
 

     total cpu time spent up to now is      323.8 secs

     total energy              =   -7398.08269826 Ry
     estimated scf accuracy    <       0.08862886 Ry

     total magnetization       =    79.14 Bohr mag/cell
     absolute magnetization    =    81.01 Bohr mag/cell

     iteration # 22     ecut=    50.00 Ry     beta= 0.10
     Davidson diagonalization with overlap
     ethr =  5.59E-06,  avg # of iterations = 21.0

     negative rho (up, down):  4.181E-05 5.609E-05
 
     Adding external electric field

     Computed dipole along edir(3) : 
        Dipole               -0.5561 Ry au,         -1.4135 Debye
        Dipole field         -0.0003 Ry au, 
 
        Potential amp.        0.0373 Ry
        Total length         54.2615 bohr
 
 
     Adding external electric field

     Computed dipole along edir(3) : 
        Dipole               -0.5561 Ry au,         -1.4135 Debye
        Dipole field         -0.0003 Ry au, 
 
        Potential amp.        0.0373 Ry
        Total length         54.2615 bohr
 

     total cpu time spent up to now is      351.1 secs

     total energy              =   -7398.08171544 Ry
     estimated scf accuracy    <       0.07885650 Ry

     total magnetization       =    79.17 Bohr mag/cell
     absolute magnetization    =    80.78 Bohr mag/cell

     iteration # 23     ecut=    50.00 Ry     beta= 0.10
     Davidson diagonalization with overlap
     ethr =  5.59E-06,  avg # of iterations =  2.0

     negative rho (up, down):  1.923E-05 2.098E-05
 
     Adding external electric field

     Computed dipole along edir(3) : 
        Dipole               -0.5268 Ry au,         -1.3391 Debye
        Dipole field         -0.0003 Ry au, 
 
        Potential amp.        0.0354 Ry
        Total length         54.2615 bohr
 
 
     Adding external electric field

     Computed dipole along edir(3) : 
        Dipole               -0.5268 Ry au,         -1.3391 Debye
        Dipole field         -0.0003 Ry au, 
 
        Potential amp.        0.0354 Ry
        Total length         54.2615 bohr
 

     total cpu time spent up to now is      364.0 secs

     total energy              =   -7398.08116505 Ry
     estimated scf accuracy    <       0.03141965 Ry

     total magnetization       =    78.85 Bohr mag/cell
     absolute magnetization    =    80.63 Bohr mag/cell

     iteration # 24     ecut=    50.00 Ry     beta= 0.10
     Davidson diagonalization with overlap
     c_bands:  3 eigenvalues not converged
     ethr =  2.91E-06,  avg # of iterations = 11.0

     negative rho (up, down):  1.301E-04 1.420E-04
 
     Adding external electric field

     Computed dipole along edir(3) : 
        Dipole               -0.5136 Ry au,         -1.3055 Debye
        Dipole field         -0.0003 Ry au, 
 
        Potential amp.        0.0345 Ry
        Total length         54.2615 bohr
 
 
     Adding external electric field

     Computed dipole along edir(3) : 
        Dipole               -0.5136 Ry au,         -1.3055 Debye
        Dipole field         -0.0003 Ry au, 
 
        Potential amp.        0.0345 Ry
        Total length         54.2615 bohr
 

     total cpu time spent up to now is      382.4 secs

     total energy              =   -7398.08126974 Ry
     estimated scf accuracy    <       0.05241758 Ry

     total magnetization       =    78.76 Bohr mag/cell
     absolute magnetization    =    80.62 Bohr mag/cell

     iteration # 25     ecut=    50.00 Ry     beta= 0.10
     Davidson diagonalization with overlap
     ethr =  2.91E-06,  avg # of iterations =  2.0

     negative rho (up, down):  8.818E-05 1.389E-04
 
     Adding external electric field

     Computed dipole along edir(3) : 
        Dipole               -0.4623 Ry au,         -1.1749 Debye
        Dipole field         -0.0003 Ry au, 
 
        Potential amp.        0.0310 Ry
        Total length         54.2615 bohr
 
 
     Adding external electric field

     Computed dipole along edir(3) : 
        Dipole               -0.4623 Ry au,         -1.1749 Debye
        Dipole field         -0.0003 Ry au, 
 
        Potential amp.        0.0310 Ry
        Total length         54.2615 bohr
 

     total cpu time spent up to now is      395.4 secs

     total energy              =   -7398.08085201 Ry
     estimated scf accuracy    <       0.02046502 Ry

     total magnetization       =    78.70 Bohr mag/cell
     absolute magnetization    =    80.42 Bohr mag/cell

     iteration # 26     ecut=    50.00 Ry     beta= 0.10
     Davidson diagonalization with overlap
     ethr =  1.90E-06,  avg # of iterations =  2.0

     negative rho (up, down):  1.164E-04 1.522E-04
 
     Adding external electric field

     Computed dipole along edir(3) : 
        Dipole               -0.4549 Ry au,         -1.1563 Debye
        Dipole field         -0.0003 Ry au, 
 
        Potential amp.        0.0305 Ry
        Total length         54.2615 bohr
 
 
     Adding external electric field

     Computed dipole along edir(3) : 
        Dipole               -0.4549 Ry au,         -1.1563 Debye
        Dipole field         -0.0003 Ry au, 
 
        Potential amp.        0.0305 Ry
        Total length         54.2615 bohr
 

     total cpu time spent up to now is      408.3 secs

     total energy              =   -7398.08068217 Ry
     estimated scf accuracy    <       0.04786278 Ry

     total magnetization       =    78.45 Bohr mag/cell
     absolute magnetization    =    80.19 Bohr mag/cell

     iteration # 27     ecut=    50.00 Ry     beta= 0.10
     Davidson diagonalization with overlap
     ethr =  1.90E-06,  avg # of iterations =  3.0

     negative rho (up, down):  8.074E-05 1.449E-04
 
     Adding external electric field

     Computed dipole along edir(3) : 
        Dipole               -0.4187 Ry au,         -1.0641 Debye
        Dipole field         -0.0003 Ry au, 
 
        Potential amp.        0.0281 Ry
        Total length         54.2615 bohr
 
 
     Adding external electric field

     Computed dipole along edir(3) : 
        Dipole               -0.4187 Ry au,         -1.0641 Debye
        Dipole field         -0.0003 Ry au, 
 
        Potential amp.        0.0281 Ry
        Total length         54.2615 bohr
 

     total cpu time spent up to now is      422.2 secs

     total energy              =   -7398.08045474 Ry
     estimated scf accuracy    <       0.01921315 Ry

     total magnetization       =    78.72 Bohr mag/cell
     absolute magnetization    =    80.46 Bohr mag/cell

     iteration # 28     ecut=    50.00 Ry     beta= 0.10
     Davidson diagonalization with overlap
     ethr =  1.78E-06,  avg # of iterations =  2.0

     negative rho (up, down):  5.992E-05 1.483E-04
 
     Adding external electric field

     Computed dipole along edir(3) : 
        Dipole               -0.4018 Ry au,         -1.0212 Debye
        Dipole field         -0.0002 Ry au, 
 
        Potential amp.        0.0270 Ry
        Total length         54.2615 bohr
 
 
     Adding external electric field

     Computed dipole along edir(3) : 
        Dipole               -0.4018 Ry au,         -1.0212 Debye
        Dipole field         -0.0002 Ry au, 
 
        Potential amp.        0.0270 Ry
        Total length         54.2615 bohr
 

     total cpu time spent up to now is      434.7 secs

     total energy              =   -7398.07994362 Ry
     estimated scf accuracy    <       0.01975802 Ry

     total magnetization       =    78.58 Bohr mag/cell
     absolute magnetization    =    80.40 Bohr mag/cell

     iteration # 29     ecut=    50.00 Ry     beta= 0.10
     Davidson diagonalization with overlap
     ethr =  1.78E-06,  avg # of iterations =  2.0

     negative rho (up, down):  7.331E-05 1.778E-04
 
     Adding external electric field

     Computed dipole along edir(3) : 
        Dipole               -0.3947 Ry au,         -1.0032 Debye
        Dipole field         -0.0002 Ry au, 
 
        Potential amp.        0.0265 Ry
        Total length         54.2615 bohr
 
 
     Adding external electric field

     Computed dipole along edir(3) : 
        Dipole               -0.3947 Ry au,         -1.0032 Debye
        Dipole field         -0.0002 Ry au, 
 
        Potential amp.        0.0265 Ry
        Total length         54.2615 bohr
 

     total cpu time spent up to now is      446.9 secs

     total energy              =   -7398.08003927 Ry
     estimated scf accuracy    <       0.01798092 Ry

     total magnetization       =    78.62 Bohr mag/cell
     absolute magnetization    =    80.48 Bohr mag/cell

     iteration # 30     ecut=    50.00 Ry     beta= 0.10
     Davidson diagonalization with overlap
     ethr =  1.67E-06,  avg # of iterations =  2.0

     negative rho (up, down):  7.085E-05 1.785E-04
 
     Adding external electric field

     Computed dipole along edir(3) : 
        Dipole               -0.3963 Ry au,         -1.0072 Debye
        Dipole field         -0.0002 Ry au, 
 
        Potential amp.        0.0266 Ry
        Total length         54.2615 bohr
 
 
     Adding external electric field

     Computed dipole along edir(3) : 
        Dipole               -0.3963 Ry au,         -1.0072 Debye
        Dipole field         -0.0002 Ry au, 
 
        Potential amp.        0.0266 Ry
        Total length         54.2615 bohr
 

     total cpu time spent up to now is      459.6 secs

     total energy              =   -7398.08006355 Ry
     estimated scf accuracy    <       0.01963607 Ry

     total magnetization       =    78.49 Bohr mag/cell
     absolute magnetization    =    80.34 Bohr mag/cell

     iteration # 31     ecut=    50.00 Ry     beta= 0.10
     Davidson diagonalization with overlap
     ethr =  1.67E-06,  avg # of iterations =  1.5

     negative rho (up, down):  3.158E-04 5.054E-04
 
     Adding external electric field

     Computed dipole along edir(3) : 
        Dipole               -0.2719 Ry au,         -0.6911 Debye
        Dipole field         -0.0002 Ry au, 
 
        Potential amp.        0.0182 Ry
        Total length         54.2615 bohr
 
 
     Adding external electric field

     Computed dipole along edir(3) : 
        Dipole               -0.2719 Ry au,         -0.6911 Debye
        Dipole field         -0.0002 Ry au, 
 
        Potential amp.        0.0182 Ry
        Total length         54.2615 bohr
 

     total cpu time spent up to now is      471.4 secs

     total energy              =   -7398.07876317 Ry
     estimated scf accuracy    <       0.01929287 Ry

     total magnetization       =    78.50 Bohr mag/cell
     absolute magnetization    =    80.35 Bohr mag/cell

     iteration # 32     ecut=    50.00 Ry     beta= 0.10
     Davidson diagonalization with overlap
     c_bands:  4 eigenvalues not converged
     ethr =  1.67E-06,  avg # of iterations = 11.0

     negative rho (up, down):  8.256E-04 1.109E-03
 
     Adding external electric field

     Computed dipole along edir(3) : 
        Dipole               -0.2196 Ry au,         -0.5582 Debye
        Dipole field         -0.0001 Ry au, 
 
        Potential amp.        0.0147 Ry
        Total length         54.2615 bohr
 
 
     Adding external electric field

     Computed dipole along edir(3) : 
        Dipole               -0.2196 Ry au,         -0.5582 Debye
        Dipole field         -0.0001 Ry au, 
 
        Potential amp.        0.0147 Ry
        Total length         54.2615 bohr
 

     total cpu time spent up to now is      489.9 secs

     total energy              =   -7398.07909441 Ry
     estimated scf accuracy    <       0.01405298 Ry

     total magnetization       =    78.72 Bohr mag/cell
     absolute magnetization    =    80.58 Bohr mag/cell

     iteration # 33     ecut=    50.00 Ry     beta= 0.10
     Davidson diagonalization with overlap
     ethr =  1.30E-06,  avg # of iterations =  2.0

     negative rho (up, down):  1.359E-03 1.703E-03
 
     Adding external electric field

     Computed dipole along edir(3) : 
        Dipole               -0.1793 Ry au,         -0.4558 Debye
        Dipole field         -0.0001 Ry au, 
 
        Potential amp.        0.0120 Ry
        Total length         54.2615 bohr
 
 
     Adding external electric field

     Computed dipole along edir(3) : 
        Dipole               -0.1793 Ry au,         -0.4558 Debye
        Dipole field         -0.0001 Ry au, 
 
        Potential amp.        0.0120 Ry
        Total length         54.2615 bohr
 

     total cpu time spent up to now is      503.0 secs

     total energy              =   -7398.07904848 Ry
     estimated scf accuracy    <       0.01275541 Ry

     total magnetization       =    78.72 Bohr mag/cell
     absolute magnetization    =    80.52 Bohr mag/cell

     iteration # 34     ecut=    50.00 Ry     beta= 0.10
     Davidson diagonalization with overlap
     ethr =  1.18E-06,  avg # of iterations =  2.0

     negative rho (up, down):  2.335E-03 2.698E-03
 
     Adding external electric field

     Computed dipole along edir(3) : 
        Dipole               -0.0901 Ry au,         -0.2290 Debye
        Dipole field         -0.0001 Ry au, 
 
        Potential amp.        0.0060 Ry
        Total length         54.2615 bohr
 
 
     Adding external electric field

     Computed dipole along edir(3) : 
        Dipole               -0.0901 Ry au,         -0.2290 Debye
        Dipole field         -0.0001 Ry au, 
 
        Potential amp.        0.0060 Ry
        Total length         54.2615 bohr
 

     total cpu time spent up to now is      516.0 secs

     total energy              =   -7398.07865802 Ry
     estimated scf accuracy    <       0.01220283 Ry

     total magnetization       =    78.74 Bohr mag/cell
     absolute magnetization    =    80.49 Bohr mag/cell

     iteration # 35     ecut=    50.00 Ry     beta= 0.10
     Davidson diagonalization with overlap
     c_bands:  2 eigenvalues not converged
     ethr =  1.13E-06,  avg # of iterations = 21.0

     negative rho (up, down):  2.217E-03 2.222E-03
 
     Adding external electric field

     Computed dipole along edir(3) : 
        Dipole               -0.0166 Ry au,         -0.0423 Debye
        Dipole field         -0.0000 Ry au, 
 
        Potential amp.        0.0011 Ry
        Total length         54.2615 bohr
 
 
     Adding external electric field

     Computed dipole along edir(3) : 
        Dipole               -0.0166 Ry au,         -0.0423 Debye
        Dipole field         -0.0000 Ry au, 
 
        Potential amp.        0.0011 Ry
        Total length         54.2615 bohr
 

     total cpu time spent up to now is      543.2 secs

     total energy              =   -7398.07847068 Ry
     estimated scf accuracy    <       0.01012074 Ry

     total magnetization       =    78.74 Bohr mag/cell
     absolute magnetization    =    80.47 Bohr mag/cell

     iteration # 36     ecut=    50.00 Ry     beta= 0.10
     Davidson diagonalization with overlap
     ethr =  9.39E-07,  avg # of iterations =  2.5

     negative rho (up, down):  1.525E-03 1.382E-03
 
     Adding external electric field

     Computed dipole along edir(3) : 
        Dipole                0.0513 Ry au,          0.1304 Debye
        Dipole field          0.0000 Ry au, 
 
        Potential amp.       -0.0034 Ry
        Total length         54.2615 bohr
 
 
     Adding external electric field

     Computed dipole along edir(3) : 
        Dipole                0.0513 Ry au,          0.1304 Debye
        Dipole field          0.0000 Ry au, 
 
        Potential amp.       -0.0034 Ry
        Total length         54.2615 bohr
 

     total cpu time spent up to now is      556.2 secs

     total energy              =   -7398.07814045 Ry
     estimated scf accuracy    <       0.00804733 Ry

     total magnetization       =    78.79 Bohr mag/cell
     absolute magnetization    =    80.53 Bohr mag/cell

     iteration # 37     ecut=    50.00 Ry     beta= 0.10
     Davidson diagonalization with overlap
     ethr =  7.47E-07,  avg # of iterations =  3.0

     negative rho (up, down):  1.233E-03 1.115E-03
 
     Adding external electric field

     Computed dipole along edir(3) : 
        Dipole                0.1176 Ry au,          0.2988 Debye
        Dipole field          0.0001 Ry au, 
 
        Potential amp.       -0.0079 Ry
        Total length         54.2615 bohr
 
 
     Adding external electric field

     Computed dipole along edir(3) : 
        Dipole                0.1176 Ry au,          0.2988 Debye
        Dipole field          0.0001 Ry au, 
 
        Potential amp.       -0.0079 Ry
        Total length         54.2615 bohr
 

     total cpu time spent up to now is      568.8 secs

     total energy              =   -7398.07835525 Ry
     estimated scf accuracy    <       0.00619822 Ry

     total magnetization       =    78.83 Bohr mag/cell
     absolute magnetization    =    80.63 Bohr mag/cell

     iteration # 38     ecut=    50.00 Ry     beta= 0.10
     Davidson diagonalization with overlap
     ethr =  5.75E-07,  avg # of iterations = 19.5

     negative rho (up, down):  2.189E-04 2.118E-04
 
     Adding external electric field

     Computed dipole along edir(3) : 
        Dipole                0.0693 Ry au,          0.1763 Debye
        Dipole field          0.0000 Ry au, 
 
        Potential amp.       -0.0047 Ry
        Total length         54.2615 bohr
 
 
     Adding external electric field

     Computed dipole along edir(3) : 
        Dipole                0.0693 Ry au,          0.1763 Debye
        Dipole field          0.0000 Ry au, 
 
        Potential amp.       -0.0047 Ry
        Total length         54.2615 bohr
 

     total cpu time spent up to now is      595.9 secs

     total energy              =   -7398.07853994 Ry
     estimated scf accuracy    <       0.00252766 Ry

     total magnetization       =    78.83 Bohr mag/cell
     absolute magnetization    =    80.61 Bohr mag/cell

     iteration # 39     ecut=    50.00 Ry     beta= 0.10
     Davidson diagonalization with overlap
     ethr =  2.34E-07,  avg # of iterations =  2.0

     negative rho (up, down):  1.380E-04 1.272E-04
 
     Adding external electric field

     Computed dipole along edir(3) : 
        Dipole                0.0593 Ry au,          0.1508 Debye
        Dipole field          0.0000 Ry au, 
 
        Potential amp.       -0.0040 Ry
        Total length         54.2615 bohr
 
 
     Adding external electric field

     Computed dipole along edir(3) : 
        Dipole                0.0593 Ry au,          0.1508 Debye
        Dipole field          0.0000 Ry au, 
 
        Potential amp.       -0.0040 Ry
        Total length         54.2615 bohr
 

     total cpu time spent up to now is      608.8 secs

     total energy              =   -7398.07854273 Ry
     estimated scf accuracy    <       0.00165810 Ry

     total magnetization       =    78.81 Bohr mag/cell
     absolute magnetization    =    80.54 Bohr mag/cell

     iteration # 40     ecut=    50.00 Ry     beta= 0.10
     Davidson diagonalization with overlap
     ethr =  1.54E-07,  avg # of iterations =  2.0

     negative rho (up, down):  1.081E-03 1.173E-03
 
     Adding external electric field

     Computed dipole along edir(3) : 
        Dipole                0.0811 Ry au,          0.2061 Debye
        Dipole field          0.0001 Ry au, 
 
        Potential amp.       -0.0054 Ry
        Total length         54.2615 bohr
 
 
     Adding external electric field

     Computed dipole along edir(3) : 
        Dipole                0.0811 Ry au,          0.2061 Debye
        Dipole field          0.0001 Ry au, 
 
        Potential amp.       -0.0054 Ry
        Total length         54.2615 bohr
 

     total cpu time spent up to now is      622.0 secs

     total energy              =   -7398.07854345 Ry
     estimated scf accuracy    <       0.00115024 Ry

     total magnetization       =    78.81 Bohr mag/cell
     absolute magnetization    =    80.48 Bohr mag/cell

     iteration # 41     ecut=    50.00 Ry     beta= 0.10
     Davidson diagonalization with overlap
     c_bands:  1 eigenvalues not converged
     ethr =  1.07E-07,  avg # of iterations = 11.0

     negative rho (up, down):  2.074E-04 2.173E-04
 
     Adding external electric field

     Computed dipole along edir(3) : 
        Dipole                0.0687 Ry au,          0.1746 Debye
        Dipole field          0.0000 Ry au, 
 
        Potential amp.       -0.0046 Ry
        Total length         54.2615 bohr
 
 
     Adding external electric field

     Computed dipole along edir(3) : 
        Dipole                0.0687 Ry au,          0.1746 Debye
        Dipole field          0.0000 Ry au, 
 
        Potential amp.       -0.0046 Ry
        Total length         54.2615 bohr
 

     total cpu time spent up to now is      639.4 secs

     total energy              =   -7398.07856676 Ry
     estimated scf accuracy    <       0.00077927 Ry

     total magnetization       =    78.78 Bohr mag/cell
     absolute magnetization    =    80.42 Bohr mag/cell

     iteration # 42     ecut=    50.00 Ry     beta= 0.10
     Davidson diagonalization with overlap
     ethr =  7.23E-08,  avg # of iterations =  2.0

     negative rho (up, down):  2.849E-04 3.134E-04
 
     Adding external electric field

     Computed dipole along edir(3) : 
        Dipole                0.0732 Ry au,          0.1861 Debye
        Dipole field          0.0000 Ry au, 
 
        Potential amp.       -0.0049 Ry
        Total length         54.2615 bohr
 
 
     Adding external electric field

     Computed dipole along edir(3) : 
        Dipole                0.0732 Ry au,          0.1861 Debye
        Dipole field          0.0000 Ry au, 
 
        Potential amp.       -0.0049 Ry
        Total length         54.2615 bohr
 

     total cpu time spent up to now is      651.3 secs

     total energy              =   -7398.07858775 Ry
     estimated scf accuracy    <       0.00066585 Ry

     total magnetization       =    78.78 Bohr mag/cell
     absolute magnetization    =    80.42 Bohr mag/cell

     iteration # 43     ecut=    50.00 Ry     beta= 0.10
     Davidson diagonalization with overlap
     ethr =  6.18E-08,  avg # of iterations =  1.5

     negative rho (up, down):  4.826E-04 5.285E-04
 
     Adding external electric field

     Computed dipole along edir(3) : 
        Dipole                0.0850 Ry au,          0.2160 Debye
        Dipole field          0.0001 Ry au, 
 
        Potential amp.       -0.0057 Ry
        Total length         54.2615 bohr
 
 
     Adding external electric field

     Computed dipole along edir(3) : 
        Dipole                0.0850 Ry au,          0.2160 Debye
        Dipole field          0.0001 Ry au, 
 
        Potential amp.       -0.0057 Ry
        Total length         54.2615 bohr
 

     total cpu time spent up to now is      662.7 secs

     total energy              =   -7398.07862848 Ry
     estimated scf accuracy    <       0.00049502 Ry

     total magnetization       =    78.77 Bohr mag/cell
     absolute magnetization    =    80.43 Bohr mag/cell

     iteration # 44     ecut=    50.00 Ry     beta= 0.10
     Davidson diagonalization with overlap
     ethr =  4.59E-08,  avg # of iterations =  2.0

     negative rho (up, down):  5.106E-04 5.620E-04
 
     Adding external electric field

     Computed dipole along edir(3) : 
        Dipole                0.0936 Ry au,          0.2379 Debye
        Dipole field          0.0001 Ry au, 
 
        Potential amp.       -0.0063 Ry
        Total length         54.2615 bohr
 
 
     Adding external electric field

     Computed dipole along edir(3) : 
        Dipole                0.0936 Ry au,          0.2379 Debye
        Dipole field          0.0001 Ry au, 
 
        Potential amp.       -0.0063 Ry
        Total length         54.2615 bohr
 

     total cpu time spent up to now is      674.8 secs

     total energy              =   -7398.07864143 Ry
     estimated scf accuracy    <       0.00040304 Ry

     total magnetization       =    78.78 Bohr mag/cell
     absolute magnetization    =    80.44 Bohr mag/cell

     iteration # 45     ecut=    50.00 Ry     beta= 0.10
     Davidson diagonalization with overlap
     ethr =  3.74E-08,  avg # of iterations =  2.0

     negative rho (up, down):  1.262E-03 1.420E-03
 
     Adding external electric field

     Computed dipole along edir(3) : 
        Dipole                0.1153 Ry au,          0.2930 Debye
        Dipole field          0.0001 Ry au, 
 
        Potential amp.       -0.0077 Ry
        Total length         54.2615 bohr
 
 
     Adding external electric field

     Computed dipole along edir(3) : 
        Dipole                0.1153 Ry au,          0.2930 Debye
        Dipole field          0.0001 Ry au, 
 
        Potential amp.       -0.0077 Ry
        Total length         54.2615 bohr
 

     total cpu time spent up to now is      687.3 secs

     total energy              =   -7398.07864535 Ry
     estimated scf accuracy    <       0.00037734 Ry

     total magnetization       =    78.78 Bohr mag/cell
     absolute magnetization    =    80.44 Bohr mag/cell

     iteration # 46     ecut=    50.00 Ry     beta= 0.10
     Davidson diagonalization with overlap
     ethr =  3.50E-08,  avg # of iterations =  2.0

     negative rho (up, down):  1.421E-03 1.595E-03
 
     Adding external electric field

     Computed dipole along edir(3) : 
        Dipole                0.1207 Ry au,          0.3069 Debye
        Dipole field          0.0001 Ry au, 
 
        Potential amp.       -0.0081 Ry
        Total length         54.2615 bohr
 
 
     Adding external electric field

     Computed dipole along edir(3) : 
        Dipole                0.1207 Ry au,          0.3069 Debye
        Dipole field          0.0001 Ry au, 
 
        Potential amp.       -0.0081 Ry
        Total length         54.2615 bohr
 

     total cpu time spent up to now is      699.5 secs

     total energy              =   -7398.07866668 Ry
     estimated scf accuracy    <       0.00028202 Ry

     total magnetization       =    78.78 Bohr mag/cell
     absolute magnetization    =    80.46 Bohr mag/cell

     iteration # 47     ecut=    50.00 Ry     beta= 0.10
     Davidson diagonalization with overlap
     ethr =  2.62E-08,  avg # of iterations =  1.0

     negative rho (up, down):  5.537E-04 4.378E-04
 
     Adding external electric field

     Computed dipole along edir(3) : 
        Dipole                0.1167 Ry au,          0.2965 Debye
        Dipole field          0.0001 Ry au, 
 
        Potential amp.       -0.0078 Ry
        Total length         54.2615 bohr
 
 
     Adding external electric field

     Computed dipole along edir(3) : 
        Dipole                0.1167 Ry au,          0.2965 Debye
        Dipole field          0.0001 Ry au, 
 
        Potential amp.       -0.0078 Ry
        Total length         54.2615 bohr
 

     total cpu time spent up to now is      710.4 secs

     total energy              =   -7398.07872166 Ry
     estimated scf accuracy    <       0.00022690 Ry

     total magnetization       =    78.77 Bohr mag/cell
     absolute magnetization    =    80.45 Bohr mag/cell

     iteration # 48     ecut=    50.00 Ry     beta= 0.10
     Davidson diagonalization with overlap
     ethr =  2.10E-08,  avg # of iterations =  2.0

     negative rho (up, down):  1.036E-03 8.281E-04
 
     Adding external electric field

     Computed dipole along edir(3) : 
        Dipole                0.1239 Ry au,          0.3149 Debye
        Dipole field          0.0001 Ry au, 
 
        Potential amp.       -0.0083 Ry
        Total length         54.2615 bohr
 
 
     Adding external electric field

     Computed dipole along edir(3) : 
        Dipole                0.1239 Ry au,          0.3149 Debye
        Dipole field          0.0001 Ry au, 
 
        Potential amp.       -0.0083 Ry
        Total length         54.2615 bohr
 

     total cpu time spent up to now is      723.1 secs

     total energy              =   -7398.07875436 Ry
     estimated scf accuracy    <       0.00012223 Ry

     total magnetization       =    78.77 Bohr mag/cell
     absolute magnetization    =    80.44 Bohr mag/cell

     iteration # 49     ecut=    50.00 Ry     beta= 0.10
     Davidson diagonalization with overlap
     ethr =  1.13E-08,  avg # of iterations =  1.5

     negative rho (up, down):  1.463E-03 1.243E-03
 
     Adding external electric field

     Computed dipole along edir(3) : 
        Dipole                0.1291 Ry au,          0.3283 Debye
        Dipole field          0.0001 Ry au, 
 
        Potential amp.       -0.0087 Ry
        Total length         54.2615 bohr
 
 
     Adding external electric field

     Computed dipole along edir(3) : 
        Dipole                0.1291 Ry au,          0.3283 Debye
        Dipole field          0.0001 Ry au, 
 
        Potential amp.       -0.0087 Ry
        Total length         54.2615 bohr
 

     total cpu time spent up to now is      734.5 secs

     total energy              =   -7398.07876537 Ry
     estimated scf accuracy    <       0.00005518 Ry

     total magnetization       =    78.77 Bohr mag/cell
     absolute magnetization    =    80.43 Bohr mag/cell

     iteration # 50     ecut=    50.00 Ry     beta= 0.10
     Davidson diagonalization with overlap
     ethr =  5.12E-09,  avg # of iterations =  2.0

     negative rho (up, down):  1.701E-03 1.461E-03
 
     Adding external electric field

     Computed dipole along edir(3) : 
        Dipole                0.1334 Ry au,          0.3390 Debye
        Dipole field          0.0001 Ry au, 
 
        Potential amp.       -0.0090 Ry
        Total length         54.2615 bohr
 
 
     Adding external electric field

     Computed dipole along edir(3) : 
        Dipole                0.1334 Ry au,          0.3390 Debye
        Dipole field          0.0001 Ry au, 
 
        Potential amp.       -0.0090 Ry
        Total length         54.2615 bohr
 

     total cpu time spent up to now is      746.7 secs

     total energy              =   -7398.07877114 Ry
     estimated scf accuracy    <       0.00003599 Ry

     total magnetization       =    78.77 Bohr mag/cell
     absolute magnetization    =    80.42 Bohr mag/cell

     iteration # 51     ecut=    50.00 Ry     beta= 0.10
     Davidson diagonalization with overlap
     ethr =  3.34E-09,  avg # of iterations =  2.0

     negative rho (up, down):  1.438E-03 1.116E-03
 
     Adding external electric field

     Computed dipole along edir(3) : 
        Dipole                0.1335 Ry au,          0.3394 Debye
        Dipole field          0.0001 Ry au, 
 
        Potential amp.       -0.0090 Ry
        Total length         54.2615 bohr
 
 
     Adding external electric field

     Computed dipole along edir(3) : 
        Dipole                0.1335 Ry au,          0.3394 Debye
        Dipole field          0.0001 Ry au, 
 
        Potential amp.       -0.0090 Ry
        Total length         54.2615 bohr
 

     total cpu time spent up to now is      758.6 secs

     total energy              =   -7398.07877369 Ry
     estimated scf accuracy    <       0.00002190 Ry

     total magnetization       =    78.77 Bohr mag/cell
     absolute magnetization    =    80.42 Bohr mag/cell

     iteration # 52     ecut=    50.00 Ry     beta= 0.10
     Davidson diagonalization with overlap
     ethr =  2.03E-09,  avg # of iterations =  2.0

     negative rho (up, down):  1.231E-03 8.599E-04
 
     Adding external electric field

     Computed dipole along edir(3) : 
        Dipole                0.1327 Ry au,          0.3373 Debye
        Dipole field          0.0001 Ry au, 
 
        Potential amp.       -0.0089 Ry
        Total length         54.2615 bohr
 
 
     Adding external electric field

     Computed dipole along edir(3) : 
        Dipole                0.1327 Ry au,          0.3373 Debye
        Dipole field          0.0001 Ry au, 
 
        Potential amp.       -0.0089 Ry
        Total length         54.2615 bohr
 

     total cpu time spent up to now is      770.7 secs

     total energy              =   -7398.07877387 Ry
     estimated scf accuracy    <       0.00001160 Ry

     total magnetization       =    78.78 Bohr mag/cell
     absolute magnetization    =    80.43 Bohr mag/cell

     iteration # 53     ecut=    50.00 Ry     beta= 0.10
     Davidson diagonalization with overlap
     ethr =  1.08E-09,  avg # of iterations =  1.5

     negative rho (up, down):  1.168E-03 7.833E-04
 
     Adding external electric field

     Computed dipole along edir(3) : 
        Dipole                0.1322 Ry au,          0.3361 Debye
        Dipole field          0.0001 Ry au, 
 
        Potential amp.       -0.0089 Ry
        Total length         54.2615 bohr
 
 
     Adding external electric field

     Computed dipole along edir(3) : 
        Dipole                0.1322 Ry au,          0.3361 Debye
        Dipole field          0.0001 Ry au, 
 
        Potential amp.       -0.0089 Ry
        Total length         54.2615 bohr
 

     total cpu time spent up to now is      782.2 secs

     total energy              =   -7398.07877441 Ry
     estimated scf accuracy    <       0.00000716 Ry

     total magnetization       =    78.78 Bohr mag/cell
     absolute magnetization    =    80.43 Bohr mag/cell

     iteration # 54     ecut=    50.00 Ry     beta= 0.10
     Davidson diagonalization with overlap
     ethr =  6.64E-10,  avg # of iterations =  1.5

     negative rho (up, down):  1.103E-03 7.129E-04
 
     Adding external electric field

     Computed dipole along edir(3) : 
        Dipole                0.1313 Ry au,          0.3338 Debye
        Dipole field          0.0001 Ry au, 
 
        Potential amp.       -0.0088 Ry
        Total length         54.2615 bohr
 
 
     Adding external electric field

     Computed dipole along edir(3) : 
        Dipole                0.1313 Ry au,          0.3338 Debye
        Dipole field          0.0001 Ry au, 
 
        Potential amp.       -0.0088 Ry
        Total length         54.2615 bohr
 

     total cpu time spent up to now is      793.8 secs

     total energy              =   -7398.07877435 Ry
     estimated scf accuracy    <       0.00000410 Ry

     total magnetization       =    78.78 Bohr mag/cell
     absolute magnetization    =    80.43 Bohr mag/cell

     iteration # 55     ecut=    50.00 Ry     beta= 0.10
     Davidson diagonalization with overlap
     ethr =  3.81E-10,  avg # of iterations =  1.5

     negative rho (up, down):  9.137E-04 5.349E-04
 
     Adding external electric field

     Computed dipole along edir(3) : 
        Dipole                0.1280 Ry au,          0.3254 Debye
        Dipole field          0.0001 Ry au, 
 
        Potential amp.       -0.0086 Ry
        Total length         54.2615 bohr
 
 
     Adding external electric field

     Computed dipole along edir(3) : 
        Dipole                0.1280 Ry au,          0.3254 Debye
        Dipole field          0.0001 Ry au, 
 
        Potential amp.       -0.0086 Ry
        Total length         54.2615 bohr
 

     total cpu time spent up to now is      805.4 secs

     total energy              =   -7398.07877338 Ry
     estimated scf accuracy    <       0.00000276 Ry

     total magnetization       =    78.78 Bohr mag/cell
     absolute magnetization    =    80.43 Bohr mag/cell

     iteration # 56     ecut=    50.00 Ry     beta= 0.10
     Davidson diagonalization with overlap
     ethr =  2.56E-10,  avg # of iterations =  1.5

     negative rho (up, down):  9.272E-04 5.560E-04
 
     Adding external electric field

     Computed dipole along edir(3) : 
        Dipole                0.1203 Ry au,          0.3058 Debye
        Dipole field          0.0001 Ry au, 
 
        Potential amp.       -0.0081 Ry
        Total length         54.2615 bohr
 
 
     Adding external electric field

     Computed dipole along edir(3) : 
        Dipole                0.1203 Ry au,          0.3058 Debye
        Dipole field          0.0001 Ry au, 
 
        Potential amp.       -0.0081 Ry
        Total length         54.2615 bohr
 
 
     Magnetic moment per site  (integrated on atomic sphere of radius R)
     atom   1 (R=0.077)  charge= 11.3384  magn=  2.9731
     atom   2 (R=0.087)  charge=  7.4354  magn=  1.5711
     atom   3 (R=0.087)  charge=  7.4564  magn=  1.4968
     atom   4 (R=0.087)  charge=  7.4353  magn=  1.5866
     atom   5 (R=0.087)  charge=  7.4599  magn=  1.5385
     atom   6 (R=0.087)  charge=  7.4571  magn=  1.5309
     atom   7 (R=0.087)  charge=  7.4621  magn=  1.4787
     atom   8 (R=0.087)  charge=  7.4373  magn=  1.5802
     atom   9 (R=0.087)  charge=  7.4565  magn=  1.5039
     atom  10 (R=0.087)  charge=  7.4360  magn=  1.5846
     atom  11 (R=0.087)  charge=  7.4599  magn=  1.5336
     atom  12 (R=0.087)  charge=  7.4627  magn=  1.5335
     atom  13 (R=0.065)  charge=  0.7309  magn=  0.0068
     atom  14 (R=0.065)  charge=  0.7289  magn=  0.0053
     atom  15 (R=0.065)  charge=  0.7249  magn=  0.0045
     atom  16 (R=0.065)  charge=  0.7273  magn=  0.0051
     atom  17 (R=0.044)  charge=  1.9884  magn=  0.0663
     atom  18 (R=0.044)  charge=  1.9830  magn=  0.0501
     atom  19 (R=0.044)  charge=  1.9818  magn=  0.1029
     atom  20 (R=0.044)  charge=  1.9855  magn=  0.0793
     atom  21 (R=0.044)  charge=  2.0012  magn=  0.0472
     atom  22 (R=0.044)  charge=  1.9849  magn=  0.0377
     atom  23 (R=0.044)  charge=  1.9827  magn=  0.0437
     atom  24 (R=0.044)  charge=  1.9925  magn=  0.0558
     atom  25 (R=0.044)  charge=  1.9924  magn=  0.0579
     atom  26 (R=0.044)  charge=  1.9905  magn=  0.0443
     atom  27 (R=0.044)  charge=  1.9911  magn=  0.0484
     atom  28 (R=0.044)  charge=  1.9894  magn=  0.0487
[...]
    -6.0028  -5.9839  -5.9710  -5.9579  -5.9479  -5.9002  -5.8598  -5.8522
    -5.8281  -5.8210  -5.8004  -5.7801  -5.7697  -5.7376  -5.7139  -5.6968
    -5.6946  -5.6743  -5.6580  -5.6534  -5.6292  -5.6112  -5.5733  -5.5359
    -5.5086  -5.4739  -5.4450  -5.4247  -5.4155  -5.3924  -5.3618  -5.2955
    -5.2758  -5.2566  -5.2440  -5.2332  -5.1494  -5.1221  -5.1196  -5.0751
    -5.0451  -5.0050  -4.9874  -4.9719  -4.9361  -4.9253  -4.8946  -4.8740
    -4.8190  -4.7975  -4.7532  -4.7401  -4.7146  -4.6993  -4.6668  -4.5920
    -4.5407  -4.5275  -4.5216  -4.4940  -4.4865  -4.4616  -4.4079  -4.3870
    -4.3764  -4.3153  -4.2600  -4.2271  -4.1941  -4.1806  -4.1512  -4.1400
    -4.0891  -4.0603  -4.0347  -4.0202  -3.9915  -3.9612  -3.9441  -3.9266
    -3.9231  -3.8825  -3.8457  -3.8277  -3.8174  -3.7688  -3.7464  -3.7432
    -3.7257  -3.6983  -3.6812  -3.6756  -3.6663  -3.6402  -3.6387  -3.6181
    -3.5687  -3.5475  -3.5418  -3.5173  -3.5108  -3.5064  -3.4731  -3.4674
    -3.4560  -3.4157  -3.3955  -3.3787  -3.3555  -3.3469  -3.3018  -3.2843
    -3.2761  -3.2464  -3.2216  -3.2069  -3.1976  -3.1806  -3.1687  -3.1595
    -3.1244  -3.1139  -3.0795  -3.0498  -3.0433  -3.0221  -3.0147  -2.9670
    -2.9585  -2.9345  -2.9301  -2.9026  -2.8736  -2.8561  -2.8376  -2.8142
    -2.8018  -2.7889  -2.7870  -2.7784  -2.7725  -2.7615  -2.7522  -2.7380
    -2.7153  -2.6999  -2.6781  -2.6711  -2.6470  -2.6403  -2.6159  -2.6009
    -2.5814  -2.5730  -2.5411  -2.5222  -2.5061  -2.5051  -2.4833  -2.4676
    -2.4331  -2.4330  -2.4104  -2.4082  -2.3646  -2.3556  -2.3217  -2.3200
    -2.2949  -2.2654  -2.2531  -2.2342  -2.2112  -2.2060  -2.1781  -2.1506
    -2.1466  -2.1271  -2.1001  -2.0858  -2.0696  -2.0633  -2.0346  -2.0069
    -2.0054  -1.9946  -1.9832  -1.9655  -1.9344  -1.9242  -1.9087  -1.8853
    -1.8633  -1.8453  -1.8124  -1.8081  -1.8037  -1.7723  -1.7527  -1.7329
    -1.7143  -1.6868  -1.6806  -1.6599  -1.6428  -1.6151  -1.5693  -1.5606
    -1.5568  -1.5422  -1.5120  -1.5029  -1.4803  -1.4571  -1.4466  -1.4292
    -1.4272  -1.3944  -1.3617  -1.3313  -1.3178  -1.3022  -1.2837  -1.2498
    -1.2055  -1.1845  -1.1163  -1.0964  -1.0044  -0.9866  -0.9009  -0.8615
    -0.8435  -0.8058  -0.7103  -0.5528  -0.5350  -0.4107  -0.3401  -0.2356
     0.0871   0.1106   0.1370   0.1774   0.2082   0.2161   0.2276   0.2331
     0.2575   0.2715   0.2836   0.2926   0.2995   0.3015   0.3246   0.3316
     0.3353   0.3442   0.3513   0.3612   0.3660   0.3802   0.3837   0.3907
     0.3993   0.4026   0.4067   0.4123   0.4246   0.4297   0.4318   0.4394
     0.4465   0.4630   0.4674   0.4710   0.4743   0.4811   0.4843   0.4904
     0.5074   0.5167   0.5205   0.5227   0.5283   0.5377   0.5419   0.5529
     0.5621   0.5736   0.5852   0.5872   0.5983   0.5998   0.6087   0.6173
     0.6232   0.6284   0.6348   0.6393   0.6515   0.6540   0.6604   0.6659
     0.6750   0.6811   0.7014   0.7077   0.7165   0.7258   0.7266   0.7274
     0.7302   0.7460   0.7493   0.7722   0.7812   0.7906   0.7985   0.8100
     0.8106   0.8228   0.8234   0.8372   0.8448   0.8502   0.8585   0.8730
     0.8745   0.8945   0.8977   0.9193   0.9215   0.9425   0.9577   0.9796
     0.9941   1.1043   1.1381   1.6527   1.6608   1.6661   1.6944   1.6956
     1.7157   1.7182   1.8083   1.8306   1.8596   1.8790   1.9206   1.9258
     1.9457   1.9749   1.9955   1.9995   2.0272   2.0454   2.0519   2.0836
     2.1054   2.1131   2.1480   2.1647   2.1750   2.1879   2.2160   2.2213
     2.2256   2.2412   2.2445   2.2657   2.2767   2.2840   2.3023   2.3135
     2.3213   2.3306   2.3361   2.3602   2.3701   2.3911   2.4055   2.4180
     2.4431   2.4438   2.4706   2.4771   2.5007   2.5061   2.5194   2.5499
     2.5628   2.5721   2.5897   2.6271   2.6571   2.6999   2.7163   2.7747
     2.7795   2.7930   2.8283   2.8514   2.8915   3.2644   3.4496   3.7001
     3.7693   3.8459   3.9146   3.9810   4.0053   4.0717   4.3214   4.4143
     4.6182   4.7458   4.8613   4.8910   4.9324   5.0230   5.3792   6.2861
     6.3327   6.4820   6.5605   6.6495   6.7098   6.8039   6.8123   6.8574
     7.0011   7.0300   7.0918   7.1116   7.2860   7.3366   7.3429   7.3744
     7.4998   7.5831   7.6269   7.6606   7.6932   7.6966   7.7824   7.8147
     7.8652   7.9080   7.9338   7.9483   7.9811   7.9947   8.0482   8.0753
     8.0945   8.1155   8.1502   8.1950   8.2346   8.2499   8.2713   8.3001
     8.3130   8.3436   8.3844   8.4328   8.4557   8.4655   8.4972   8.5164
     8.5349   8.5438   8.5516   8.5764   8.6084   8.6299   8.6353   8.6626
     8.6938   8.7137   8.7324   8.7826   8.8118   8.8304   8.8486

     the Fermi energy is     1.5509 ev

!    total energy              =   -7398.07877287 Ry
     estimated scf accuracy    <       0.00000099 Ry
     smearing contrib. (-TS)   =      -0.01377779 Ry
     internal energy E=F+TS    =   -7398.06499507 Ry

     The total energy is F=E-TS. E is the sum of the following terms:
     one-electron contribution =  -91725.66552696 Ry
     hartree contribution      =   46509.59233278 Ry
     xc contribution           =   -2260.24091942 Ry
     ewald contribution        =   40080.08203362 Ry
     Dispersion Correction     =      -1.83292404 Ry
     electric field correction =       0.00000895 Ry

     total magnetization       =    78.77 Bohr mag/cell
     absolute magnetization    =    80.44 Bohr mag/cell

     convergence has been achieved in  56 iterations

     negative rho (up, down):  9.272E-04 5.560E-04

     Forces acting on atoms (cartesian axes, Ry/au):

     atom    1 type  2   force =     0.00118534   -0.00101668   -0.00225978
     atom    2 type  1   force =     0.00002683    0.00012554   -0.00013242
     atom    3 type  1   force =    -0.00002951   -0.00093261   -0.00041068
     atom    4 type  1   force =    -0.00012682    0.00007964    0.00030135
     atom    5 type  1   force =    -0.00015579   -0.00008866    0.00023203
     atom    6 type  1   force =     0.00003179   -0.00066712    0.00009700
     atom    7 type  1   force =    -0.00015872   -0.00025364   -0.00012259
     atom    8 type  1   force =    -0.00032488   -0.00004235   -0.00037069
     atom    9 type  1   force =    -0.00030740    0.00036681   -0.00064371
     atom   10 type  1   force =    -0.00047922    0.00018328   -0.00008339
     atom   11 type  1   force =    -0.00057000    0.00042435   -0.00070108
     atom   12 type  1   force =     0.00006391    0.00004585   -0.00103283
     atom   13 type  3   force =    -0.00044055   -0.00017175   -0.00020392
     atom   14 type  3   force =    -0.00003476   -0.00002438   -0.00032152
     atom   15 type  3   force =     0.00006006   -0.00000899   -0.00040209
     atom   16 type  3   force =     0.00000638    0.00001034   -0.00011708
     atom   17 type  4   force =     0.00010738   -0.00017699    0.00020241
     atom   18 type  4   force =     0.00046375   -0.00006846    0.00014938
     atom   19 type  4   force =     0.00026757   -0.00048690    0.00083438
     atom   20 type  4   force =    -0.00004426    0.00037620    0.00029120
     atom   21 type  4   force =    -0.00027506    0.00023507    0.00003063
     atom   22 type  4   force =    -0.00011044    0.00024728   -0.00018041
     atom   23 type  4   force =     0.00012541   -0.00048466   -0.00072961
     atom   24 type  4   force =     0.00013250   -0.00005598    0.00021402
     atom   25 type  4   force =    -0.00019673    0.00009937    0.00014305
     atom   26 type  4   force =     0.00030861   -0.00011916    0.00034836
     atom   27 type  4   force =    -0.00003469    0.00038649    0.00006049
     atom   28 type  4   force =    -0.00013488   -0.00017074   -0.00018793
     atom   29 type  4   force =     0.00016778   -0.00056693   -0.00016250
     atom   30 type  4   force =    -0.00053463   -0.00015825   -0.00017219
     atom   31 type  4   force =    -0.00010601    0.00011606   -0.00028592
     atom   32 type  4   force =    -0.00013653    0.00021738   -0.00049122
     atom   33 type  3   force =     0.00074065    0.00005376    0.00043712
     atom   34 type  3   force =    -0.00029771    0.00047055    0.00066418
     atom   35 type  3   force =     0.00017754   -0.00005883    0.00003878
     atom   36 type  3   force =    -0.00030071   -0.00004663   -0.00027122
     atom   37 type  4   force =     0.00006306    0.00009510    0.00005749
     atom   38 type  4   force =    -0.00007974    0.00038967   -0.00006403
     atom   39 type  4   force =    -0.00014936    0.00002364    0.00018511
     atom   40 type  4   force =    -0.00024971   -0.00012072   -0.00032794
     atom   41 type  4   force =     0.00002869   -0.00013440   -0.00007210
     atom   42 type  4   force =    -0.00044073   -0.00002206   -0.00015234
     atom   43 type  4   force =     0.00035141    0.00006159    0.00031731
     atom   44 type  4   force =     0.00001747   -0.00021168   -0.00005951
     atom   45 type  4   force =    -0.00016959   -0.00002435   -0.00020967
     atom   46 type  4   force =     0.00051248   -0.00013557    0.00007141
     atom   47 type  4   force =     0.00002060   -0.00030983    0.00013900
     atom   48 type  4   force =     0.00034155    0.00049135   -0.00016314
     atom   49 type  4   force =     0.00014639   -0.00005153   -0.00032717
     atom   50 type  4   force =    -0.00024422   -0.00023397    0.00008691
     atom   51 type  4   force =     0.00005897   -0.00023435    0.00000666
     atom   52 type  4   force =     0.00005964   -0.00028663   -0.00011759
     atom   53 type  2   force =     0.00254090   -0.00350523    0.00552909
     atom   54 type  1   force =     0.00507231   -0.00205466    0.00389577
     atom   55 type  1   force =     0.00809537   -0.00314786    0.00288442
     atom   56 type  1   force =    -0.00195094    0.01015815    0.00597378
     atom   57 type  1   force =     0.00030594    0.02292891    0.01495984
     atom   58 type  1   force =     0.00211606   -0.00316477   -0.00128657
     atom   59 type  1   force =     0.00093781   -0.00884167    0.00141108
     atom   60 type  1   force =    -0.00520887   -0.00179970    0.00475543
     atom   61 type  1   force =    -0.00191006   -0.00055319    0.00456066
     atom   62 type  1   force =    -0.00435287    0.00818031    0.00590372
     atom   63 type  1   force =    -0.01142637    0.02569860    0.01889025
     atom   64 type  1   force =    -0.00198014    0.00133631    0.00170282
     atom   65 type  3   force =     0.04619412   -0.11393525   -0.01056270
     atom   66 type  3   force =    -0.00057823   -0.00145220    0.00427383
     atom   67 type  3   force =    -0.03974348    0.12465396    0.01507949
     atom   68 type  3   force =     0.06274575   -0.00163570   -0.00330830
     atom   69 type  4   force =     0.01380718   -0.01832092    0.00369001
     atom   70 type  4   force =    -0.00070020    0.00268764   -0.00118036
     atom   71 type  4   force =    -0.00119328    0.00359973   -0.00550500
     atom   72 type  4   force =     0.00408695    0.00178874   -0.00061234
     atom   73 type  4   force =     0.00089404   -0.01154962    0.00266216
     atom   74 type  4   force =    -0.00016011   -0.00071767   -0.00012521
     atom   75 type  4   force =     0.00137911    0.01460666    0.00519855
     atom   76 type  4   force =     0.00839317    0.00516442    0.00919195
     atom   77 type  4   force =     0.00712974   -0.00254373    0.00157924
     atom   78 type  4   force =     0.04463539   -0.14176085   -0.00643570
     atom   79 type  4   force =     0.00166046    0.00192819    0.00142731
     atom   80 type  4   force =    -0.00005828    0.00290143   -0.00159349
     atom   81 type  4   force =     0.06797524    0.00047537   -0.00643799
     atom   82 type  4   force =    -0.00010260    0.00070664   -0.00143952
     atom   83 type  4   force =    -0.03925489    0.13500384    0.00269124
     atom   84 type  4   force =    -0.00282863   -0.01099070   -0.00413503
     atom   85 type  3   force =     0.03993726   -0.12017547   -0.01824422
     atom   86 type  3   force =    -0.06402992    0.00010346    0.00874770
     atom   87 type  3   force =    -0.04513609    0.12430232    0.01712998
     atom   88 type  3   force =    -0.00168822    0.00015211    0.00261105
     atom   89 type  4   force =     0.00901825   -0.01525173    0.00396865
     atom   90 type  4   force =    -0.00488375    0.00150402   -0.00004357
     atom   91 type  4   force =    -0.00889777    0.00825731   -0.00585518
     atom   92 type  4   force =     0.00012911    0.00008549   -0.00050429
     atom   93 type  4   force =    -0.00178490   -0.00836851    0.00739028
     atom   94 type  4   force =    -0.00405023    0.00019481    0.00114473
     atom   95 type  4   force =    -0.00377058    0.01401913    0.00664932
     atom   96 type  4   force =     0.00420517    0.00511556    0.00958157
     atom   97 type  4   force =     0.00005202    0.00045310    0.00068987
     atom   98 type  4   force =     0.04023909   -0.14072746   -0.00487595
     atom   99 type  4   force =    -0.06682934    0.00000305    0.00637023
     atom  100 type  4   force =    -0.00171901    0.00403372   -0.00235745
     atom  101 type  4   force =     0.00022306    0.00071380   -0.00074574
     atom  102 type  4   force =    -0.00632451    0.00377809   -0.00133138
     atom  103 type  4   force =    -0.04028371    0.13355508    0.00433746
     atom  104 type  4   force =    -0.00691398   -0.00985509   -0.00516437
     atom  105 type  2   force =     0.00412785   -0.00652227   -0.01842208
     atom  106 type  1   force =     0.02832665    0.01442715    0.01142541
     atom  107 type  1   force =     0.00872850   -0.00616861   -0.01441451
     atom  108 type  1   force =    -0.02854058    0.02174367    0.01848960
     atom  109 type  1   force =     0.00507743    0.01607231    0.00904121
     atom  110 type  1   force =    -0.00262804   -0.00881868   -0.00721323
     atom  111 type  1   force =    -0.00083776   -0.00944529   -0.01176674
     atom  112 type  1   force =     0.02927684    0.01763882    0.01116427
     atom  113 type  1   force =    -0.00072279   -0.00505205   -0.01425168
     atom  114 type  1   force =    -0.02975759    0.02081060    0.01827652
     atom  115 type  1   force =    -0.00718371    0.01848173    0.01176117
     atom  116 type  1   force =    -0.00552741   -0.00437366   -0.00339177
     atom  117 type  3   force =     0.01424260   -0.17391544   -0.10879460
     atom  118 type  3   force =     0.00517643   -0.00850308   -0.01260269
     atom  119 type  3   force =    -0.04466137    0.12488583   -0.00188382
     atom  120 type  3   force =     0.09507485   -0.04105218   -0.07973179
     atom  121 type  4   force =     0.00612401   -0.01704915    0.03714223
     atom  122 type  4   force =    -0.00350256    0.00372743    0.00450482
     atom  123 type  4   force =    -0.00087543    0.00256035   -0.00283427
     atom  124 type  4   force =     0.00848622    0.00219333    0.02691951
     atom  125 type  4   force =     0.00990946   -0.01683947    0.01610926
     atom  126 type  4   force =    -0.00753197    0.00104389   -0.00300165
     atom  127 type  4   force =     0.00401579    0.00973315    0.00055365
     atom  128 type  4   force =    -0.00064750   -0.00102217    0.03033832
     atom  129 type  4   force =    -0.00771236    0.02542342    0.00120851
     atom  130 type  4   force =     0.04341875   -0.14590596   -0.00191144
     atom  131 type  4   force =    -0.01732336   -0.00040036    0.00286867
     atom  132 type  4   force =     0.00338007    0.00265941    0.00199671
     atom  133 type  4   force =     0.06971420    0.00366290   -0.00192450
     atom  134 type  4   force =     0.00092825    0.00361025    0.00272018
     atom  135 type  4   force =    -0.02750216    0.17213276    0.00608892
     atom  136 type  4   force =     0.01949019   -0.00861500    0.00402846
     atom  137 type  3   force =     0.00910535   -0.16687662   -0.09425218
     atom  138 type  3   force =    -0.06463944   -0.00209264   -0.00493102
     atom  139 type  3   force =    -0.04873426    0.11822441    0.00152519
     atom  140 type  3   force =     0.03144319   -0.04323751   -0.07369788
     atom  141 type  4   force =     0.00467794   -0.01327491    0.03206774
     atom  142 type  4   force =    -0.00541338   -0.00034943    0.00432399
     atom  143 type  4   force =    -0.00821548    0.00808426   -0.00350014
     atom  144 type  4   force =     0.00383154    0.00139051    0.02752499
     atom  145 type  4   force =     0.00693347   -0.01294101    0.03250389
     atom  146 type  4   force =    -0.00877927   -0.00172959   -0.00297908
     atom  147 type  4   force =     0.00036445    0.00993122    0.00275474
     atom  148 type  4   force =    -0.00793945    0.00128517    0.02924232
     atom  149 type  4   force =    -0.01320841    0.02934599    0.00051844
     atom  150 type  4   force =     0.03980829   -0.13832755   -0.00139825
     atom  151 type  4   force =    -0.08605862   -0.00173652    0.00916589
     atom  152 type  4   force =     0.00119433    0.00389514    0.00142724
     atom  153 type  4   force =    -0.00349865    0.00085164    0.00296471
     atom  154 type  4   force =    -0.00591349    0.00596007    0.00131485
     atom  155 type  4   force =    -0.02791306    0.16634486    0.00486980
     atom  156 type  4   force =     0.01045875   -0.00972822   -0.00135707
     atom  157 type  4   force =     0.00467509    0.00604885    0.00201551
     atom  158 type  5   force =    -0.00606807   -0.00306424    0.00013454

     Total force =     0.670885     Total SCF correction =     0.005074
 
     init_run     :      7.12s CPU      7.81s WALL (       1 calls)
     electrons    :    769.26s CPU    806.82s WALL (       1 calls)
     forces       :      3.79s CPU      4.14s WALL (       1 calls)
     force_london :      0.09s CPU      0.09s WALL (       1 calls)

     Called by init_run:
     wfcinit      :      4.14s CPU      4.27s WALL (       1 calls)
     potinit      :      0.58s CPU      0.77s WALL (       1 calls)
     hinit0       :      1.26s CPU      1.37s WALL (       1 calls)

     Called by electrons:
     c_bands      :    614.04s CPU    634.61s WALL (      56 calls)
     sum_band     :     98.80s CPU    108.06s WALL (      56 calls)
     v_of_rho     :     11.11s CPU     12.03s WALL (      57 calls)
     newd         :     30.39s CPU     37.35s WALL (      57 calls)
     mix_rho      :     14.62s CPU     14.76s WALL (      56 calls)
     energy_londo :      0.09s CPU      0.09s WALL (       1 calls)

     Called by c_bands:
     init_us_2    :      1.91s CPU      1.96s WALL (     228 calls)
     init_us_2:cp :      1.91s CPU      1.96s WALL (     228 calls)
     regterg      :    601.59s CPU    621.99s WALL (     115 calls)

     Called by *egterg:
     rdiaghg      :    174.27s CPU    184.85s WALL (     541 calls)
     h_psi        :    228.13s CPU    232.29s WALL (     543 calls)
     s_psi        :     45.65s CPU     45.69s WALL (     543 calls)
     g_psi        :      0.31s CPU      0.31s WALL (     426 calls)

     Called by h_psi:
     h_psi:calbec :     61.23s CPU     64.87s WALL (     543 calls)
     vloc_psi     :    119.21s CPU    119.67s WALL (     543 calls)
     add_vuspsi   :     47.02s CPU     47.09s WALL (     543 calls)

     General routines
     calbec       :     89.34s CPU     94.75s WALL (     663 calls)
     fft          :     14.54s CPU     15.75s WALL (    1039 calls)
     ffts         :      8.80s CPU      8.84s WALL (    6935 calls)
     fftw         :    133.74s CPU    134.24s WALL (  193166 calls)
     interpolate  :      0.91s CPU      0.99s WALL (     114 calls)
 
     Parallel routines
 
     PWSCF        :  13m 2.07s CPU  13m41.11s WALL

 
   This run was terminated on:  20: 1:29  19Nov2025            

=------------------------------------------------------------------------------=
   JOB DONE.
=------------------------------------------------------------------------------=
