
     Program PWSCF v.7.2 starts on 19Nov2025 at 20:45:52 

     This program is part of the open-source Quantum ESPRESSO suite
     for quantum simulation of materials; please cite
         "P. Giannozzi et al., J. Phys.:Condens. Matter 21 395502 (2009);
         "P. Giannozzi et al., J. Phys.:Condens. Matter 29 465901 (2017);
         "P. Giannozzi et al., J. Chem. Phys. 152 154105 (2020);
          URL http://www.quantum-espresso.org", 
     in publications or presentations arising from this work. More details at
     http://www.quantum-espresso.org/quote

     Parallel version (MPI), running on    64 processors

     MPI processes distributed on     4 nodes
     384861 MiB available memory on the printing compute node when the environment starts
 
     Reading input from PWINPUT_atm158_xm

     Current dimensions of program PWSCF are:
     Max number of different atomic species (ntypx) = 10
     Max number of k-points (npk) =  40000
     Max angular momentum in pseudopotentials (lmaxx) =  4
     Presently no symmetry can be used with electric field

     file Ni.pbe-n-rrkjus_psl.1.0.0.UPF: wavefunction(s)  3D renormalized
     file Mn.pbe-spn-rrkjus_psl.0.3.1.UPF: wavefunction(s)  3D renormalized
     file O.pbe-rrkjus.UPF: wavefunction(s)  2S renormalized
     file H.pbe-rrkjus.UPF: wavefunction(s)  1S renormalized

     gamma-point specific algorithms are used
 
     R & G space division:  proc/nbgrp/npool/nimage =      64
     Subspace diagonalization in iterative solution of the eigenvalue problem:
     one sub-group per band group will be used
     custom distributed-memory algorithm (size of sub-group:  6*  6 procs)

 
     Parallelization info
     --------------------
     sticks:   dense  smooth     PW     G-vecs:    dense   smooth      PW
     Min         208      82     20                59912    15118    1876
     Max         210      84     22                59974    15196    1926
     Sum       13399    5355   1345              3836275   970529  121367
 
     Using Slab Decomposition
 


     bravais-lattice index     =            0
     lattice parameter (alat)  =      17.7004  a.u.
     unit-cell volume          =   20319.7251 (a.u.)^3
     number of atoms/cell      =          158
     number of atomic types    =            5
     number of electrons       =      1078.00
     number of Kohn-Sham states=          647
     kinetic-energy cutoff     =      50.0000  Ry
     charge density cutoff     =     500.0000  Ry
     scf convergence threshold =      1.0E-06
     mixing beta               =       0.1000
     number of iterations used =            8  local-TF  mixing
     Exchange-correlation=  SLA  PW   PBE  PBE
                           (   1   4   3   4   0   0   0)

     celldm(1)=  17.700384  celldm(2)=   0.000000  celldm(3)=   0.000000
     celldm(4)=   0.000000  celldm(5)=   0.000000  celldm(6)=   0.000000

     crystal axes: (cart. coord. in units of alat)
               a(1) = (   1.000000   0.000000   0.000000 )  
               a(2) = (   0.000000   1.075730   0.000000 )  
               a(3) = (   0.000000   0.000000   3.406172 )  

     reciprocal axes: (cart. coord. in units 2 pi/alat)
               b(1) = (  1.000000  0.000000  0.000000 )  
               b(2) = (  0.000000  0.929602  0.000000 )  
               b(3) = (  0.000000  0.000000  0.293585 )  


     PseudoPot. # 1 for Ni read from file:
     ~/PSEUDO/Ni.pbe-n-rrkjus_psl.1.0.0.UPF
     MD5 check sum: Not computed, couldn't open file
     Pseudo is Ultrasoft + core correction, Zval = 10.0
     Generated using "atomic" code by A. Dal Corso  v.5.1.2
     Using radial grid of 1195 points,  6 beta functions with: 
                l(1) =   0
                l(2) =   0
                l(3) =   1
                l(4) =   1
                l(5) =   2
                l(6) =   2
     Q(r) pseudized with 0 coefficients 


     PseudoPot. # 2 for Mn read from file:
     ~/PSEUDO/Mn.pbe-spn-rrkjus_psl.0.3.1.UPF
     MD5 check sum: Not computed, couldn't open file
     Pseudo is Ultrasoft + core correction, Zval = 15.0
     Generated using &quot;atomic&quot; code by A. Dal Corso  v.6.2.2
     Using radial grid of 1187 points,  6 beta functions with: 
                l(1) =   0
                l(2) =   0
                l(3) =   1
                l(4) =   1
                l(5) =   2
                l(6) =   2
     Q(r) pseudized with 0 coefficients 


     PseudoPot. # 3 for P  read from file:
     ~/PSEUDO/P.pbe-n-rrkjus_psl.1.0.0.UPF
     MD5 check sum: Not computed, couldn't open file
     Pseudo is Ultrasoft + core correction, Zval =  5.0
     Generated using "atomic" code by A. Dal Corso  v.5.1
     Using radial grid of 1147 points,  6 beta functions with: 
                l(1) =   0
                l(2) =   0
                l(3) =   1
                l(4) =   1
                l(5) =   2
                l(6) =   2
     Q(r) pseudized with 0 coefficients 


     PseudoPot. # 4 for O  read from file:
     ~/PSEUDO/O.pbe-rrkjus.UPF
     MD5 check sum: Not computed, couldn't open file
     Pseudo is Ultrasoft, Zval =  6.0
     Generated by new atomic code, or converted to UPF format
     Using radial grid of 1269 points,  4 beta functions with: 
                l(1) =   0
                l(2) =   0
                l(3) =   1
                l(4) =   1
     Q(r) pseudized with 0 coefficients 


     PseudoPot. # 5 for H  read from file:
     ~/PSEUDO/H.pbe-rrkjus.UPF
     MD5 check sum: Not computed, couldn't open file
     Pseudo is Ultrasoft, Zval =  1.0
     Generated by new atomic code, or converted to UPF format
     Using radial grid of 1061 points,  2 beta functions with: 
                l(1) =   0
                l(2) =   0
     Q(r) pseudized with 0 coefficients 


     atomic species   valence    mass     pseudopotential
     Ni               10.00    58.69300     Ni( 1.00)
     Mn               15.00    54.93800     Mn( 1.00)
     P                 5.00    30.97300     P ( 1.00)
     O                 6.00    15.99900     O ( 1.00)
     H                 1.00     1.00790     H ( 1.00)

     Starting magnetic structure 
     atomic species   magnetization
     Ni              1.000
     Mn              1.000
     P               1.000
     O               1.000
     H               0.000

     No symmetry found



   Cartesian axes

     site n.     atom                  positions (alat units)
         1        Mn     tau(   1) = (   0.2517087   0.8371115   1.7089200  )
         2        Ni     tau(   2) = (   0.4946298   0.7752973   1.3725824  )
         3        Ni     tau(   3) = (   0.0015481   0.2961171   1.6749872  )
         4        Ni     tau(   4) = (   0.2613521   0.2396234   1.3678359  )
         5        Ni     tau(   5) = (   0.9984933   1.0749377   1.5355607  )
         6        Ni     tau(   6) = (   0.2572590   0.5404195   1.5326386  )
         7        Ni     tau(   7) = (   0.7529013   0.8355294   1.6752854  )
         8        Ni     tau(   8) = (   0.9935933   0.7756548   1.3720141  )
         9        Ni     tau(   9) = (   0.5024742   0.2964342   1.6745479  )
        10        Ni     tau(  10) = (   0.7618978   0.2375431   1.3667264  )
        11        Ni     tau(  11) = (   0.4990156   1.0768182   1.5305295  )
        12        Ni     tau(  12) = (   0.7564696   0.5358840   1.5310064  )
        13        P      tau(  13) = (   0.2101543   0.9720156   1.3797127  )
        14        P      tau(  14) = (   0.4706542   0.6451455   1.6955617  )
        15        P      tau(  15) = (   0.2884324   0.1127271   1.6923494  )
        16        P      tau(  16) = (   0.0456337   0.4340918   1.3707912  )
        17        O      tau(  17) = (   0.1335059   0.8997101   1.5140650  )
        18        O      tau(  18) = (   0.3867827   0.7182378   1.5594019  )
        19        O      tau(  19) = (   0.3670053   0.1737862   1.5463102  )
        20        O      tau(  20) = (   0.1240237   0.3636575   1.5070371  )
        21        O      tau(  21) = (   0.1473160   0.8837944   1.2542796  )
        22        O      tau(  22) = (   0.4146853   0.7340483   1.8196848  )
        23        O      tau(  23) = (   0.3495356   0.2093518   1.8074273  )
        24        O      tau(  24) = (   0.1052584   0.3464292   1.2439881  )
        25        O      tau(  25) = (   0.1049117   0.5895470   1.3757347  )
        26        O      tau(  26) = (   0.3473708   1.0308751   1.6857652  )
        27        O      tau(  27) = (   0.3810036   0.4281764   1.3825697  )
        28        O      tau(  28) = (   0.1238775   0.1159040   1.6775620  )
        29        O      tau(  29) = (   0.1305439   0.6501957   1.6820985  )
        30        O      tau(  30) = (   0.4132477   0.4886172   1.6862595  )
        31        O      tau(  31) = (   0.1524630   0.0515712   1.3799009  )
        32        O      tau(  32) = (   0.3743678   0.9633656   1.3849747  )
        33        P      tau(  33) = (   0.7103643   0.9714602   1.3712571  )
        34        P      tau(  34) = (   0.9649208   0.6440558   1.6927385  )
        35        P      tau(  35) = (   0.7871885   0.1098825   1.6920406  )
        36        P      tau(  36) = (   0.5450176   0.4335131   1.3702334  )
        37        O      tau(  37) = (   0.6319749   0.9002438   1.5073571  )
        38        O      tau(  38) = (   0.8891581   0.7073457   1.5481759  )
        39        O      tau(  39) = (   0.8662231   0.1700413   1.5462886  )
        40        O      tau(  40) = (   0.6235591   0.3611085   1.5054814  )
        41        O      tau(  41) = (   0.6491843   0.8831538   1.2455076  )
        42        O      tau(  42) = (   0.9034437   0.7399336   1.8095699  )
        43        O      tau(  43) = (   0.8478548   0.2077401   1.8063738  )
        44        O      tau(  44) = (   0.6060435   0.3462002   1.2436710  )
        45        O      tau(  45) = (   0.6035774   0.5890693   1.3768175  )
        46        O      tau(  46) = (   0.8421571   1.0273722   1.6917632  )
        47        O      tau(  47) = (   0.8816644   0.4266506   1.3828449  )
        48        O      tau(  48) = (   0.6221997   0.1135664   1.6772983  )
        49        O      tau(  49) = (   0.6347776   0.6499156   1.6770748  )
        50        O      tau(  50) = (   0.9100442   0.4869846   1.6900532  )
        51        O      tau(  51) = (   0.6512513   0.0508446   1.3744142  )
        52        O      tau(  52) = (   0.8740844   0.9637479   1.3848135  )
        53        Mn     tau(  53) = (   0.2404744   0.8246335   1.0701417  )
        54        Ni     tau(  54) = (   0.4968126   0.7601755   0.7454373  )
        55        Ni     tau(  55) = (   0.0066150   0.2811828   1.0628866  )
        56        Ni     tau(  56) = (   0.2585722   0.2230943   0.7421070  )
        57        Ni     tau(  57) = (   0.9987350   1.0571496   0.9014992  )
        58        Ni     tau(  58) = (   0.2517397   0.5205596   0.9040596  )
        59        Ni     tau(  59) = (   0.7451645   0.8212628   1.0648168  )
        60        Ni     tau(  60) = (   0.9939181   0.7613889   0.7462324  )
        61        Ni     tau(  61) = (   0.5111533   0.2799173   1.0618053  )
        62        Ni     tau(  62) = (   0.7606326   0.2194352   0.7418547  )
        63        Ni     tau(  63) = (   0.5024065   1.0563218   0.8999416  )
        64        Ni     tau(  64) = (   0.7529977   0.5192985   0.9024691  )
        65        P      tau(  65) = (   0.2092944   0.9606182   0.7524883  )
        66        P      tau(  66) = (   0.4655727   0.6234620   1.0595283  )
        67        P      tau(  67) = (   0.2910699   0.0902448   1.0573821  )
        68        P      tau(  68) = (   0.0396216   0.4163480   0.7471080  )
        69        O      tau(  69) = (   0.1294378   0.8888345   0.8859300  )
        70        O      tau(  70) = (   0.3874505   0.6929859   0.9232915  )
        71        O      tau(  71) = (   0.3702540   0.1589885   0.9209891  )
        72        O      tau(  72) = (   0.1184398   0.3458043   0.8831565  )
        73        O      tau(  73) = (   0.1451572   0.8725966   0.6282341  )
        74        O      tau(  74) = (   0.4048762   0.7120670   1.1852426  )
        75        O      tau(  75) = (   0.3523506   0.1775664   1.1834175  )
        76        O      tau(  76) = (   0.1017610   0.3285569   0.6213347  )
        77        O      tau(  77) = (   0.0975396   0.5724373   0.7511996  )
        78        O      tau(  78) = (   0.3483552   1.0190030   1.0599597  )
        79        O      tau(  79) = (   0.3784305   0.4100203   0.7560991  )
        80        O      tau(  80) = (   0.1268237   0.0943029   1.0477175  )
        81        O      tau(  81) = (   0.1212267   0.6299255   1.0507023  )
        82        O      tau(  82) = (   0.4053315   0.4684472   1.0569297  )
        83        O      tau(  83) = (   0.1536621   0.0322003   0.7496532  )
        84        O      tau(  84) = (   0.3732349   0.9506802   0.7613277  )
        85        P      tau(  85) = (   0.7119823   0.9571059   0.7496908  )
        86        P      tau(  86) = (   0.9615208   0.6238477   1.0606987  )
        87        P      tau(  87) = (   0.7927710   0.0845145   1.0577754  )
        88        P      tau(  88) = (   0.5426404   0.4144760   0.7459181  )
        89        O      tau(  89) = (   0.6326879   0.8866267   0.8856678  )
        90        O      tau(  90) = (   0.8842163   0.6958291   0.9244764  )
        91        O      tau(  91) = (   0.8716178   0.1552836   0.9216415  )
        92        O      tau(  92) = (   0.6212010   0.3433751   0.8818834  )
        93        O      tau(  93) = (   0.6507714   0.8687427   0.6238197  )
        94        O      tau(  94) = (   0.9014054   0.7139543   1.1859242  )
        95        O      tau(  95) = (   0.8548963   0.1722994   1.1834447  )
        96        O      tau(  96) = (   0.6044469   0.3253792   0.6209553  )
        97        O      tau(  97) = (   0.6024424   0.5698225   0.7490903  )
        98        O      tau(  98) = (   0.8498940   1.0129567   1.0594762  )
        99        O      tau(  99) = (   0.8798395   0.4080910   0.7564148  )
       100        O      tau( 100) = (   0.6286921   0.0909721   1.0472573  )
       101        O      tau( 101) = (   0.6294973   0.6302838   1.0497366  )
       102        O      tau( 102) = (   0.9024339   0.4685397   1.0573501  )
       103        O      tau( 103) = (   0.6547812   0.0286072   0.7473283  )
       104        O      tau( 104) = (   0.8760507   0.9507690   0.7605412  )
       105        Mn     tau( 105) = (   0.2404744   0.8121420   0.4502541  )
       106        Ni     tau( 106) = (   0.4968126   0.7476840   0.1255496  )
       107        Ni     tau( 107) = (   0.0066150   0.2686914   0.4429989  )
       108        Ni     tau( 108) = (   0.2585722   0.2106028   0.1222194  )
       109        Ni     tau( 109) = (   0.9987350   1.0446581   0.2816116  )
       110        Ni     tau( 110) = (   0.2517397   0.5080681   0.2841720  )
       111        Ni     tau( 111) = (   0.7451645   0.8087713   0.4449291  )
       112        Ni     tau( 112) = (   0.9939181   0.7488974   0.1263448  )
       113        Ni     tau( 113) = (   0.5111533   0.2674258   0.4419177  )
       114        Ni     tau( 114) = (   0.7606326   0.2069438   0.1219670  )
       115        Ni     tau( 115) = (   0.5024065   1.0438304   0.2800540  )
       116        Ni     tau( 116) = (   0.7529977   0.5068070   0.2825815  )
       117        P      tau( 117) = (   0.2092944   0.9481267   0.1326007  )
       118        P      tau( 118) = (   0.4655727   0.6109705   0.4396407  )
       119        P      tau( 119) = (   0.2910699   0.0777534   0.4374945  )
       120        P      tau( 120) = (   0.0396216   0.4038566   0.1272204  )
       121        O      tau( 121) = (   0.1294378   0.8763430   0.2660424  )
       122        O      tau( 122) = (   0.3874505   0.6804944   0.3034039  )
       123        O      tau( 123) = (   0.3702540   0.1464970   0.3011014  )
       124        O      tau( 124) = (   0.1184398   0.3333129   0.2632689  )
       125        O      tau( 125) = (   0.1451572   0.8601051   0.0083464  )
       126        O      tau( 126) = (   0.4048762   0.6995756   0.5653550  )
       127        O      tau( 127) = (   0.3523506   0.1650749   0.5635298  )
       128        O      tau( 128) = (   0.1017610   0.3160655   0.0014470  )
       129        O      tau( 129) = (   0.0975396   0.5599458   0.1313120  )
       130        O      tau( 130) = (   0.3483552   1.0065115   0.4400720  )
       131        O      tau( 131) = (   0.3784305   0.3975288   0.1362114  )
       132        O      tau( 132) = (   0.1268237   0.0818115   0.4278298  )
       133        O      tau( 133) = (   0.1212267   0.6174340   0.4308146  )
       134        O      tau( 134) = (   0.4053315   0.4559557   0.4370420  )
       135        O      tau( 135) = (   0.1536621   0.0197088   0.1297656  )
       136        O      tau( 136) = (   0.3732349   0.9381887   0.1414400  )
       137        P      tau( 137) = (   0.7119823   0.9446144   0.1298032  )
       138        P      tau( 138) = (   0.9615208   0.6113562   0.4408111  )
       139        P      tau( 139) = (   0.7927710   0.0720230   0.4378878  )
       140        P      tau( 140) = (   0.5426404   0.4019845   0.1260304  )
       141        O      tau( 141) = (   0.6326879   0.8741353   0.2657802  )
       142        O      tau( 142) = (   0.8842163   0.6833376   0.3045887  )
       143        O      tau( 143) = (   0.8716178   0.1427921   0.3017538  )
       144        O      tau( 144) = (   0.6212010   0.3308836   0.2619957  )
       145        O      tau( 145) = (   0.6507714   0.8562512   0.0039320  )
       146        O      tau( 146) = (   0.9014054   0.7014628   0.5660366  )
       147        O      tau( 147) = (   0.8548963   0.1598079   0.5635571  )
       148        O      tau( 148) = (   0.6044469   0.3128877   0.0010676  )
       149        O      tau( 149) = (   0.6024424   0.5573310   0.1292027  )
       150        O      tau( 150) = (   0.8498940   1.0004653   0.4395886  )
       151        O      tau( 151) = (   0.8798395   0.3955995   0.1365272  )
       152        O      tau( 152) = (   0.6286921   0.0784807   0.4273696  )
       153        O      tau( 153) = (   0.6294973   0.6177923   0.4298489  )
       154        O      tau( 154) = (   0.9024339   0.4560482   0.4374624  )
       155        O      tau( 155) = (   0.6547812   0.0161158   0.1274406  )
       156        O      tau( 156) = (   0.8760507   0.9382775   0.1406535  )
       157        O      tau( 157) = (   1.1426512   0.9081323   1.8444903  )
       158        H      tau( 158) = (   1.0483976   0.8581547   1.8562154  )

     -------------------------------------------------
     Parameters for Dispersion (Grimme-D2) Correction:
     -------------------------------------------------
       atom      VdW radius       C_6     

        Ni         2.952        374.666
        Mn         2.952        374.666
        P          3.222        271.980
        O          2.536         24.284
        H          1.892          4.857

     number of k points=     1  Gaussian smearing, width (Ry)=  0.0100
                       cart. coord. in units 2pi/alat
        k(    1) = (   0.0000000   0.0000000   0.0000000), wk =   1.0000000

     Dense  grid:  1918138 G-vectors     FFT dimensions: ( 125, 135, 432)

     Smooth grid:   485265 G-vectors     FFT dimensions: (  80,  90, 288)

     Estimated max dynamical RAM per process >     320.12 MB

     Estimated total dynamical RAM >      20.01 GB
     Generating pointlists ...
     new r_m :   0.0866 (alat units)  1.5324 (a.u.) for type    1
     new r_m :   0.0775 (alat units)  1.3721 (a.u.) for type    2
     new r_m :   0.0650 (alat units)  1.1499 (a.u.) for type    3
     new r_m :   0.0443 (alat units)  0.7836 (a.u.) for type    4
     new r_m :   0.0443 (alat units)  0.7836 (a.u.) for type    5

     Initial potential from superposition of free atoms

     starting charge    1077.8900, renormalised to    1078.0000

     negative rho (up, down):  1.248E-03 4.546E-04
 
     Adding external electric field

     Computed dipole along edir(3) : 
        Dipole                1.6042 Ry au,          4.0774 Debye
        Dipole field          0.0010 Ry au, 
 
        Potential amp.       -0.1077 Ry
        Total length         54.2615 bohr
 
 
     Adding external electric field

     Computed dipole along edir(3) : 
        Dipole                1.6042 Ry au,          4.0774 Debye
        Dipole field          0.0010 Ry au, 
 
        Potential amp.       -0.1077 Ry
        Total length         54.2615 bohr
 
     Starting wfcs are  812 randomized atomic wfcs

     total cpu time spent up to now is       10.2 secs

     Self-consistent Calculation

     iteration #  1     ecut=    50.00 Ry     beta= 0.10
     Davidson diagonalization with overlap
     ethr =  1.00E-02,  avg # of iterations =  6.0

     negative rho (up, down):  3.385E-01 1.566E-06
 
     Adding external electric field

     Computed dipole along edir(3) : 
        Dipole               -3.4176 Ry au,         -8.6867 Debye
        Dipole field         -0.0021 Ry au, 
 
        Potential amp.        0.2294 Ry
        Total length         54.2615 bohr
 
 
     Adding external electric field

     Computed dipole along edir(3) : 
        Dipole               -3.4176 Ry au,         -8.6867 Debye
        Dipole field         -0.0021 Ry au, 
 
        Potential amp.        0.2294 Ry
        Total length         54.2615 bohr
 

     total cpu time spent up to now is       38.0 secs

     total energy              =   -7179.40766880 Ry
     estimated scf accuracy    <     733.63394331 Ry

     total magnetization       =   216.00 Bohr mag/cell
     absolute magnetization    =   296.73 Bohr mag/cell

     iteration #  2     ecut=    50.00 Ry     beta= 0.10
     Davidson diagonalization with overlap
     ethr =  1.00E-02,  avg # of iterations =  2.0

     negative rho (up, down):  3.170E-01 1.137E-06
 
     Adding external electric field

     Computed dipole along edir(3) : 
        Dipole               -2.3504 Ry au,         -5.9741 Debye
        Dipole field         -0.0015 Ry au, 
 
        Potential amp.        0.1577 Ry
        Total length         54.2615 bohr
 
 
     Adding external electric field

     Computed dipole along edir(3) : 
        Dipole               -2.3504 Ry au,         -5.9741 Debye
        Dipole field         -0.0015 Ry au, 
 
        Potential amp.        0.1577 Ry
        Total length         54.2615 bohr
 

     total cpu time spent up to now is       53.9 secs

     total energy              =   -7263.16860328 Ry
     estimated scf accuracy    <     185.29871238 Ry

     total magnetization       =   147.45 Bohr mag/cell
     absolute magnetization    =   197.88 Bohr mag/cell

     iteration #  3     ecut=    50.00 Ry     beta= 0.10
     Davidson diagonalization with overlap
     ethr =  1.00E-02,  avg # of iterations =  1.5

     negative rho (up, down):  2.767E-01 9.632E-07
 
     Adding external electric field

     Computed dipole along edir(3) : 
        Dipole               -1.9739 Ry au,         -5.0171 Debye
        Dipole field         -0.0012 Ry au, 
 
        Potential amp.        0.1325 Ry
        Total length         54.2615 bohr
 
 
     Adding external electric field

     Computed dipole along edir(3) : 
        Dipole               -1.9739 Ry au,         -5.0171 Debye
        Dipole field         -0.0012 Ry au, 
 
        Potential amp.        0.1325 Ry
        Total length         54.2615 bohr
 

     total cpu time spent up to now is       66.2 secs

     total energy              =   -7295.13750004 Ry
     estimated scf accuracy    <      97.35134260 Ry

     total magnetization       =   123.85 Bohr mag/cell
     absolute magnetization    =   177.93 Bohr mag/cell

     iteration #  4     ecut=    50.00 Ry     beta= 0.10
     Davidson diagonalization with overlap
     ethr =  9.03E-03,  avg # of iterations =  1.5

     negative rho (up, down):  2.055E-01 2.993E-07
 
     Adding external electric field

     Computed dipole along edir(3) : 
        Dipole               -2.0102 Ry au,         -5.1093 Debye
        Dipole field         -0.0012 Ry au, 
 
        Potential amp.        0.1349 Ry
        Total length         54.2615 bohr
 
 
     Adding external electric field

     Computed dipole along edir(3) : 
        Dipole               -2.0102 Ry au,         -5.1093 Debye
        Dipole field         -0.0012 Ry au, 
 
        Potential amp.        0.1349 Ry
        Total length         54.2615 bohr
 

     total cpu time spent up to now is       78.5 secs

     total energy              =   -7328.43098554 Ry
     estimated scf accuracy    <      77.42934673 Ry

     total magnetization       =   108.46 Bohr mag/cell
     absolute magnetization    =   163.48 Bohr mag/cell

     iteration #  5     ecut=    50.00 Ry     beta= 0.10
     Davidson diagonalization with overlap
     ethr =  7.18E-03,  avg # of iterations =  1.5

     negative rho (up, down):  5.122E-03 8.896E-07
 
     Adding external electric field

     Computed dipole along edir(3) : 
        Dipole               -1.5548 Ry au,         -3.9518 Debye
        Dipole field         -0.0010 Ry au, 
 
        Potential amp.        0.1043 Ry
        Total length         54.2615 bohr
 
 
     Adding external electric field

     Computed dipole along edir(3) : 
        Dipole               -1.5548 Ry au,         -3.9518 Debye
        Dipole field         -0.0010 Ry au, 
 
        Potential amp.        0.1043 Ry
        Total length         54.2615 bohr
 

     total cpu time spent up to now is       91.6 secs

     total energy              =   -7387.91070911 Ry
     estimated scf accuracy    <      60.32839440 Ry

     total magnetization       =    88.00 Bohr mag/cell
     absolute magnetization    =   145.33 Bohr mag/cell

     iteration #  6     ecut=    50.00 Ry     beta= 0.10
     Davidson diagonalization with overlap
     ethr =  5.60E-03,  avg # of iterations =  1.5

     negative rho (up, down):  1.892E-04 2.408E-04
 
     Adding external electric field

     Computed dipole along edir(3) : 
        Dipole               -1.2155 Ry au,         -3.0894 Debye
        Dipole field         -0.0008 Ry au, 
 
        Potential amp.        0.0816 Ry
        Total length         54.2615 bohr
 
 
     Adding external electric field

     Computed dipole along edir(3) : 
        Dipole               -1.2155 Ry au,         -3.0894 Debye
        Dipole field         -0.0008 Ry au, 
 
        Potential amp.        0.0816 Ry
        Total length         54.2615 bohr
 

     total cpu time spent up to now is      104.4 secs

     total energy              =   -7395.74111214 Ry
     estimated scf accuracy    <       9.33994191 Ry

     total magnetization       =    79.39 Bohr mag/cell
     absolute magnetization    =   111.44 Bohr mag/cell

     iteration #  7     ecut=    50.00 Ry     beta= 0.10
     Davidson diagonalization with overlap
     ethr =  8.66E-04,  avg # of iterations =  7.5

     negative rho (up, down):  2.048E-04 2.501E-04
 
     Adding external electric field

     Computed dipole along edir(3) : 
        Dipole               -1.2339 Ry au,         -3.1362 Debye
        Dipole field         -0.0008 Ry au, 
 
        Potential amp.        0.0828 Ry
        Total length         54.2615 bohr
 
 
     Adding external electric field

     Computed dipole along edir(3) : 
        Dipole               -1.2339 Ry au,         -3.1362 Debye
        Dipole field         -0.0008 Ry au, 
 
        Potential amp.        0.0828 Ry
        Total length         54.2615 bohr
 

     total cpu time spent up to now is      128.2 secs

     total energy              =   -7397.63574334 Ry
     estimated scf accuracy    <      13.38212875 Ry

     total magnetization       =    69.63 Bohr mag/cell
     absolute magnetization    =    87.72 Bohr mag/cell

     iteration #  8     ecut=    50.00 Ry     beta= 0.10
     Davidson diagonalization with overlap
     ethr =  8.66E-04,  avg # of iterations =  1.0

     negative rho (up, down):  9.280E-05 2.231E-04
 
     Adding external electric field

     Computed dipole along edir(3) : 
        Dipole               -1.0218 Ry au,         -2.5971 Debye
        Dipole field         -0.0006 Ry au, 
 
        Potential amp.        0.0686 Ry
        Total length         54.2615 bohr
 
 
     Adding external electric field

     Computed dipole along edir(3) : 
        Dipole               -1.0218 Ry au,         -2.5971 Debye
        Dipole field         -0.0006 Ry au, 
 
        Potential amp.        0.0686 Ry
        Total length         54.2615 bohr
 

     total cpu time spent up to now is      140.0 secs

     total energy              =   -7397.53972256 Ry
     estimated scf accuracy    <      14.32639032 Ry

     total magnetization       =    69.20 Bohr mag/cell
     absolute magnetization    =    87.15 Bohr mag/cell

     iteration #  9     ecut=    50.00 Ry     beta= 0.10
     Davidson diagonalization with overlap
     ethr =  8.66E-04,  avg # of iterations =  1.0

     negative rho (up, down):  6.236E-05 2.189E-04
 
     Adding external electric field

     Computed dipole along edir(3) : 
        Dipole               -0.9553 Ry au,         -2.4283 Debye
        Dipole field         -0.0006 Ry au, 
 
        Potential amp.        0.0641 Ry
        Total length         54.2615 bohr
 
 
     Adding external electric field

     Computed dipole along edir(3) : 
        Dipole               -0.9553 Ry au,         -2.4283 Debye
        Dipole field         -0.0006 Ry au, 
 
        Potential amp.        0.0641 Ry
        Total length         54.2615 bohr
 

     total cpu time spent up to now is      151.5 secs

     total energy              =   -7397.50715048 Ry
     estimated scf accuracy    <       8.31001494 Ry

     total magnetization       =    70.10 Bohr mag/cell
     absolute magnetization    =    86.11 Bohr mag/cell

     iteration # 10     ecut=    50.00 Ry     beta= 0.10
     Davidson diagonalization with overlap
     ethr =  7.71E-04,  avg # of iterations =  1.0

     negative rho (up, down):  4.906E-05 1.693E-04
 
     Adding external electric field

     Computed dipole along edir(3) : 
        Dipole               -0.9194 Ry au,         -2.3369 Debye
        Dipole field         -0.0006 Ry au, 
 
        Potential amp.        0.0617 Ry
        Total length         54.2615 bohr
 
 
     Adding external electric field

     Computed dipole along edir(3) : 
        Dipole               -0.9194 Ry au,         -2.3369 Debye
        Dipole field         -0.0006 Ry au, 
 
        Potential amp.        0.0617 Ry
        Total length         54.2615 bohr
 

     total cpu time spent up to now is      162.7 secs

     total energy              =   -7397.56603506 Ry
     estimated scf accuracy    <       3.27491526 Ry

     total magnetization       =    73.76 Bohr mag/cell
     absolute magnetization    =    87.71 Bohr mag/cell

     iteration # 11     ecut=    50.00 Ry     beta= 0.10
     Davidson diagonalization with overlap
     ethr =  3.04E-04,  avg # of iterations =  1.5

     negative rho (up, down):  2.389E-05 1.457E-04
 
     Adding external electric field

     Computed dipole along edir(3) : 
        Dipole               -0.8959 Ry au,         -2.2772 Debye
        Dipole field         -0.0006 Ry au, 
 
        Potential amp.        0.0601 Ry
        Total length         54.2615 bohr
 
 
     Adding external electric field

     Computed dipole along edir(3) : 
        Dipole               -0.8959 Ry au,         -2.2772 Debye
        Dipole field         -0.0006 Ry au, 
 
        Potential amp.        0.0601 Ry
        Total length         54.2615 bohr
 

     total cpu time spent up to now is      174.4 secs

     total energy              =   -7397.64599354 Ry
     estimated scf accuracy    <       1.62568550 Ry

     total magnetization       =    76.59 Bohr mag/cell
     absolute magnetization    =    89.31 Bohr mag/cell

     iteration # 12     ecut=    50.00 Ry     beta= 0.10
     Davidson diagonalization with overlap
     ethr =  1.51E-04,  avg # of iterations = 11.5

     negative rho (up, down):  1.047E-05 4.869E-05
 
     Adding external electric field

     Computed dipole along edir(3) : 
        Dipole               -0.8307 Ry au,         -2.1115 Debye
        Dipole field         -0.0005 Ry au, 
 
        Potential amp.        0.0558 Ry
        Total length         54.2615 bohr
 
 
     Adding external electric field

     Computed dipole along edir(3) : 
        Dipole               -0.8307 Ry au,         -2.1115 Debye
        Dipole field         -0.0005 Ry au, 
 
        Potential amp.        0.0558 Ry
        Total length         54.2615 bohr
 

     total cpu time spent up to now is      196.3 secs

     total energy              =   -7397.82390610 Ry
     estimated scf accuracy    <       0.78833320 Ry

     total magnetization       =    77.79 Bohr mag/cell
     absolute magnetization    =    88.43 Bohr mag/cell

     iteration # 13     ecut=    50.00 Ry     beta= 0.10
     Davidson diagonalization with overlap
     ethr =  7.31E-05,  avg # of iterations =  2.5

     negative rho (up, down):  4.431E-06 2.581E-05
 
     Adding external electric field

     Computed dipole along edir(3) : 
        Dipole               -0.6478 Ry au,         -1.6466 Debye
        Dipole field         -0.0004 Ry au, 
 
        Potential amp.        0.0435 Ry
        Total length         54.2615 bohr
 
 
     Adding external electric field

     Computed dipole along edir(3) : 
        Dipole               -0.6478 Ry au,         -1.6466 Debye
        Dipole field         -0.0004 Ry au, 
 
        Potential amp.        0.0435 Ry
        Total length         54.2615 bohr
 

     total cpu time spent up to now is      208.8 secs

     total energy              =   -7397.99721262 Ry
     estimated scf accuracy    <       0.49894388 Ry

     total magnetization       =    79.76 Bohr mag/cell
     absolute magnetization    =    87.85 Bohr mag/cell

     iteration # 14     ecut=    50.00 Ry     beta= 0.10
     Davidson diagonalization with overlap
     ethr =  4.63E-05,  avg # of iterations =  2.0

     negative rho (up, down):  3.361E-07 4.652E-06
 
     Adding external electric field

     Computed dipole along edir(3) : 
        Dipole               -0.5462 Ry au,         -1.3883 Debye
        Dipole field         -0.0003 Ry au, 
 
        Potential amp.        0.0367 Ry
        Total length         54.2615 bohr
 
 
     Adding external electric field

     Computed dipole along edir(3) : 
        Dipole               -0.5462 Ry au,         -1.3883 Debye
        Dipole field         -0.0003 Ry au, 
 
        Potential amp.        0.0367 Ry
        Total length         54.2615 bohr
 

     total cpu time spent up to now is      221.1 secs

     total energy              =   -7398.05899568 Ry
     estimated scf accuracy    <       0.45153320 Ry

     total magnetization       =    79.65 Bohr mag/cell
     absolute magnetization    =    84.72 Bohr mag/cell

     iteration # 15     ecut=    50.00 Ry     beta= 0.10
     Davidson diagonalization with overlap
     ethr =  4.19E-05,  avg # of iterations =  2.0

     negative rho (up, down):  1.003E-07 9.617E-06
 
     Adding external electric field

     Computed dipole along edir(3) : 
        Dipole               -0.5475 Ry au,         -1.3917 Debye
        Dipole field         -0.0003 Ry au, 
 
        Potential amp.        0.0367 Ry
        Total length         54.2615 bohr
 
 
     Adding external electric field

     Computed dipole along edir(3) : 
        Dipole               -0.5475 Ry au,         -1.3917 Debye
        Dipole field         -0.0003 Ry au, 
 
        Potential amp.        0.0367 Ry
        Total length         54.2615 bohr
 

     total cpu time spent up to now is      234.0 secs

     total energy              =   -7398.06513898 Ry
     estimated scf accuracy    <       0.37636883 Ry

     total magnetization       =    79.24 Bohr mag/cell
     absolute magnetization    =    82.70 Bohr mag/cell

     iteration # 16     ecut=    50.00 Ry     beta= 0.10
     Davidson diagonalization with overlap
     ethr =  3.49E-05,  avg # of iterations =  3.0

     negative rho (up, down):  5.864E-08 4.712E-06
 
     Adding external electric field

     Computed dipole along edir(3) : 
        Dipole               -0.5065 Ry au,         -1.2875 Debye
        Dipole field         -0.0003 Ry au, 
 
        Potential amp.        0.0340 Ry
        Total length         54.2615 bohr
 
 
     Adding external electric field

     Computed dipole along edir(3) : 
        Dipole               -0.5065 Ry au,         -1.2875 Debye
        Dipole field         -0.0003 Ry au, 
 
        Potential amp.        0.0340 Ry
        Total length         54.2615 bohr
 

     total cpu time spent up to now is      247.3 secs

     total energy              =   -7398.07921887 Ry
     estimated scf accuracy    <       0.40819331 Ry

     total magnetization       =    78.32 Bohr mag/cell
     absolute magnetization    =    80.93 Bohr mag/cell

     iteration # 17     ecut=    50.00 Ry     beta= 0.10
     Davidson diagonalization with overlap
     ethr =  3.49E-05,  avg # of iterations =  2.0

     negative rho (up, down):  4.693E-06 4.451E-05
 
     Adding external electric field

     Computed dipole along edir(3) : 
        Dipole               -0.6296 Ry au,         -1.6003 Debye
        Dipole field         -0.0004 Ry au, 
 
        Potential amp.        0.0423 Ry
        Total length         54.2615 bohr
 
 
     Adding external electric field

     Computed dipole along edir(3) : 
        Dipole               -0.6296 Ry au,         -1.6003 Debye
        Dipole field         -0.0004 Ry au, 
 
        Potential amp.        0.0423 Ry
        Total length         54.2615 bohr
 

     total cpu time spent up to now is      261.1 secs

     total energy              =   -7398.07115029 Ry
     estimated scf accuracy    <       0.90703559 Ry

     total magnetization       =    77.80 Bohr mag/cell
     absolute magnetization    =    80.42 Bohr mag/cell

     iteration # 18     ecut=    50.00 Ry     beta= 0.10
     Davidson diagonalization with overlap
     ethr =  3.49E-05,  avg # of iterations =  2.0

     negative rho (up, down):  1.189E-06 1.307E-05
 
     Adding external electric field

     Computed dipole along edir(3) : 
        Dipole               -0.5876 Ry au,         -1.4936 Debye
        Dipole field         -0.0004 Ry au, 
 
        Potential amp.        0.0394 Ry
        Total length         54.2615 bohr
 
 
     Adding external electric field

     Computed dipole along edir(3) : 
        Dipole               -0.5876 Ry au,         -1.4936 Debye
        Dipole field         -0.0004 Ry au, 
 
        Potential amp.        0.0394 Ry
        Total length         54.2615 bohr
 

     total cpu time spent up to now is      275.0 secs

     total energy              =   -7398.07912533 Ry
     estimated scf accuracy    <       0.30072154 Ry

     total magnetization       =    77.56 Bohr mag/cell
     absolute magnetization    =    79.93 Bohr mag/cell

     iteration # 19     ecut=    50.00 Ry     beta= 0.10
     Davidson diagonalization with overlap
     ethr =  2.79E-05,  avg # of iterations =  1.5

     negative rho (up, down):  1.292E-05 1.675E-05
 
     Adding external electric field

     Computed dipole along edir(3) : 
        Dipole               -0.6406 Ry au,         -1.6281 Debye
        Dipole field         -0.0004 Ry au, 
 
        Potential amp.        0.0430 Ry
        Total length         54.2615 bohr
 
 
     Adding external electric field

     Computed dipole along edir(3) : 
        Dipole               -0.6406 Ry au,         -1.6281 Debye
        Dipole field         -0.0004 Ry au, 
 
        Potential amp.        0.0430 Ry
        Total length         54.2615 bohr
 

     total cpu time spent up to now is      286.0 secs

     total energy              =   -7398.08467818 Ry
     estimated scf accuracy    <       0.25382220 Ry

     total magnetization       =    78.01 Bohr mag/cell
     absolute magnetization    =    80.43 Bohr mag/cell

     iteration # 20     ecut=    50.00 Ry     beta= 0.10
     Davidson diagonalization with overlap
     ethr =  2.35E-05,  avg # of iterations =  2.0

     negative rho (up, down):  8.047E-06 3.046E-05
 
     Adding external electric field

     Computed dipole along edir(3) : 
        Dipole               -0.6235 Ry au,         -1.5847 Debye
        Dipole field         -0.0004 Ry au, 
 
        Potential amp.        0.0418 Ry
        Total length         54.2615 bohr
 
 
     Adding external electric field

     Computed dipole along edir(3) : 
        Dipole               -0.6235 Ry au,         -1.5847 Debye
        Dipole field         -0.0004 Ry au, 
 
        Potential amp.        0.0418 Ry
        Total length         54.2615 bohr
 

     total cpu time spent up to now is      298.2 secs

     total energy              =   -7398.08414396 Ry
     estimated scf accuracy    <       0.54934251 Ry

     total magnetization       =    77.19 Bohr mag/cell
     absolute magnetization    =    79.64 Bohr mag/cell

     iteration # 21     ecut=    50.00 Ry     beta= 0.10
     Davidson diagonalization with overlap
     ethr =  2.35E-05,  avg # of iterations =  2.0

     negative rho (up, down):  1.102E-04 1.287E-04
 
     Adding external electric field

     Computed dipole along edir(3) : 
        Dipole               -0.6819 Ry au,         -1.7333 Debye
        Dipole field         -0.0004 Ry au, 
 
        Potential amp.        0.0458 Ry
        Total length         54.2615 bohr
 
 
     Adding external electric field

     Computed dipole along edir(3) : 
        Dipole               -0.6819 Ry au,         -1.7333 Debye
        Dipole field         -0.0004 Ry au, 
 
        Potential amp.        0.0458 Ry
        Total length         54.2615 bohr
 

     total cpu time spent up to now is      310.7 secs

     total energy              =   -7398.09328328 Ry
     estimated scf accuracy    <       0.34440171 Ry

     total magnetization       =    77.60 Bohr mag/cell
     absolute magnetization    =    79.89 Bohr mag/cell

     iteration # 22     ecut=    50.00 Ry     beta= 0.10
     Davidson diagonalization with overlap
     ethr =  2.35E-05,  avg # of iterations =  2.0

     negative rho (up, down):  4.250E-05 7.180E-05
 
     Adding external electric field

     Computed dipole along edir(3) : 
        Dipole               -0.5983 Ry au,         -1.5208 Debye
        Dipole field         -0.0004 Ry au, 
 
        Potential amp.        0.0402 Ry
        Total length         54.2615 bohr
 
 
     Adding external electric field

     Computed dipole along edir(3) : 
        Dipole               -0.5983 Ry au,         -1.5208 Debye
        Dipole field         -0.0004 Ry au, 
 
        Potential amp.        0.0402 Ry
        Total length         54.2615 bohr
 

     total cpu time spent up to now is      323.0 secs

     total energy              =   -7398.07299162 Ry
     estimated scf accuracy    <       1.67189338 Ry

     total magnetization       =    76.43 Bohr mag/cell
     absolute magnetization    =    78.43 Bohr mag/cell

     iteration # 23     ecut=    50.00 Ry     beta= 0.10
     Davidson diagonalization with overlap
     ethr =  2.35E-05,  avg # of iterations =  2.0

     negative rho (up, down):  5.813E-05 4.965E-05
 
     Adding external electric field

     Computed dipole along edir(3) : 
        Dipole               -0.5593 Ry au,         -1.4217 Debye
        Dipole field         -0.0003 Ry au, 
 
        Potential amp.        0.0375 Ry
        Total length         54.2615 bohr
 
 
     Adding external electric field

     Computed dipole along edir(3) : 
        Dipole               -0.5593 Ry au,         -1.4217 Debye
        Dipole field         -0.0003 Ry au, 
 
        Potential amp.        0.0375 Ry
        Total length         54.2615 bohr
 

     total cpu time spent up to now is      335.4 secs

     total energy              =   -7398.08108576 Ry
     estimated scf accuracy    <       0.15860066 Ry

     total magnetization       =    78.11 Bohr mag/cell
     absolute magnetization    =    79.97 Bohr mag/cell

     iteration # 24     ecut=    50.00 Ry     beta= 0.10
     Davidson diagonalization with overlap
     c_bands:  3 eigenvalues not converged
     ethr =  1.47E-05,  avg # of iterations = 19.0

     negative rho (up, down):  9.745E-05 6.267E-05
 
     Adding external electric field

     Computed dipole along edir(3) : 
        Dipole               -0.4960 Ry au,         -1.2608 Debye
        Dipole field         -0.0003 Ry au, 
 
        Potential amp.        0.0333 Ry
        Total length         54.2615 bohr
 
 
     Adding external electric field

     Computed dipole along edir(3) : 
        Dipole               -0.4960 Ry au,         -1.2608 Debye
        Dipole field         -0.0003 Ry au, 
 
        Potential amp.        0.0333 Ry
        Total length         54.2615 bohr
 

     total cpu time spent up to now is      359.6 secs

     total energy              =   -7398.08122297 Ry
     estimated scf accuracy    <       0.05407844 Ry

     total magnetization       =    78.83 Bohr mag/cell
     absolute magnetization    =    80.56 Bohr mag/cell

     iteration # 25     ecut=    50.00 Ry     beta= 0.10
     Davidson diagonalization with overlap
     c_bands:  4 eigenvalues not converged
     ethr =  5.02E-06,  avg # of iterations = 11.0

     negative rho (up, down):  9.496E-05 6.118E-05
 
     Adding external electric field

     Computed dipole along edir(3) : 
        Dipole               -0.4428 Ry au,         -1.1254 Debye
        Dipole field         -0.0003 Ry au, 
 
        Potential amp.        0.0297 Ry
        Total length         54.2615 bohr
 
 
     Adding external electric field

     Computed dipole along edir(3) : 
        Dipole               -0.4428 Ry au,         -1.1254 Debye
        Dipole field         -0.0003 Ry au, 
 
        Potential amp.        0.0297 Ry
        Total length         54.2615 bohr
 

     total cpu time spent up to now is      379.7 secs

     total energy              =   -7398.08170890 Ry
     estimated scf accuracy    <       0.04996651 Ry

     total magnetization       =    79.03 Bohr mag/cell
     absolute magnetization    =    80.62 Bohr mag/cell

     iteration # 26     ecut=    50.00 Ry     beta= 0.10
     Davidson diagonalization with overlap
     ethr =  4.64E-06,  avg # of iterations =  1.5

     negative rho (up, down):  9.390E-05 5.942E-05
 
     Adding external electric field

     Computed dipole along edir(3) : 
        Dipole               -0.4438 Ry au,         -1.1281 Debye
        Dipole field         -0.0003 Ry au, 
 
        Potential amp.        0.0298 Ry
        Total length         54.2615 bohr
 
 
     Adding external electric field

     Computed dipole along edir(3) : 
        Dipole               -0.4438 Ry au,         -1.1281 Debye
        Dipole field         -0.0003 Ry au, 
 
        Potential amp.        0.0298 Ry
        Total length         54.2615 bohr
 

     total cpu time spent up to now is      391.3 secs

     total energy              =   -7398.08193620 Ry
     estimated scf accuracy    <       0.06205610 Ry

     total magnetization       =    79.00 Bohr mag/cell
     absolute magnetization    =    80.58 Bohr mag/cell

     iteration # 27     ecut=    50.00 Ry     beta= 0.10
     Davidson diagonalization with overlap
     ethr =  4.64E-06,  avg # of iterations =  1.0

     negative rho (up, down):  1.154E-04 5.142E-05
 
     Adding external electric field

     Computed dipole along edir(3) : 
        Dipole               -0.4419 Ry au,         -1.1232 Debye
        Dipole field         -0.0003 Ry au, 
 
        Potential amp.        0.0297 Ry
        Total length         54.2615 bohr
 
 
     Adding external electric field

     Computed dipole along edir(3) : 
        Dipole               -0.4419 Ry au,         -1.1232 Debye
        Dipole field         -0.0003 Ry au, 
 
        Potential amp.        0.0297 Ry
        Total length         54.2615 bohr
 

     total cpu time spent up to now is      402.0 secs

     total energy              =   -7398.08129944 Ry
     estimated scf accuracy    <       0.05972694 Ry

     total magnetization       =    78.98 Bohr mag/cell
     absolute magnetization    =    80.56 Bohr mag/cell

     iteration # 28     ecut=    50.00 Ry     beta= 0.10
     Davidson diagonalization with overlap
     ethr =  4.64E-06,  avg # of iterations =  1.0

     negative rho (up, down):  1.121E-04 4.757E-05
 
     Adding external electric field

     Computed dipole along edir(3) : 
        Dipole               -0.4405 Ry au,         -1.1196 Debye
        Dipole field         -0.0003 Ry au, 
 
        Potential amp.        0.0296 Ry
        Total length         54.2615 bohr
 
 
     Adding external electric field

     Computed dipole along edir(3) : 
        Dipole               -0.4405 Ry au,         -1.1196 Debye
        Dipole field         -0.0003 Ry au, 
 
        Potential amp.        0.0296 Ry
        Total length         54.2615 bohr
 

     total cpu time spent up to now is      412.9 secs

     total energy              =   -7398.08112312 Ry
     estimated scf accuracy    <       0.05410547 Ry

     total magnetization       =    78.97 Bohr mag/cell
     absolute magnetization    =    80.54 Bohr mag/cell

     iteration # 29     ecut=    50.00 Ry     beta= 0.10
     Davidson diagonalization with overlap
     ethr =  4.64E-06,  avg # of iterations =  1.0

     negative rho (up, down):  1.022E-04 4.936E-05
 
     Adding external electric field

     Computed dipole along edir(3) : 
        Dipole               -0.4384 Ry au,         -1.1142 Debye
        Dipole field         -0.0003 Ry au, 
 
        Potential amp.        0.0294 Ry
        Total length         54.2615 bohr
 
 
     Adding external electric field

     Computed dipole along edir(3) : 
        Dipole               -0.4384 Ry au,         -1.1142 Debye
        Dipole field         -0.0003 Ry au, 
 
        Potential amp.        0.0294 Ry
        Total length         54.2615 bohr
 

     total cpu time spent up to now is      423.9 secs

     total energy              =   -7398.08080665 Ry
     estimated scf accuracy    <       0.04885341 Ry

     total magnetization       =    78.92 Bohr mag/cell
     absolute magnetization    =    80.50 Bohr mag/cell

     iteration # 30     ecut=    50.00 Ry     beta= 0.10
     Davidson diagonalization with overlap
     ethr =  4.53E-06,  avg # of iterations =  1.0

     negative rho (up, down):  1.233E-04 6.454E-05
 
     Adding external electric field

     Computed dipole along edir(3) : 
        Dipole               -0.4215 Ry au,         -1.0712 Debye
        Dipole field         -0.0003 Ry au, 
 
        Potential amp.        0.0283 Ry
        Total length         54.2615 bohr
 
 
     Adding external electric field

     Computed dipole along edir(3) : 
        Dipole               -0.4215 Ry au,         -1.0712 Debye
        Dipole field         -0.0003 Ry au, 
 
        Potential amp.        0.0283 Ry
        Total length         54.2615 bohr
 

     total cpu time spent up to now is      435.1 secs

     total energy              =   -7398.08093441 Ry
     estimated scf accuracy    <       0.03361070 Ry

     total magnetization       =    78.74 Bohr mag/cell
     absolute magnetization    =    80.32 Bohr mag/cell

     iteration # 31     ecut=    50.00 Ry     beta= 0.10
     Davidson diagonalization with overlap
     ethr =  3.12E-06,  avg # of iterations =  1.0

     negative rho (up, down):  5.066E-04 4.849E-04
 
     Adding external electric field

     Computed dipole along edir(3) : 
        Dipole               -0.3655 Ry au,         -0.9291 Debye
        Dipole field         -0.0002 Ry au, 
 
        Potential amp.        0.0245 Ry
        Total length         54.2615 bohr
 
 
     Adding external electric field

     Computed dipole along edir(3) : 
        Dipole               -0.3655 Ry au,         -0.9291 Debye
        Dipole field         -0.0002 Ry au, 
 
        Potential amp.        0.0245 Ry
        Total length         54.2615 bohr
 

     total cpu time spent up to now is      446.0 secs

     total energy              =   -7398.08193064 Ry
     estimated scf accuracy    <       0.03630620 Ry

     total magnetization       =    78.59 Bohr mag/cell
     absolute magnetization    =    80.17 Bohr mag/cell

     iteration # 32     ecut=    50.00 Ry     beta= 0.10
     Davidson diagonalization with overlap
     ethr =  3.12E-06,  avg # of iterations =  2.0

     negative rho (up, down):  1.984E-04 1.611E-04
 
     Adding external electric field

     Computed dipole along edir(3) : 
        Dipole               -0.4200 Ry au,         -1.0677 Debye
        Dipole field         -0.0003 Ry au, 
 
        Potential amp.        0.0282 Ry
        Total length         54.2615 bohr
 
 
     Adding external electric field

     Computed dipole along edir(3) : 
        Dipole               -0.4200 Ry au,         -1.0677 Debye
        Dipole field         -0.0003 Ry au, 
 
        Potential amp.        0.0282 Ry
        Total length         54.2615 bohr
 

     total cpu time spent up to now is      458.1 secs

     total energy              =   -7398.07175815 Ry
     estimated scf accuracy    <       0.27207846 Ry

     total magnetization       =    77.68 Bohr mag/cell
     absolute magnetization    =    79.26 Bohr mag/cell

     iteration # 33     ecut=    50.00 Ry     beta= 0.10
     Davidson diagonalization with overlap
     ethr =  3.12E-06,  avg # of iterations =  2.5

     negative rho (up, down):  1.071E-04 7.355E-05
 
     Adding external electric field

     Computed dipole along edir(3) : 
        Dipole               -0.4528 Ry au,         -1.1508 Debye
        Dipole field         -0.0003 Ry au, 
 
        Potential amp.        0.0304 Ry
        Total length         54.2615 bohr
 
 
     Adding external electric field

     Computed dipole along edir(3) : 
        Dipole               -0.4528 Ry au,         -1.1508 Debye
        Dipole field         -0.0003 Ry au, 
 
        Potential amp.        0.0304 Ry
        Total length         54.2615 bohr
 

     total cpu time spent up to now is      470.5 secs

     total energy              =   -7398.08207188 Ry
     estimated scf accuracy    <       0.04521629 Ry

     total magnetization       =    78.87 Bohr mag/cell
     absolute magnetization    =    80.43 Bohr mag/cell

     iteration # 34     ecut=    50.00 Ry     beta= 0.10
     Davidson diagonalization with overlap
     ethr =  3.12E-06,  avg # of iterations =  1.0

     negative rho (up, down):  1.794E-04 1.141E-04
 
     Adding external electric field

     Computed dipole along edir(3) : 
        Dipole               -0.4351 Ry au,         -1.1060 Debye
        Dipole field         -0.0003 Ry au, 
 
        Potential amp.        0.0292 Ry
        Total length         54.2615 bohr
 
 
     Adding external electric field

     Computed dipole along edir(3) : 
        Dipole               -0.4351 Ry au,         -1.1060 Debye
        Dipole field         -0.0003 Ry au, 
 
        Potential amp.        0.0292 Ry
        Total length         54.2615 bohr
 

     total cpu time spent up to now is      481.5 secs

     total energy              =   -7398.07984604 Ry
     estimated scf accuracy    <       0.04770232 Ry

     total magnetization       =    78.86 Bohr mag/cell
     absolute magnetization    =    80.49 Bohr mag/cell

     iteration # 35     ecut=    50.00 Ry     beta= 0.10
     Davidson diagonalization with overlap
     ethr =  3.12E-06,  avg # of iterations =  1.5

     negative rho (up, down):  1.713E-04 1.133E-04
 
     Adding external electric field

     Computed dipole along edir(3) : 
        Dipole               -0.4298 Ry au,         -1.0926 Debye
        Dipole field         -0.0003 Ry au, 
 
        Potential amp.        0.0288 Ry
        Total length         54.2615 bohr
 
 
     Adding external electric field

     Computed dipole along edir(3) : 
        Dipole               -0.4298 Ry au,         -1.0926 Debye
        Dipole field         -0.0003 Ry au, 
 
        Potential amp.        0.0288 Ry
        Total length         54.2615 bohr
 

     total cpu time spent up to now is      493.2 secs

     total energy              =   -7398.08075540 Ry
     estimated scf accuracy    <       0.02505028 Ry

     total magnetization       =    78.70 Bohr mag/cell
     absolute magnetization    =    80.22 Bohr mag/cell

     iteration # 36     ecut=    50.00 Ry     beta= 0.10
     Davidson diagonalization with overlap
     ethr =  2.32E-06,  avg # of iterations =  1.0

     negative rho (up, down):  1.303E-04 1.346E-04
 
     Adding external electric field

     Computed dipole along edir(3) : 
        Dipole               -0.4281 Ry au,         -1.0881 Debye
        Dipole field         -0.0003 Ry au, 
 
        Potential amp.        0.0287 Ry
        Total length         54.2615 bohr
 
 
     Adding external electric field

     Computed dipole along edir(3) : 
        Dipole               -0.4281 Ry au,         -1.0881 Debye
        Dipole field         -0.0003 Ry au, 
 
        Potential amp.        0.0287 Ry
        Total length         54.2615 bohr
 

     total cpu time spent up to now is      503.4 secs

     total energy              =   -7398.08098072 Ry
     estimated scf accuracy    <       0.02506147 Ry

     total magnetization       =    78.70 Bohr mag/cell
     absolute magnetization    =    80.23 Bohr mag/cell

     iteration # 37     ecut=    50.00 Ry     beta= 0.10
     Davidson diagonalization with overlap
     ethr =  2.32E-06,  avg # of iterations =  1.0

     negative rho (up, down):  1.649E-04 1.220E-04
 
     Adding external electric field

     Computed dipole along edir(3) : 
        Dipole               -0.4296 Ry au,         -1.0919 Debye
        Dipole field         -0.0003 Ry au, 
 
        Potential amp.        0.0288 Ry
        Total length         54.2615 bohr
 
 
     Adding external electric field

     Computed dipole along edir(3) : 
        Dipole               -0.4296 Ry au,         -1.0919 Debye
        Dipole field         -0.0003 Ry au, 
 
        Potential amp.        0.0288 Ry
        Total length         54.2615 bohr
 

     total cpu time spent up to now is      514.1 secs

     total energy              =   -7398.08083322 Ry
     estimated scf accuracy    <       0.02620083 Ry

     total magnetization       =    78.69 Bohr mag/cell
     absolute magnetization    =    80.22 Bohr mag/cell

     iteration # 38     ecut=    50.00 Ry     beta= 0.10
     Davidson diagonalization with overlap
     ethr =  2.32E-06,  avg # of iterations =  1.0

     negative rho (up, down):  2.043E-04 1.553E-04
 
     Adding external electric field

     Computed dipole along edir(3) : 
        Dipole               -0.4126 Ry au,         -1.0488 Debye
        Dipole field         -0.0003 Ry au, 
 
        Potential amp.        0.0277 Ry
        Total length         54.2615 bohr
 
 
     Adding external electric field

     Computed dipole along edir(3) : 
        Dipole               -0.4126 Ry au,         -1.0488 Debye
        Dipole field         -0.0003 Ry au, 
 
        Potential amp.        0.0277 Ry
        Total length         54.2615 bohr
 

     total cpu time spent up to now is      525.0 secs

     total energy              =   -7398.08058354 Ry
     estimated scf accuracy    <       0.02704945 Ry

     total magnetization       =    78.74 Bohr mag/cell
     absolute magnetization    =    80.26 Bohr mag/cell

     iteration # 39     ecut=    50.00 Ry     beta= 0.10
     Davidson diagonalization with overlap
     ethr =  2.32E-06,  avg # of iterations =  1.0

     negative rho (up, down):  3.035E-04 2.291E-04
 
     Adding external electric field

     Computed dipole along edir(3) : 
        Dipole               -0.4128 Ry au,         -1.0491 Debye
        Dipole field         -0.0003 Ry au, 
 
        Potential amp.        0.0277 Ry
        Total length         54.2615 bohr
 
 
     Adding external electric field

     Computed dipole along edir(3) : 
        Dipole               -0.4128 Ry au,         -1.0491 Debye
        Dipole field         -0.0003 Ry au, 
 
        Potential amp.        0.0277 Ry
        Total length         54.2615 bohr
 

     total cpu time spent up to now is      536.1 secs

     total energy              =   -7398.08046941 Ry
     estimated scf accuracy    <       0.03103833 Ry

     total magnetization       =    78.77 Bohr mag/cell
     absolute magnetization    =    80.27 Bohr mag/cell

     iteration # 40     ecut=    50.00 Ry     beta= 0.10
     Davidson diagonalization with overlap
     ethr =  2.32E-06,  avg # of iterations =  1.0

     negative rho (up, down):  1.856E-04 1.260E-04
 
     Adding external electric field

     Computed dipole along edir(3) : 
        Dipole               -0.4359 Ry au,         -1.1080 Debye
        Dipole field         -0.0003 Ry au, 
 
        Potential amp.        0.0293 Ry
        Total length         54.2615 bohr
 
 
     Adding external electric field

     Computed dipole along edir(3) : 
        Dipole               -0.4359 Ry au,         -1.1080 Debye
        Dipole field         -0.0003 Ry au, 
 
        Potential amp.        0.0293 Ry
        Total length         54.2615 bohr
 

     total cpu time spent up to now is      546.9 secs

     total energy              =   -7398.08075652 Ry
     estimated scf accuracy    <       0.02438703 Ry

     total magnetization       =    78.68 Bohr mag/cell
     absolute magnetization    =    80.19 Bohr mag/cell

     iteration # 41     ecut=    50.00 Ry     beta= 0.10
     Davidson diagonalization with overlap
     ethr =  2.26E-06,  avg # of iterations =  1.0

     negative rho (up, down):  2.311E-04 1.882E-04
 
     Adding external electric field

     Computed dipole along edir(3) : 
        Dipole               -0.3901 Ry au,         -0.9916 Debye
        Dipole field         -0.0002 Ry au, 
 
        Potential amp.        0.0262 Ry
        Total length         54.2615 bohr
 
 
     Adding external electric field

     Computed dipole along edir(3) : 
        Dipole               -0.3901 Ry au,         -0.9916 Debye
        Dipole field         -0.0002 Ry au, 
 
        Potential amp.        0.0262 Ry
        Total length         54.2615 bohr
 

     total cpu time spent up to now is      557.4 secs

     total energy              =   -7398.08157599 Ry
     estimated scf accuracy    <       0.04530221 Ry

     total magnetization       =    78.41 Bohr mag/cell
     absolute magnetization    =    79.93 Bohr mag/cell

     iteration # 42     ecut=    50.00 Ry     beta= 0.10
     Davidson diagonalization with overlap
     ethr =  2.26E-06,  avg # of iterations =  1.0

     negative rho (up, down):  3.967E-04 3.561E-04
 
     Adding external electric field

     Computed dipole along edir(3) : 
        Dipole               -0.3775 Ry au,         -0.9595 Debye
        Dipole field         -0.0002 Ry au, 
 
        Potential amp.        0.0253 Ry
        Total length         54.2615 bohr
 
 
     Adding external electric field

     Computed dipole along edir(3) : 
        Dipole               -0.3775 Ry au,         -0.9595 Debye
        Dipole field         -0.0002 Ry au, 
 
        Potential amp.        0.0253 Ry
        Total length         54.2615 bohr
 

     total cpu time spent up to now is      567.9 secs

     total energy              =   -7398.08067366 Ry
     estimated scf accuracy    <       0.05760614 Ry

     total magnetization       =    78.33 Bohr mag/cell
     absolute magnetization    =    79.88 Bohr mag/cell

     iteration # 43     ecut=    50.00 Ry     beta= 0.10
     Davidson diagonalization with overlap
     ethr =  2.26E-06,  avg # of iterations =  1.0

     negative rho (up, down):  3.885E-04 3.681E-04
 
     Adding external electric field

     Computed dipole along edir(3) : 
        Dipole               -0.3493 Ry au,         -0.8879 Debye
        Dipole field         -0.0002 Ry au, 
 
        Potential amp.        0.0234 Ry
        Total length         54.2615 bohr
 
 
     Adding external electric field

     Computed dipole along edir(3) : 
        Dipole               -0.3493 Ry au,         -0.8879 Debye
        Dipole field         -0.0002 Ry au, 
 
        Potential amp.        0.0234 Ry
        Total length         54.2615 bohr
 

     total cpu time spent up to now is      578.9 secs

     total energy              =   -7398.08051700 Ry
     estimated scf accuracy    <       0.03427101 Ry

     total magnetization       =    78.47 Bohr mag/cell
     absolute magnetization    =    79.99 Bohr mag/cell

     iteration # 44     ecut=    50.00 Ry     beta= 0.10
     Davidson diagonalization with overlap
     ethr =  2.26E-06,  avg # of iterations =  1.0

     negative rho (up, down):  4.371E-04 4.212E-04
 
     Adding external electric field

     Computed dipole along edir(3) : 
        Dipole               -0.3831 Ry au,         -0.9736 Debye
        Dipole field         -0.0002 Ry au, 
 
        Potential amp.        0.0257 Ry
        Total length         54.2615 bohr
 
 
     Adding external electric field

     Computed dipole along edir(3) : 
        Dipole               -0.3831 Ry au,         -0.9736 Debye
        Dipole field         -0.0002 Ry au, 
 
        Potential amp.        0.0257 Ry
        Total length         54.2615 bohr
 

     total cpu time spent up to now is      589.9 secs

     total energy              =   -7398.08090108 Ry
     estimated scf accuracy    <       0.02660211 Ry

     total magnetization       =    78.63 Bohr mag/cell
     absolute magnetization    =    80.19 Bohr mag/cell

     iteration # 45     ecut=    50.00 Ry     beta= 0.10
     Davidson diagonalization with overlap
     ethr =  2.26E-06,  avg # of iterations =  1.0

     negative rho (up, down):  4.554E-04 3.855E-04
 
     Adding external electric field

     Computed dipole along edir(3) : 
        Dipole               -0.3832 Ry au,         -0.9739 Debye
        Dipole field         -0.0002 Ry au, 
 
        Potential amp.        0.0257 Ry
        Total length         54.2615 bohr
 
 
     Adding external electric field

     Computed dipole along edir(3) : 
        Dipole               -0.3832 Ry au,         -0.9739 Debye
        Dipole field         -0.0002 Ry au, 
 
        Potential amp.        0.0257 Ry
        Total length         54.2615 bohr
 

     total cpu time spent up to now is      600.8 secs

     total energy              =   -7398.07974836 Ry
     estimated scf accuracy    <       0.02442769 Ry

     total magnetization       =    78.65 Bohr mag/cell
     absolute magnetization    =    80.21 Bohr mag/cell

     iteration # 46     ecut=    50.00 Ry     beta= 0.10
     Davidson diagonalization with overlap
     ethr =  2.26E-06,  avg # of iterations =  1.5

     negative rho (up, down):  5.348E-04 3.841E-04
 
     Adding external electric field

     Computed dipole along edir(3) : 
        Dipole               -0.3831 Ry au,         -0.9738 Debye
        Dipole field         -0.0002 Ry au, 
 
        Potential amp.        0.0257 Ry
        Total length         54.2615 bohr
 
 
     Adding external electric field

     Computed dipole along edir(3) : 
        Dipole               -0.3831 Ry au,         -0.9738 Debye
        Dipole field         -0.0002 Ry au, 
 
        Potential amp.        0.0257 Ry
        Total length         54.2615 bohr
 

     total cpu time spent up to now is      612.3 secs

     total energy              =   -7398.07969429 Ry
     estimated scf accuracy    <       0.02270708 Ry

     total magnetization       =    78.64 Bohr mag/cell
     absolute magnetization    =    80.11 Bohr mag/cell

     iteration # 47     ecut=    50.00 Ry     beta= 0.10
     Davidson diagonalization with overlap
     ethr =  2.11E-06,  avg # of iterations =  1.0

     negative rho (up, down):  1.288E-03 1.029E-03
 
     Adding external electric field

     Computed dipole along edir(3) : 
        Dipole               -0.3315 Ry au,         -0.8427 Debye
        Dipole field         -0.0002 Ry au, 
 
        Potential amp.        0.0223 Ry
        Total length         54.2615 bohr
 
 
     Adding external electric field

     Computed dipole along edir(3) : 
        Dipole               -0.3315 Ry au,         -0.8427 Debye
        Dipole field         -0.0002 Ry au, 
 
        Potential amp.        0.0223 Ry
        Total length         54.2615 bohr
 

     total cpu time spent up to now is      623.1 secs

     total energy              =   -7398.07898958 Ry
     estimated scf accuracy    <       0.02270600 Ry

     total magnetization       =    78.64 Bohr mag/cell
     absolute magnetization    =    80.11 Bohr mag/cell

     iteration # 48     ecut=    50.00 Ry     beta= 0.10
     Davidson diagonalization with overlap
     ethr =  2.11E-06,  avg # of iterations =  2.0

     negative rho (up, down):  2.541E-04 1.998E-04
 
     Adding external electric field

     Computed dipole along edir(3) : 
        Dipole               -0.4088 Ry au,         -1.0390 Debye
        Dipole field         -0.0003 Ry au, 
 
        Potential amp.        0.0274 Ry
        Total length         54.2615 bohr
 
 
     Adding external electric field

     Computed dipole along edir(3) : 
        Dipole               -0.4088 Ry au,         -1.0390 Debye
        Dipole field         -0.0003 Ry au, 
 
        Potential amp.        0.0274 Ry
        Total length         54.2615 bohr
 

     total cpu time spent up to now is      635.3 secs

     total energy              =   -7398.08008398 Ry
     estimated scf accuracy    <       0.02558323 Ry

     total magnetization       =    78.72 Bohr mag/cell
     absolute magnetization    =    80.16 Bohr mag/cell

     iteration # 49     ecut=    50.00 Ry     beta= 0.10
     Davidson diagonalization with overlap
     ethr =  2.11E-06,  avg # of iterations =  2.0

     negative rho (up, down):  3.141E-04 2.584E-04
 
     Adding external electric field

     Computed dipole along edir(3) : 
        Dipole               -0.4067 Ry au,         -1.0338 Debye
        Dipole field         -0.0003 Ry au, 
 
        Potential amp.        0.0273 Ry
        Total length         54.2615 bohr
 
 
     Adding external electric field

     Computed dipole along edir(3) : 
        Dipole               -0.4067 Ry au,         -1.0338 Debye
        Dipole field         -0.0003 Ry au, 
 
        Potential amp.        0.0273 Ry
        Total length         54.2615 bohr
 

     total cpu time spent up to now is      647.5 secs

     total energy              =   -7398.08016926 Ry
     estimated scf accuracy    <       0.02443321 Ry

     total magnetization       =    78.72 Bohr mag/cell
     absolute magnetization    =    80.19 Bohr mag/cell

     iteration # 50     ecut=    50.00 Ry     beta= 0.10
     Davidson diagonalization with overlap
     ethr =  2.11E-06,  avg # of iterations =  1.0

     negative rho (up, down):  2.671E-04 1.752E-04
 
     Adding external electric field

     Computed dipole along edir(3) : 
        Dipole               -0.4445 Ry au,         -1.1299 Debye
        Dipole field         -0.0003 Ry au, 
 
        Potential amp.        0.0298 Ry
        Total length         54.2615 bohr
 
 
     Adding external electric field

     Computed dipole along edir(3) : 
        Dipole               -0.4445 Ry au,         -1.1299 Debye
        Dipole field         -0.0003 Ry au, 
 
        Potential amp.        0.0298 Ry
        Total length         54.2615 bohr
 

     total cpu time spent up to now is      658.1 secs

     total energy              =   -7398.07939051 Ry
     estimated scf accuracy    <       0.02428400 Ry

     total magnetization       =    78.72 Bohr mag/cell
     absolute magnetization    =    80.18 Bohr mag/cell

     iteration # 51     ecut=    50.00 Ry     beta= 0.10
     Davidson diagonalization with overlap
     ethr =  2.11E-06,  avg # of iterations =  1.0

     negative rho (up, down):  1.860E-04 1.228E-04
 
     Adding external electric field

     Computed dipole along edir(3) : 
        Dipole               -0.4216 Ry au,         -1.0716 Debye
        Dipole field         -0.0003 Ry au, 
 
        Potential amp.        0.0283 Ry
        Total length         54.2615 bohr
 
 
     Adding external electric field

     Computed dipole along edir(3) : 
        Dipole               -0.4216 Ry au,         -1.0716 Debye
        Dipole field         -0.0003 Ry au, 
 
        Potential amp.        0.0283 Ry
        Total length         54.2615 bohr
 

     total cpu time spent up to now is      668.8 secs

     total energy              =   -7398.08049129 Ry
     estimated scf accuracy    <       0.02613505 Ry

     total magnetization       =    78.63 Bohr mag/cell
     absolute magnetization    =    80.05 Bohr mag/cell

     iteration # 52     ecut=    50.00 Ry     beta= 0.10
     Davidson diagonalization with overlap
     ethr =  2.11E-06,  avg # of iterations =  1.0

     negative rho (up, down):  2.474E-04 2.053E-04
 
     Adding external electric field

     Computed dipole along edir(3) : 
        Dipole               -0.3732 Ry au,         -0.9486 Debye
        Dipole field         -0.0002 Ry au, 
 
        Potential amp.        0.0250 Ry
        Total length         54.2615 bohr
 
 
     Adding external electric field

     Computed dipole along edir(3) : 
        Dipole               -0.3732 Ry au,         -0.9486 Debye
        Dipole field         -0.0002 Ry au, 
 
        Potential amp.        0.0250 Ry
        Total length         54.2615 bohr
 

     total cpu time spent up to now is      679.5 secs

     total energy              =   -7398.08033801 Ry
     estimated scf accuracy    <       0.02468054 Ry

     total magnetization       =    78.75 Bohr mag/cell
     absolute magnetization    =    80.26 Bohr mag/cell

     iteration # 53     ecut=    50.00 Ry     beta= 0.10
     Davidson diagonalization with overlap
     ethr =  2.11E-06,  avg # of iterations =  1.0

     negative rho (up, down):  3.003E-04 2.906E-04
 
     Adding external electric field

     Computed dipole along edir(3) : 
        Dipole               -0.3215 Ry au,         -0.8172 Debye
        Dipole field         -0.0002 Ry au, 
 
        Potential amp.        0.0216 Ry
        Total length         54.2615 bohr
 
 
     Adding external electric field

     Computed dipole along edir(3) : 
        Dipole               -0.3215 Ry au,         -0.8172 Debye
        Dipole field         -0.0002 Ry au, 
 
        Potential amp.        0.0216 Ry
        Total length         54.2615 bohr
 

     total cpu time spent up to now is      690.2 secs

     total energy              =   -7398.08050289 Ry
     estimated scf accuracy    <       0.02542501 Ry

     total magnetization       =    78.75 Bohr mag/cell
     absolute magnetization    =    80.25 Bohr mag/cell

     iteration # 54     ecut=    50.00 Ry     beta= 0.10
     Davidson diagonalization with overlap
     ethr =  2.11E-06,  avg # of iterations =  1.0

     negative rho (up, down):  2.981E-04 2.510E-04
 
     Adding external electric field

     Computed dipole along edir(3) : 
        Dipole               -0.3985 Ry au,         -1.0130 Debye
        Dipole field         -0.0002 Ry au, 
 
        Potential amp.        0.0267 Ry
        Total length         54.2615 bohr
 
 
     Adding external electric field

     Computed dipole along edir(3) : 
        Dipole               -0.3985 Ry au,         -1.0130 Debye
        Dipole field         -0.0002 Ry au, 
 
        Potential amp.        0.0267 Ry
        Total length         54.2615 bohr
 

     total cpu time spent up to now is      701.1 secs

     total energy              =   -7398.08012415 Ry
     estimated scf accuracy    <       0.02890902 Ry

     total magnetization       =    78.70 Bohr mag/cell
     absolute magnetization    =    80.23 Bohr mag/cell

     iteration # 55     ecut=    50.00 Ry     beta= 0.10
     Davidson diagonalization with overlap
     ethr =  2.11E-06,  avg # of iterations =  1.5

     negative rho (up, down):  3.618E-04 2.585E-04
 
     Adding external electric field

     Computed dipole along edir(3) : 
        Dipole               -0.3280 Ry au,         -0.8336 Debye
        Dipole field         -0.0002 Ry au, 
 
        Potential amp.        0.0220 Ry
        Total length         54.2615 bohr
 
 
     Adding external electric field

     Computed dipole along edir(3) : 
        Dipole               -0.3280 Ry au,         -0.8336 Debye
        Dipole field         -0.0002 Ry au, 
 
        Potential amp.        0.0220 Ry
        Total length         54.2615 bohr
 

     total cpu time spent up to now is      713.3 secs

     total energy              =   -7398.08024185 Ry
     estimated scf accuracy    <       0.02591630 Ry

     total magnetization       =    78.76 Bohr mag/cell
     absolute magnetization    =    80.24 Bohr mag/cell

     iteration # 56     ecut=    50.00 Ry     beta= 0.10
     Davidson diagonalization with overlap
     ethr =  2.11E-06,  avg # of iterations =  1.5

     negative rho (up, down):  1.453E-04 9.357E-05
 
     Adding external electric field

     Computed dipole along edir(3) : 
        Dipole               -0.4713 Ry au,         -1.1980 Debye
        Dipole field         -0.0003 Ry au, 
 
        Potential amp.        0.0316 Ry
        Total length         54.2615 bohr
 
 
     Adding external electric field

     Computed dipole along edir(3) : 
        Dipole               -0.4713 Ry au,         -1.1980 Debye
        Dipole field         -0.0003 Ry au, 
 
        Potential amp.        0.0316 Ry
        Total length         54.2615 bohr
 

     total cpu time spent up to now is      725.9 secs

     total energy              =   -7398.08090167 Ry
     estimated scf accuracy    <       0.02594725 Ry

     total magnetization       =    78.74 Bohr mag/cell
     absolute magnetization    =    80.27 Bohr mag/cell

     iteration # 57     ecut=    50.00 Ry     beta= 0.10
     Davidson diagonalization with overlap
     ethr =  2.11E-06,  avg # of iterations =  2.0

     negative rho (up, down):  1.617E-03 1.408E-03
 
     Adding external electric field

     Computed dipole along edir(3) : 
        Dipole               -0.2291 Ry au,         -0.5823 Debye
        Dipole field         -0.0001 Ry au, 
 
        Potential amp.        0.0154 Ry
        Total length         54.2615 bohr
 
 
     Adding external electric field

     Computed dipole along edir(3) : 
        Dipole               -0.2291 Ry au,         -0.5823 Debye
        Dipole field         -0.0001 Ry au, 
 
        Potential amp.        0.0154 Ry
        Total length         54.2615 bohr
 

     total cpu time spent up to now is      739.1 secs

     total energy              =   -7398.07932907 Ry
     estimated scf accuracy    <       0.03119742 Ry

     total magnetization       =    78.76 Bohr mag/cell
     absolute magnetization    =    80.28 Bohr mag/cell

     iteration # 58     ecut=    50.00 Ry     beta= 0.10
     Davidson diagonalization with overlap
     ethr =  2.11E-06,  avg # of iterations =  4.5

     negative rho (up, down):  1.519E-03 1.301E-03
 
     Adding external electric field

     Computed dipole along edir(3) : 
        Dipole               -0.2335 Ry au,         -0.5934 Debye
        Dipole field         -0.0001 Ry au, 
 
        Potential amp.        0.0157 Ry
        Total length         54.2615 bohr
 
 
[...]
    -6.0033  -5.9844  -5.9715  -5.9582  -5.9485  -5.9009  -5.8601  -5.8527
    -5.8286  -5.8214  -5.8009  -5.7807  -5.7704  -5.7381  -5.7144  -5.6973
    -5.6952  -5.6749  -5.6586  -5.6544  -5.6294  -5.6116  -5.5743  -5.5364
    -5.5092  -5.4742  -5.4454  -5.4252  -5.4161  -5.3928  -5.3622  -5.2961
    -5.2763  -5.2566  -5.2444  -5.2338  -5.1499  -5.1226  -5.1079  -5.0754
    -5.0452  -5.0053  -4.9840  -4.9700  -4.9358  -4.9237  -4.8948  -4.8716
    -4.8193  -4.7979  -4.7454  -4.7385  -4.7079  -4.6997  -4.6668  -4.5928
    -4.5408  -4.5281  -4.5218  -4.4937  -4.4876  -4.4621  -4.4079  -4.3872
    -4.3767  -4.3156  -4.2602  -4.2280  -4.1951  -4.1810  -4.1517  -4.1405
    -4.0895  -4.0606  -4.0347  -4.0205  -3.9927  -3.9617  -3.9443  -3.9268
    -3.9231  -3.8829  -3.8459  -3.8279  -3.8174  -3.7692  -3.7469  -3.7427
    -3.7261  -3.6988  -3.6816  -3.6760  -3.6671  -3.6407  -3.6394  -3.6187
    -3.5691  -3.5477  -3.5416  -3.5178  -3.5115  -3.5067  -3.4736  -3.4677
    -3.4563  -3.4161  -3.3958  -3.3793  -3.3551  -3.3469  -3.3026  -3.2847
    -3.2778  -3.2467  -3.2219  -3.2074  -3.1981  -3.1811  -3.1690  -3.1599
    -3.1249  -3.1147  -3.0799  -3.0501  -3.0438  -3.0226  -3.0155  -2.9673
    -2.9587  -2.9348  -2.9295  -2.9019  -2.8735  -2.8565  -2.8381  -2.8146
    -2.8021  -2.7890  -2.7875  -2.7787  -2.7728  -2.7617  -2.7525  -2.7385
    -2.7157  -2.7000  -2.6783  -2.6715  -2.6469  -2.6405  -2.6160  -2.6012
    -2.5818  -2.5732  -2.5414  -2.5223  -2.5066  -2.5058  -2.4837  -2.4678
    -2.4338  -2.4334  -2.4109  -2.4085  -2.3650  -2.3562  -2.3221  -2.3206
    -2.2953  -2.2657  -2.2536  -2.2346  -2.2116  -2.2059  -2.1785  -2.1513
    -2.1472  -2.1274  -2.1006  -2.0861  -2.0700  -2.0632  -2.0357  -2.0068
    -2.0056  -1.9949  -1.9838  -1.9659  -1.9348  -1.9247  -1.9091  -1.8855
    -1.8635  -1.8470  -1.8138  -1.8086  -1.8054  -1.7728  -1.7529  -1.7335
    -1.7147  -1.6872  -1.6826  -1.6612  -1.6432  -1.6155  -1.5700  -1.5612
    -1.5571  -1.5423  -1.5115  -1.5035  -1.4805  -1.4578  -1.4477  -1.4294
    -1.4275  -1.3947  -1.3619  -1.3314  -1.3186  -1.3008  -1.2836  -1.2498
    -1.2055  -1.1840  -1.1165  -1.0933  -1.0049  -0.9872  -0.9014  -0.8627
    -0.8440  -0.8060  -0.7099  -0.5533  -0.5084  -0.4112  -0.3407  -0.2361
     0.0867   0.1102   0.1366   0.1769   0.2078   0.2154   0.2271   0.2325
     0.2571   0.2710   0.2831   0.2921   0.2989   0.3009   0.3243   0.3312
     0.3350   0.3437   0.3507   0.3608   0.3656   0.3799   0.3833   0.3900
     0.3988   0.4022   0.4060   0.4119   0.4240   0.4292   0.4315   0.4389
     0.4461   0.4626   0.4671   0.4706   0.4738   0.4806   0.4840   0.4900
     0.5069   0.5163   0.5201   0.5220   0.5280   0.5374   0.5415   0.5523
     0.5616   0.5730   0.5848   0.5869   0.5977   0.5994   0.6082   0.6166
     0.6229   0.6279   0.6345   0.6389   0.6511   0.6536   0.6601   0.6654
     0.6747   0.6806   0.7010   0.7073   0.7161   0.7254   0.7262   0.7270
     0.7299   0.7457   0.7487   0.7716   0.7808   0.7904   0.7982   0.8095
     0.8103   0.8223   0.8229   0.8369   0.8446   0.8500   0.8578   0.8728
     0.8742   0.8940   0.8974   0.9191   0.9214   0.9422   0.9569   0.9794
     0.9938   1.1040   1.1378   1.6520   1.6604   1.6657   1.6940   1.6952
     1.7153   1.7178   1.8077   1.8301   1.8591   1.8784   1.9201   1.9253
     1.9451   1.9744   1.9950   1.9989   2.0266   2.0448   2.0514   2.0830
     2.1048   2.1123   2.1470   2.1642   2.1746   2.1872   2.2157   2.2210
     2.2252   2.2406   2.2441   2.2651   2.2763   2.2835   2.3016   2.3132
     2.3208   2.3301   2.3355   2.3594   2.3698   2.3904   2.4052   2.4175
     2.4428   2.4437   2.4703   2.4765   2.5003   2.5057   2.5192   2.5495
     2.5625   2.5718   2.5892   2.6263   2.6566   2.6995   2.7151   2.7745
     2.7793   2.7925   2.8280   2.8508   2.8913   3.2626   3.4498   3.6988
     3.7686   3.8452   3.9140   3.9805   4.0047   4.0710   4.3216   4.4128
     4.6171   4.7448   4.8604   4.8899   4.9313   5.0224   5.3782   6.2851
     6.3321   6.4813   6.5598   6.6488   6.7091   6.8026   6.8113   6.8565
     7.0006   7.0293   7.0911   7.1111   7.2853   7.3361   7.3418   7.3739
     7.4992   7.5826   7.6257   7.6600   7.6923   7.6960   7.7820   7.8139
     7.8637   7.9069   7.9329   7.9475   7.9793   7.9940   8.0476   8.0746
     8.0938   8.1147   8.1497   8.1941   8.2338   8.2482   8.2701   8.2992
     8.3121   8.3418   8.3830   8.4325   8.4550   8.4650   8.4967   8.5154
     8.5341   8.5428   8.5509   8.5755   8.6077   8.6291   8.6340   8.6618
     8.6930   8.7128   8.7315   8.7825   8.8112   8.8298   8.8462

     the Fermi energy is     1.5506 ev

!    total energy              =   -7398.07871505 Ry
     estimated scf accuracy    <       0.00000064 Ry
     smearing contrib. (-TS)   =      -0.01379814 Ry
     internal energy E=F+TS    =   -7398.06491691 Ry

     The total energy is F=E-TS. E is the sum of the following terms:
     one-electron contribution =  -91725.30147612 Ry
     hartree contribution      =   46509.41625602 Ry
     xc contribution           =   -2260.22740977 Ry
     ewald contribution        =   40079.88065540 Ry
     Dispersion Correction     =      -1.83295178 Ry
     electric field correction =       0.00000934 Ry

     total magnetization       =    78.77 Bohr mag/cell
     absolute magnetization    =    80.44 Bohr mag/cell

     convergence has been achieved in 111 iterations

     negative rho (up, down):  9.271E-04 5.558E-04

     Forces acting on atoms (cartesian axes, Ry/au):

     atom    1 type  2   force =    -0.00059192    0.00110272    0.00025789
     atom    2 type  1   force =    -0.00010915    0.00013413   -0.00006407
     atom    3 type  1   force =     0.00007287   -0.00095975   -0.00001679
     atom    4 type  1   force =    -0.00014061    0.00001400    0.00047983
     atom    5 type  1   force =    -0.00012351   -0.00001959    0.00050265
     atom    6 type  1   force =     0.00000441   -0.00073534    0.00028387
     atom    7 type  1   force =    -0.00054279    0.00002071    0.00000331
     atom    8 type  1   force =    -0.00023191   -0.00001624   -0.00033379
     atom    9 type  1   force =    -0.00021384    0.00029241   -0.00019857
     atom   10 type  1   force =    -0.00040796    0.00016447    0.00017744
     atom   11 type  1   force =    -0.00058110    0.00042672   -0.00033884
     atom   12 type  1   force =     0.00011260    0.00000147   -0.00070222
     atom   13 type  3   force =    -0.00044550   -0.00017024   -0.00017498
     atom   14 type  3   force =    -0.00009209   -0.00002732   -0.00036436
     atom   15 type  3   force =    -0.00013072   -0.00014075   -0.00032026
     atom   16 type  3   force =     0.00002669   -0.00001542   -0.00014175
     atom   17 type  4   force =     0.00008584   -0.00021924    0.00018569
     atom   18 type  4   force =     0.00045995   -0.00015311    0.00008956
     atom   19 type  4   force =     0.00032492   -0.00045340    0.00075895
     atom   20 type  4   force =    -0.00004221    0.00037151    0.00035714
     atom   21 type  4   force =    -0.00029267    0.00020756   -0.00003814
     atom   22 type  4   force =    -0.00015356    0.00027918   -0.00015529
     atom   23 type  4   force =     0.00015240   -0.00049165   -0.00084379
     atom   24 type  4   force =     0.00017146   -0.00008665    0.00011518
     atom   25 type  4   force =    -0.00016413    0.00017428    0.00014078
     atom   26 type  4   force =     0.00061962   -0.00015290    0.00010095
     atom   27 type  4   force =    -0.00013973    0.00040668    0.00005622
     atom   28 type  4   force =    -0.00014970    0.00004084   -0.00030459
     atom   29 type  4   force =    -0.00007346   -0.00040752    0.00012884
     atom   30 type  4   force =    -0.00053679   -0.00016705   -0.00015705
     atom   31 type  4   force =    -0.00014345    0.00019189   -0.00031302
     atom   32 type  4   force =    -0.00005826    0.00021097   -0.00051612
     atom   33 type  3   force =     0.00074128    0.00006729    0.00042173
     atom   34 type  3   force =     0.00012091   -0.00007362   -0.00010895
     atom   35 type  3   force =     0.00016965   -0.00005408    0.00003836
     atom   36 type  3   force =    -0.00029135   -0.00006822   -0.00028439
     atom   37 type  4   force =     0.00005903    0.00004576    0.00013559
     atom   38 type  4   force =    -0.00004978    0.00038106    0.00012058
     atom   39 type  4   force =    -0.00012388    0.00005072    0.00016300
     atom   40 type  4   force =    -0.00020870   -0.00014287   -0.00025143
     atom   41 type  4   force =    -0.00003931   -0.00019540   -0.00017534
     atom   42 type  4   force =    -0.00008067    0.00064355    0.00054827
     atom   43 type  4   force =     0.00032932    0.00002700    0.00018558
     atom   44 type  4   force =     0.00006646   -0.00025361   -0.00017641
     atom   45 type  4   force =    -0.00011312    0.00007934   -0.00021628
     atom   46 type  4   force =     0.00044367   -0.00017898    0.00007322
     atom   47 type  4   force =    -0.00006455   -0.00029006    0.00015394
     atom   48 type  4   force =     0.00037110    0.00049015   -0.00015766
     atom   49 type  4   force =     0.00019670   -0.00004237   -0.00029083
     atom   50 type  4   force =    -0.00026599    0.00004538    0.00020375
     atom   51 type  4   force =     0.00000993   -0.00015216   -0.00000797
     atom   52 type  4   force =     0.00013080   -0.00029821   -0.00011962
     atom   53 type  2   force =     0.00248961   -0.00352480    0.00512673
     atom   54 type  1   force =     0.00488865   -0.00216733    0.00372988
     atom   55 type  1   force =     0.00822044   -0.00301478    0.00253736
     atom   56 type  1   force =    -0.00194555    0.01024045    0.00586107
     atom   57 type  1   force =     0.00051693    0.02277035    0.01466963
     atom   58 type  1   force =     0.00207305   -0.00306421   -0.00157197
     atom   59 type  1   force =     0.00091429   -0.00892545    0.00108154
     atom   60 type  1   force =    -0.00500856   -0.00182357    0.00462960
     atom   61 type  1   force =    -0.00195997   -0.00046886    0.00418042
     atom   62 type  1   force =    -0.00435681    0.00830312    0.00573405
     atom   63 type  1   force =    -0.01161187    0.02559300    0.01865304
     atom   64 type  1   force =    -0.00198344    0.00132785    0.00137324
     atom   65 type  3   force =     0.04621046   -0.11393062   -0.01057049
     atom   66 type  3   force =    -0.00058157   -0.00145670    0.00424157
     atom   67 type  3   force =    -0.03974389    0.12465861    0.01506183
     atom   68 type  3   force =     0.06274505   -0.00163446   -0.00332400
     atom   69 type  4   force =     0.01384290   -0.01830178    0.00361150
     atom   70 type  4   force =    -0.00070616    0.00268054   -0.00119268
     atom   71 type  4   force =    -0.00118995    0.00361274   -0.00555827
     atom   72 type  4   force =     0.00409346    0.00179624   -0.00064956
     atom   73 type  4   force =     0.00096466   -0.01152208    0.00271777
     atom   74 type  4   force =    -0.00020430   -0.00068046   -0.00010223
     atom   75 type  4   force =     0.00142557    0.01465318    0.00526138
     atom   76 type  4   force =     0.00837180    0.00519490    0.00921248
     atom   77 type  4   force =     0.00710901   -0.00260328    0.00156122
     atom   78 type  4   force =     0.04460691   -0.14177216   -0.00647541
     atom   79 type  4   force =     0.00172429    0.00193440    0.00140257
     atom   80 type  4   force =    -0.00009891    0.00289178   -0.00162566
     atom   81 type  4   force =     0.06794702    0.00049674   -0.00647876
     atom   82 type  4   force =    -0.00012940    0.00067662   -0.00147498
     atom   83 type  4   force =    -0.03923448    0.13495095    0.00267055
     atom   84 type  4   force =    -0.00290201   -0.01100401   -0.00415479
     atom   85 type  3   force =     0.03993361   -0.12017909   -0.01826217
     atom   86 type  3   force =    -0.06403946    0.00010340    0.00872211
     atom   87 type  3   force =    -0.04512716    0.12429271    0.01710989
     atom   88 type  3   force =    -0.00169279    0.00015216    0.00259399
     atom   89 type  4   force =     0.00899763   -0.01527484    0.00394802
     atom   90 type  4   force =    -0.00488091    0.00150938   -0.00008880
     atom   91 type  4   force =    -0.00887804    0.00828794   -0.00592575
     atom   92 type  4   force =     0.00013405    0.00008389   -0.00053362
     atom   93 type  4   force =    -0.00177651   -0.00836606    0.00739478
     atom   94 type  4   force =    -0.00408292    0.00023796    0.00120120
     atom   95 type  4   force =    -0.00369974    0.01407578    0.00674120
     atom   96 type  4   force =     0.00417845    0.00514242    0.00959668
     atom   97 type  4   force =     0.00002194    0.00039823    0.00066857
     atom   98 type  4   force =     0.04028848   -0.14081796   -0.00488607
     atom   99 type  4   force =    -0.06677913    0.00000802    0.00634308
     atom  100 type  4   force =    -0.00180388    0.00402381   -0.00238329
     atom  101 type  4   force =     0.00025650    0.00071161   -0.00078182
     atom  102 type  4   force =    -0.00634085    0.00374329   -0.00136130
     atom  103 type  4   force =    -0.04029044    0.13354216    0.00430406
     atom  104 type  4   force =    -0.00692309   -0.00986765   -0.00519480
     atom  105 type  2   force =     0.00417268   -0.00662905   -0.01816806
     atom  106 type  1   force =     0.02807138    0.01423284    0.01159657
     atom  107 type  1   force =     0.00875422   -0.00608199   -0.01428821
     atom  108 type  1   force =    -0.02834255    0.02164336    0.01856585
     atom  109 type  1   force =     0.00511970    0.01605546    0.00928121
     atom  110 type  1   force =    -0.00254290   -0.00867227   -0.00688731
     atom  111 type  1   force =    -0.00085625   -0.00956558   -0.01169131
     atom  112 type  1   force =     0.02915908    0.01751476    0.01131143
     atom  113 type  1   force =    -0.00074572   -0.00496329   -0.01414648
     atom  114 type  1   force =    -0.02959793    0.02071549    0.01832993
     atom  115 type  1   force =    -0.00728966    0.01847580    0.01202258
     atom  116 type  1   force =    -0.00554028   -0.00429978   -0.00310794
     atom  117 type  3   force =     0.01423647   -0.17390882   -0.10881306
     atom  118 type  3   force =     0.00518350   -0.00851294   -0.01261531
     atom  119 type  3   force =    -0.04466814    0.12489962   -0.00189711
     atom  120 type  3   force =     0.09507674   -0.04105506   -0.07974095
     atom  121 type  4   force =     0.00614227   -0.01704012    0.03715130
     atom  122 type  4   force =    -0.00349738    0.00370296    0.00455111
     atom  123 type  4   force =    -0.00087356    0.00255777   -0.00282944
     atom  124 type  4   force =     0.00848245    0.00219818    0.02695463
     atom  125 type  4   force =     0.00990947   -0.01686014    0.01604970
     atom  126 type  4   force =    -0.00749239    0.00098877   -0.00310643
     atom  127 type  4   force =     0.00399109    0.00970864    0.00049835
     atom  128 type  4   force =    -0.00064319   -0.00104741    0.03026789
     atom  129 type  4   force =    -0.00769294    0.02545035    0.00121701
     atom  130 type  4   force =     0.04337269   -0.14586438   -0.00192414
     atom  131 type  4   force =    -0.01734183   -0.00038550    0.00287808
     atom  132 type  4   force =     0.00342279    0.00265482    0.00199726
     atom  133 type  4   force =     0.06963548    0.00368155   -0.00192367
     atom  134 type  4   force =     0.00095000    0.00367821    0.00270959
     atom  135 type  4   force =    -0.02751991    0.17216654    0.00608670
     atom  136 type  4   force =     0.01950735   -0.00861628    0.00403608
     atom  137 type  3   force =     0.00909457   -0.16687315   -0.09426270
     atom  138 type  3   force =    -0.06465288   -0.00209521   -0.00494352
     atom  139 type  3   force =    -0.04873425    0.11822140    0.00151093
     atom  140 type  3   force =     0.03144419   -0.04324110   -0.07370843
     atom  141 type  4   force =     0.00467239   -0.01328760    0.03209465
     atom  142 type  4   force =    -0.00541505   -0.00035895    0.00434489
     atom  143 type  4   force =    -0.00820845    0.00809263   -0.00350741
     atom  144 type  4   force =     0.00382284    0.00139385    0.02755230
     atom  145 type  4   force =     0.00692571   -0.01296589    0.03243956
     atom  146 type  4   force =    -0.00874185   -0.00176950   -0.00305337
     atom  147 type  4   force =     0.00035303    0.00992003    0.00271272
     atom  148 type  4   force =    -0.00793471    0.00126089    0.02917993
     atom  149 type  4   force =    -0.01320611    0.02936561    0.00052628
     atom  150 type  4   force =     0.03980383   -0.13831416   -0.00140451
     atom  151 type  4   force =    -0.08609197   -0.00172720    0.00917115
     atom  152 type  4   force =     0.00120811    0.00389253    0.00142300
     atom  153 type  4   force =    -0.00356628    0.00085128    0.00295659
     atom  154 type  4   force =    -0.00589000    0.00601785    0.00130972
     atom  155 type  4   force =    -0.02793999    0.16638545    0.00486221
     atom  156 type  4   force =     0.01049115   -0.00972222   -0.00135496
     atom  157 type  4   force =    -0.01205691   -0.00580209    0.00195820
     atom  158 type  5   force =     0.01202970    0.00633493   -0.00242747

     Total force =     0.671018     Total SCF correction =     0.003276
 
     init_run     :      7.41s CPU      8.04s WALL (       1 calls)
     electrons    :   1354.31s CPU   1419.55s WALL (       1 calls)
     forces       :      3.65s CPU      4.07s WALL (       1 calls)
     force_london :      0.10s CPU      0.10s WALL (       1 calls)

     Called by init_run:
     wfcinit      :      4.42s CPU      4.56s WALL (       1 calls)
     potinit      :      0.57s CPU      0.76s WALL (       1 calls)
     hinit0       :      1.26s CPU      1.35s WALL (       1 calls)

     Called by electrons:
     c_bands      :   1051.04s CPU   1083.52s WALL (     111 calls)
     sum_band     :    195.23s CPU    213.12s WALL (     111 calls)
     v_of_rho     :     19.36s CPU     20.49s WALL (     112 calls)
     newd         :     58.79s CPU     72.57s WALL (     112 calls)
     mix_rho      :     28.50s CPU     28.66s WALL (     111 calls)
     energy_londo :      0.08s CPU      0.08s WALL (       1 calls)

     Called by c_bands:
     init_us_2    :      3.54s CPU      3.61s WALL (     448 calls)
     init_us_2:cp :      3.53s CPU      3.61s WALL (     448 calls)
     regterg      :   1026.61s CPU   1058.72s WALL (     223 calls)

     Called by *egterg:
     rdiaghg      :    257.86s CPU    272.81s WALL (     756 calls)
     h_psi        :    416.63s CPU    424.46s WALL (     758 calls)
     s_psi        :     81.22s CPU     81.27s WALL (     758 calls)
     g_psi        :      0.56s CPU      0.56s WALL (     533 calls)

     Called by h_psi:
     h_psi:calbec :    110.06s CPU    116.89s WALL (     758 calls)
     vloc_psi     :    222.31s CPU    223.15s WALL (     758 calls)
     add_vuspsi   :     83.14s CPU     83.25s WALL (     758 calls)

     General routines
     calbec       :    163.50s CPU    173.68s WALL (     988 calls)
     fft          :     25.40s CPU     26.94s WALL (    2029 calls)
     ffts         :     17.55s CPU     17.59s WALL (   13865 calls)
     fftw         :    254.39s CPU    255.37s WALL (  368694 calls)
     interpolate  :      1.74s CPU      1.83s WALL (     224 calls)
 
     Parallel routines
 
     PWSCF        :  22m47.37s CPU  23m53.97s WALL

 
   This run was terminated on:  21: 9:46  19Nov2025            

=------------------------------------------------------------------------------=
   JOB DONE.
=------------------------------------------------------------------------------=
