
     Program PWSCF v.7.2 starts on 19Nov2025 at 20:30:40 

     This program is part of the open-source Quantum ESPRESSO suite
     for quantum simulation of materials; please cite
         "P. Giannozzi et al., J. Phys.:Condens. Matter 21 395502 (2009);
         "P. Giannozzi et al., J. Phys.:Condens. Matter 29 465901 (2017);
         "P. Giannozzi et al., J. Chem. Phys. 152 154105 (2020);
          URL http://www.quantum-espresso.org", 
     in publications or presentations arising from this work. More details at
     http://www.quantum-espresso.org/quote

     Parallel version (MPI), running on    64 processors

     MPI processes distributed on     4 nodes
     384963 MiB available memory on the printing compute node when the environment starts
 
     Reading input from PWINPUT_atm158_xp

     Current dimensions of program PWSCF are:
     Max number of different atomic species (ntypx) = 10
     Max number of k-points (npk) =  40000
     Max angular momentum in pseudopotentials (lmaxx) =  4
     Presently no symmetry can be used with electric field

     file Ni.pbe-n-rrkjus_psl.1.0.0.UPF: wavefunction(s)  3D renormalized
     file Mn.pbe-spn-rrkjus_psl.0.3.1.UPF: wavefunction(s)  3D renormalized
     file O.pbe-rrkjus.UPF: wavefunction(s)  2S renormalized
     file H.pbe-rrkjus.UPF: wavefunction(s)  1S renormalized

     gamma-point specific algorithms are used
 
     R & G space division:  proc/nbgrp/npool/nimage =      64
     Subspace diagonalization in iterative solution of the eigenvalue problem:
     one sub-group per band group will be used
     custom distributed-memory algorithm (size of sub-group:  6*  6 procs)

 
     Parallelization info
     --------------------
     sticks:   dense  smooth     PW     G-vecs:    dense   smooth      PW
     Min         208      82     20                59912    15118    1876
     Max         210      84     22                59974    15196    1926
     Sum       13399    5355   1345              3836275   970529  121367
 
     Using Slab Decomposition
 


     bravais-lattice index     =            0
     lattice parameter (alat)  =      17.7004  a.u.
     unit-cell volume          =   20319.7251 (a.u.)^3
     number of atoms/cell      =          158
     number of atomic types    =            5
     number of electrons       =      1078.00
     number of Kohn-Sham states=          647
     kinetic-energy cutoff     =      50.0000  Ry
     charge density cutoff     =     500.0000  Ry
     scf convergence threshold =      1.0E-06
     mixing beta               =       0.1000
     number of iterations used =            8  local-TF  mixing
     Exchange-correlation=  SLA  PW   PBE  PBE
                           (   1   4   3   4   0   0   0)

     celldm(1)=  17.700384  celldm(2)=   0.000000  celldm(3)=   0.000000
     celldm(4)=   0.000000  celldm(5)=   0.000000  celldm(6)=   0.000000

     crystal axes: (cart. coord. in units of alat)
               a(1) = (   1.000000   0.000000   0.000000 )  
               a(2) = (   0.000000   1.075730   0.000000 )  
               a(3) = (   0.000000   0.000000   3.406172 )  

     reciprocal axes: (cart. coord. in units 2 pi/alat)
               b(1) = (  1.000000  0.000000  0.000000 )  
               b(2) = (  0.000000  0.929602  0.000000 )  
               b(3) = (  0.000000  0.000000  0.293585 )  


     PseudoPot. # 1 for Ni read from file:
     ~/PSEUDO/Ni.pbe-n-rrkjus_psl.1.0.0.UPF
     MD5 check sum: Not computed, couldn't open file
     Pseudo is Ultrasoft + core correction, Zval = 10.0
     Generated using "atomic" code by A. Dal Corso  v.5.1.2
     Using radial grid of 1195 points,  6 beta functions with: 
                l(1) =   0
                l(2) =   0
                l(3) =   1
                l(4) =   1
                l(5) =   2
                l(6) =   2
     Q(r) pseudized with 0 coefficients 


     PseudoPot. # 2 for Mn read from file:
     ~/PSEUDO/Mn.pbe-spn-rrkjus_psl.0.3.1.UPF
     MD5 check sum: Not computed, couldn't open file
     Pseudo is Ultrasoft + core correction, Zval = 15.0
     Generated using &quot;atomic&quot; code by A. Dal Corso  v.6.2.2
     Using radial grid of 1187 points,  6 beta functions with: 
                l(1) =   0
                l(2) =   0
                l(3) =   1
                l(4) =   1
                l(5) =   2
                l(6) =   2
     Q(r) pseudized with 0 coefficients 


     PseudoPot. # 3 for P  read from file:
     ~/PSEUDO/P.pbe-n-rrkjus_psl.1.0.0.UPF
     MD5 check sum: Not computed, couldn't open file
     Pseudo is Ultrasoft + core correction, Zval =  5.0
     Generated using "atomic" code by A. Dal Corso  v.5.1
     Using radial grid of 1147 points,  6 beta functions with: 
                l(1) =   0
                l(2) =   0
                l(3) =   1
                l(4) =   1
                l(5) =   2
                l(6) =   2
     Q(r) pseudized with 0 coefficients 


     PseudoPot. # 4 for O  read from file:
     ~/PSEUDO/O.pbe-rrkjus.UPF
     MD5 check sum: Not computed, couldn't open file
     Pseudo is Ultrasoft, Zval =  6.0
     Generated by new atomic code, or converted to UPF format
     Using radial grid of 1269 points,  4 beta functions with: 
                l(1) =   0
                l(2) =   0
                l(3) =   1
                l(4) =   1
     Q(r) pseudized with 0 coefficients 


     PseudoPot. # 5 for H  read from file:
     ~/PSEUDO/H.pbe-rrkjus.UPF
     MD5 check sum: Not computed, couldn't open file
     Pseudo is Ultrasoft, Zval =  1.0
     Generated by new atomic code, or converted to UPF format
     Using radial grid of 1061 points,  2 beta functions with: 
                l(1) =   0
                l(2) =   0
     Q(r) pseudized with 0 coefficients 


     atomic species   valence    mass     pseudopotential
     Ni               10.00    58.69300     Ni( 1.00)
     Mn               15.00    54.93800     Mn( 1.00)
     P                 5.00    30.97300     P ( 1.00)
     O                 6.00    15.99900     O ( 1.00)
     H                 1.00     1.00790     H ( 1.00)

     Starting magnetic structure 
     atomic species   magnetization
     Ni              1.000
     Mn              1.000
     P               1.000
     O               1.000
     H               0.000

     No symmetry found



   Cartesian axes

     site n.     atom                  positions (alat units)
         1        Mn     tau(   1) = (   0.2517087   0.8371115   1.7089200  )
         2        Ni     tau(   2) = (   0.4946298   0.7752973   1.3725824  )
         3        Ni     tau(   3) = (   0.0015481   0.2961171   1.6749872  )
         4        Ni     tau(   4) = (   0.2613521   0.2396234   1.3678359  )
         5        Ni     tau(   5) = (   0.9984933   1.0749377   1.5355607  )
         6        Ni     tau(   6) = (   0.2572590   0.5404195   1.5326386  )
         7        Ni     tau(   7) = (   0.7529013   0.8355294   1.6752854  )
         8        Ni     tau(   8) = (   0.9935933   0.7756548   1.3720141  )
         9        Ni     tau(   9) = (   0.5024742   0.2964342   1.6745479  )
        10        Ni     tau(  10) = (   0.7618978   0.2375431   1.3667264  )
        11        Ni     tau(  11) = (   0.4990156   1.0768182   1.5305295  )
        12        Ni     tau(  12) = (   0.7564696   0.5358840   1.5310064  )
        13        P      tau(  13) = (   0.2101543   0.9720156   1.3797127  )
        14        P      tau(  14) = (   0.4706542   0.6451455   1.6955617  )
        15        P      tau(  15) = (   0.2884324   0.1127271   1.6923494  )
        16        P      tau(  16) = (   0.0456337   0.4340918   1.3707912  )
        17        O      tau(  17) = (   0.1335059   0.8997101   1.5140650  )
        18        O      tau(  18) = (   0.3867827   0.7182378   1.5594019  )
        19        O      tau(  19) = (   0.3670053   0.1737862   1.5463102  )
        20        O      tau(  20) = (   0.1240237   0.3636575   1.5070371  )
        21        O      tau(  21) = (   0.1473160   0.8837944   1.2542796  )
        22        O      tau(  22) = (   0.4146853   0.7340483   1.8196848  )
        23        O      tau(  23) = (   0.3495356   0.2093518   1.8074273  )
        24        O      tau(  24) = (   0.1052584   0.3464292   1.2439881  )
        25        O      tau(  25) = (   0.1049117   0.5895470   1.3757347  )
        26        O      tau(  26) = (   0.3473708   1.0308751   1.6857652  )
        27        O      tau(  27) = (   0.3810036   0.4281764   1.3825697  )
        28        O      tau(  28) = (   0.1238775   0.1159040   1.6775620  )
        29        O      tau(  29) = (   0.1305439   0.6501957   1.6820985  )
        30        O      tau(  30) = (   0.4132477   0.4886172   1.6862595  )
        31        O      tau(  31) = (   0.1524630   0.0515712   1.3799009  )
        32        O      tau(  32) = (   0.3743678   0.9633656   1.3849747  )
        33        P      tau(  33) = (   0.7103643   0.9714602   1.3712571  )
        34        P      tau(  34) = (   0.9649208   0.6440558   1.6927385  )
        35        P      tau(  35) = (   0.7871885   0.1098825   1.6920406  )
        36        P      tau(  36) = (   0.5450176   0.4335131   1.3702334  )
        37        O      tau(  37) = (   0.6319749   0.9002438   1.5073571  )
        38        O      tau(  38) = (   0.8891581   0.7073457   1.5481759  )
        39        O      tau(  39) = (   0.8662231   0.1700413   1.5462886  )
        40        O      tau(  40) = (   0.6235591   0.3611085   1.5054814  )
        41        O      tau(  41) = (   0.6491843   0.8831538   1.2455076  )
        42        O      tau(  42) = (   0.9034437   0.7399336   1.8095699  )
        43        O      tau(  43) = (   0.8478548   0.2077401   1.8063738  )
        44        O      tau(  44) = (   0.6060435   0.3462002   1.2436710  )
        45        O      tau(  45) = (   0.6035774   0.5890693   1.3768175  )
        46        O      tau(  46) = (   0.8421571   1.0273722   1.6917632  )
        47        O      tau(  47) = (   0.8816644   0.4266506   1.3828449  )
        48        O      tau(  48) = (   0.6221997   0.1135664   1.6772983  )
        49        O      tau(  49) = (   0.6347776   0.6499156   1.6770748  )
        50        O      tau(  50) = (   0.9100442   0.4869846   1.6900532  )
        51        O      tau(  51) = (   0.6512513   0.0508446   1.3744142  )
        52        O      tau(  52) = (   0.8740844   0.9637479   1.3848135  )
        53        Mn     tau(  53) = (   0.2404744   0.8246335   1.0701417  )
        54        Ni     tau(  54) = (   0.4968126   0.7601755   0.7454373  )
        55        Ni     tau(  55) = (   0.0066150   0.2811828   1.0628866  )
        56        Ni     tau(  56) = (   0.2585722   0.2230943   0.7421070  )
        57        Ni     tau(  57) = (   0.9987350   1.0571496   0.9014992  )
        58        Ni     tau(  58) = (   0.2517397   0.5205596   0.9040596  )
        59        Ni     tau(  59) = (   0.7451645   0.8212628   1.0648168  )
        60        Ni     tau(  60) = (   0.9939181   0.7613889   0.7462324  )
        61        Ni     tau(  61) = (   0.5111533   0.2799173   1.0618053  )
        62        Ni     tau(  62) = (   0.7606326   0.2194352   0.7418547  )
        63        Ni     tau(  63) = (   0.5024065   1.0563218   0.8999416  )
        64        Ni     tau(  64) = (   0.7529977   0.5192985   0.9024691  )
        65        P      tau(  65) = (   0.2092944   0.9606182   0.7524883  )
        66        P      tau(  66) = (   0.4655727   0.6234620   1.0595283  )
        67        P      tau(  67) = (   0.2910699   0.0902448   1.0573821  )
        68        P      tau(  68) = (   0.0396216   0.4163480   0.7471080  )
        69        O      tau(  69) = (   0.1294378   0.8888345   0.8859300  )
        70        O      tau(  70) = (   0.3874505   0.6929859   0.9232915  )
        71        O      tau(  71) = (   0.3702540   0.1589885   0.9209891  )
        72        O      tau(  72) = (   0.1184398   0.3458043   0.8831565  )
        73        O      tau(  73) = (   0.1451572   0.8725966   0.6282341  )
        74        O      tau(  74) = (   0.4048762   0.7120670   1.1852426  )
        75        O      tau(  75) = (   0.3523506   0.1775664   1.1834175  )
        76        O      tau(  76) = (   0.1017610   0.3285569   0.6213347  )
        77        O      tau(  77) = (   0.0975396   0.5724373   0.7511996  )
        78        O      tau(  78) = (   0.3483552   1.0190030   1.0599597  )
        79        O      tau(  79) = (   0.3784305   0.4100203   0.7560991  )
        80        O      tau(  80) = (   0.1268237   0.0943029   1.0477175  )
        81        O      tau(  81) = (   0.1212267   0.6299255   1.0507023  )
        82        O      tau(  82) = (   0.4053315   0.4684472   1.0569297  )
        83        O      tau(  83) = (   0.1536621   0.0322003   0.7496532  )
        84        O      tau(  84) = (   0.3732349   0.9506802   0.7613277  )
        85        P      tau(  85) = (   0.7119823   0.9571059   0.7496908  )
        86        P      tau(  86) = (   0.9615208   0.6238477   1.0606987  )
        87        P      tau(  87) = (   0.7927710   0.0845145   1.0577754  )
        88        P      tau(  88) = (   0.5426404   0.4144760   0.7459181  )
        89        O      tau(  89) = (   0.6326879   0.8866267   0.8856678  )
        90        O      tau(  90) = (   0.8842163   0.6958291   0.9244764  )
        91        O      tau(  91) = (   0.8716178   0.1552836   0.9216415  )
        92        O      tau(  92) = (   0.6212010   0.3433751   0.8818834  )
        93        O      tau(  93) = (   0.6507714   0.8687427   0.6238197  )
        94        O      tau(  94) = (   0.9014054   0.7139543   1.1859242  )
        95        O      tau(  95) = (   0.8548963   0.1722994   1.1834447  )
        96        O      tau(  96) = (   0.6044469   0.3253792   0.6209553  )
        97        O      tau(  97) = (   0.6024424   0.5698225   0.7490903  )
        98        O      tau(  98) = (   0.8498940   1.0129567   1.0594762  )
        99        O      tau(  99) = (   0.8798395   0.4080910   0.7564148  )
       100        O      tau( 100) = (   0.6286921   0.0909721   1.0472573  )
       101        O      tau( 101) = (   0.6294973   0.6302838   1.0497366  )
       102        O      tau( 102) = (   0.9024339   0.4685397   1.0573501  )
       103        O      tau( 103) = (   0.6547812   0.0286072   0.7473283  )
       104        O      tau( 104) = (   0.8760507   0.9507690   0.7605412  )
       105        Mn     tau( 105) = (   0.2404744   0.8121420   0.4502541  )
       106        Ni     tau( 106) = (   0.4968126   0.7476840   0.1255496  )
       107        Ni     tau( 107) = (   0.0066150   0.2686914   0.4429989  )
       108        Ni     tau( 108) = (   0.2585722   0.2106028   0.1222194  )
       109        Ni     tau( 109) = (   0.9987350   1.0446581   0.2816116  )
       110        Ni     tau( 110) = (   0.2517397   0.5080681   0.2841720  )
       111        Ni     tau( 111) = (   0.7451645   0.8087713   0.4449291  )
       112        Ni     tau( 112) = (   0.9939181   0.7488974   0.1263448  )
       113        Ni     tau( 113) = (   0.5111533   0.2674258   0.4419177  )
       114        Ni     tau( 114) = (   0.7606326   0.2069438   0.1219670  )
       115        Ni     tau( 115) = (   0.5024065   1.0438304   0.2800540  )
       116        Ni     tau( 116) = (   0.7529977   0.5068070   0.2825815  )
       117        P      tau( 117) = (   0.2092944   0.9481267   0.1326007  )
       118        P      tau( 118) = (   0.4655727   0.6109705   0.4396407  )
       119        P      tau( 119) = (   0.2910699   0.0777534   0.4374945  )
       120        P      tau( 120) = (   0.0396216   0.4038566   0.1272204  )
       121        O      tau( 121) = (   0.1294378   0.8763430   0.2660424  )
       122        O      tau( 122) = (   0.3874505   0.6804944   0.3034039  )
       123        O      tau( 123) = (   0.3702540   0.1464970   0.3011014  )
       124        O      tau( 124) = (   0.1184398   0.3333129   0.2632689  )
       125        O      tau( 125) = (   0.1451572   0.8601051   0.0083464  )
       126        O      tau( 126) = (   0.4048762   0.6995756   0.5653550  )
       127        O      tau( 127) = (   0.3523506   0.1650749   0.5635298  )
       128        O      tau( 128) = (   0.1017610   0.3160655   0.0014470  )
       129        O      tau( 129) = (   0.0975396   0.5599458   0.1313120  )
       130        O      tau( 130) = (   0.3483552   1.0065115   0.4400720  )
       131        O      tau( 131) = (   0.3784305   0.3975288   0.1362114  )
       132        O      tau( 132) = (   0.1268237   0.0818115   0.4278298  )
       133        O      tau( 133) = (   0.1212267   0.6174340   0.4308146  )
       134        O      tau( 134) = (   0.4053315   0.4559557   0.4370420  )
       135        O      tau( 135) = (   0.1536621   0.0197088   0.1297656  )
       136        O      tau( 136) = (   0.3732349   0.9381887   0.1414400  )
       137        P      tau( 137) = (   0.7119823   0.9446144   0.1298032  )
       138        P      tau( 138) = (   0.9615208   0.6113562   0.4408111  )
       139        P      tau( 139) = (   0.7927710   0.0720230   0.4378878  )
       140        P      tau( 140) = (   0.5426404   0.4019845   0.1260304  )
       141        O      tau( 141) = (   0.6326879   0.8741353   0.2657802  )
       142        O      tau( 142) = (   0.8842163   0.6833376   0.3045887  )
       143        O      tau( 143) = (   0.8716178   0.1427921   0.3017538  )
       144        O      tau( 144) = (   0.6212010   0.3308836   0.2619957  )
       145        O      tau( 145) = (   0.6507714   0.8562512   0.0039320  )
       146        O      tau( 146) = (   0.9014054   0.7014628   0.5660366  )
       147        O      tau( 147) = (   0.8548963   0.1598079   0.5635571  )
       148        O      tau( 148) = (   0.6044469   0.3128877   0.0010676  )
       149        O      tau( 149) = (   0.6024424   0.5573310   0.1292027  )
       150        O      tau( 150) = (   0.8498940   1.0004653   0.4395886  )
       151        O      tau( 151) = (   0.8798395   0.3955995   0.1365272  )
       152        O      tau( 152) = (   0.6286921   0.0784807   0.4273696  )
       153        O      tau( 153) = (   0.6294973   0.6177923   0.4298489  )
       154        O      tau( 154) = (   0.9024339   0.4560482   0.4374624  )
       155        O      tau( 155) = (   0.6547812   0.0161158   0.1274406  )
       156        O      tau( 156) = (   0.8760507   0.9382775   0.1406535  )
       157        O      tau( 157) = (   1.1426512   0.9081323   1.8444903  )
       158        H      tau( 158) = (   1.0505328   0.8581547   1.8562154  )

     -------------------------------------------------
     Parameters for Dispersion (Grimme-D2) Correction:
     -------------------------------------------------
       atom      VdW radius       C_6     

        Ni         2.952        374.666
        Mn         2.952        374.666
        P          3.222        271.980
        O          2.536         24.284
        H          1.892          4.857

     number of k points=     1  Gaussian smearing, width (Ry)=  0.0100
                       cart. coord. in units 2pi/alat
        k(    1) = (   0.0000000   0.0000000   0.0000000), wk =   1.0000000

     Dense  grid:  1918138 G-vectors     FFT dimensions: ( 125, 135, 432)

     Smooth grid:   485265 G-vectors     FFT dimensions: (  80,  90, 288)

     Estimated max dynamical RAM per process >     320.12 MB

     Estimated total dynamical RAM >      20.01 GB
     Generating pointlists ...
     new r_m :   0.0866 (alat units)  1.5324 (a.u.) for type    1
     new r_m :   0.0775 (alat units)  1.3721 (a.u.) for type    2
     new r_m :   0.0650 (alat units)  1.1499 (a.u.) for type    3
     new r_m :   0.0435 (alat units)  0.7700 (a.u.) for type    4
     new r_m :   0.0435 (alat units)  0.7700 (a.u.) for type    5

     Initial potential from superposition of free atoms

     starting charge    1077.8900, renormalised to    1078.0000

     negative rho (up, down):  1.248E-03 4.566E-04
 
     Adding external electric field

     Computed dipole along edir(3) : 
        Dipole                1.6042 Ry au,          4.0774 Debye
        Dipole field          0.0010 Ry au, 
 
        Potential amp.       -0.1077 Ry
        Total length         54.2615 bohr
 
 
     Adding external electric field

     Computed dipole along edir(3) : 
        Dipole                1.6042 Ry au,          4.0774 Debye
        Dipole field          0.0010 Ry au, 
 
        Potential amp.       -0.1077 Ry
        Total length         54.2615 bohr
 
     Starting wfcs are  812 randomized atomic wfcs

     total cpu time spent up to now is       10.4 secs

     Self-consistent Calculation

     iteration #  1     ecut=    50.00 Ry     beta= 0.10
     Davidson diagonalization with overlap
     ethr =  1.00E-02,  avg # of iterations =  6.0

     negative rho (up, down):  3.274E-01 2.698E-07
 
     Adding external electric field

     Computed dipole along edir(3) : 
        Dipole               -3.5603 Ry au,         -9.0495 Debye
        Dipole field         -0.0022 Ry au, 
 
        Potential amp.        0.2389 Ry
        Total length         54.2615 bohr
 
 
     Adding external electric field

     Computed dipole along edir(3) : 
        Dipole               -3.5603 Ry au,         -9.0495 Debye
        Dipole field         -0.0022 Ry au, 
 
        Potential amp.        0.2389 Ry
        Total length         54.2615 bohr
 

     total cpu time spent up to now is       37.9 secs

     total energy              =   -7177.27161468 Ry
     estimated scf accuracy    <     733.54015527 Ry

     total magnetization       =   216.00 Bohr mag/cell
     absolute magnetization    =   296.67 Bohr mag/cell

     iteration #  2     ecut=    50.00 Ry     beta= 0.10
     Davidson diagonalization with overlap
     ethr =  1.00E-02,  avg # of iterations =  2.0

     negative rho (up, down):  3.143E-01 1.330E-07
 
     Adding external electric field

     Computed dipole along edir(3) : 
        Dipole               -2.3111 Ry au,         -5.8741 Debye
        Dipole field         -0.0014 Ry au, 
 
        Potential amp.        0.1551 Ry
        Total length         54.2615 bohr
 
 
     Adding external electric field

     Computed dipole along edir(3) : 
        Dipole               -2.3111 Ry au,         -5.8741 Debye
        Dipole field         -0.0014 Ry au, 
 
        Potential amp.        0.1551 Ry
        Total length         54.2615 bohr
 

     total cpu time spent up to now is       53.6 secs

     total energy              =   -7261.42830242 Ry
     estimated scf accuracy    <     219.47830727 Ry

     total magnetization       =   152.55 Bohr mag/cell
     absolute magnetization    =   201.40 Bohr mag/cell

     iteration #  3     ecut=    50.00 Ry     beta= 0.10
     Davidson diagonalization with overlap
     ethr =  1.00E-02,  avg # of iterations =  1.5

     negative rho (up, down):  2.783E-01 1.073E-07
 
     Adding external electric field

     Computed dipole along edir(3) : 
        Dipole               -2.0191 Ry au,         -5.1322 Debye
        Dipole field         -0.0012 Ry au, 
 
        Potential amp.        0.1355 Ry
        Total length         54.2615 bohr
 
 
     Adding external electric field

     Computed dipole along edir(3) : 
        Dipole               -2.0191 Ry au,         -5.1322 Debye
        Dipole field         -0.0012 Ry au, 
 
        Potential amp.        0.1355 Ry
        Total length         54.2615 bohr
 

     total cpu time spent up to now is       66.1 secs

     total energy              =   -7291.20237297 Ry
     estimated scf accuracy    <      97.43712180 Ry

     total magnetization       =   127.19 Bohr mag/cell
     absolute magnetization    =   180.30 Bohr mag/cell

     iteration #  4     ecut=    50.00 Ry     beta= 0.10
     Davidson diagonalization with overlap
     ethr =  9.04E-03,  avg # of iterations =  1.5

     negative rho (up, down):  2.121E-01 2.852E-08
 
     Adding external electric field

     Computed dipole along edir(3) : 
        Dipole               -1.9953 Ry au,         -5.0716 Debye
        Dipole field         -0.0012 Ry au, 
 
        Potential amp.        0.1339 Ry
        Total length         54.2615 bohr
 
 
     Adding external electric field

     Computed dipole along edir(3) : 
        Dipole               -1.9953 Ry au,         -5.0716 Debye
        Dipole field         -0.0012 Ry au, 
 
        Potential amp.        0.1339 Ry
        Total length         54.2615 bohr
 

     total cpu time spent up to now is       78.3 secs

     total energy              =   -7324.04268976 Ry
     estimated scf accuracy    <      79.46267337 Ry

     total magnetization       =   111.85 Bohr mag/cell
     absolute magnetization    =   166.01 Bohr mag/cell

     iteration #  5     ecut=    50.00 Ry     beta= 0.10
     Davidson diagonalization with overlap
     ethr =  7.37E-03,  avg # of iterations =  1.5

     negative rho (up, down):  1.260E-02 8.155E-07
 
     Adding external electric field

     Computed dipole along edir(3) : 
        Dipole               -1.6590 Ry au,         -4.2168 Debye
        Dipole field         -0.0010 Ry au, 
 
        Potential amp.        0.1113 Ry
        Total length         54.2615 bohr
 
 
     Adding external electric field

     Computed dipole along edir(3) : 
        Dipole               -1.6590 Ry au,         -4.2168 Debye
        Dipole field         -0.0010 Ry au, 
 
        Potential amp.        0.1113 Ry
        Total length         54.2615 bohr
 

     total cpu time spent up to now is       91.1 secs

     total energy              =   -7383.98604539 Ry
     estimated scf accuracy    <      63.43275134 Ry

     total magnetization       =    88.24 Bohr mag/cell
     absolute magnetization    =   147.07 Bohr mag/cell

     iteration #  6     ecut=    50.00 Ry     beta= 0.10
     Davidson diagonalization with overlap
     ethr =  5.88E-03,  avg # of iterations =  1.5

     negative rho (up, down):  6.606E-04 1.025E-03
 
     Adding external electric field

     Computed dipole along edir(3) : 
        Dipole               -1.3924 Ry au,         -3.5390 Debye
        Dipole field         -0.0009 Ry au, 
 
        Potential amp.        0.0934 Ry
        Total length         54.2615 bohr
 
 
     Adding external electric field

     Computed dipole along edir(3) : 
        Dipole               -1.3924 Ry au,         -3.5390 Debye
        Dipole field         -0.0009 Ry au, 
 
        Potential amp.        0.0934 Ry
        Total length         54.2615 bohr
 

     total cpu time spent up to now is      104.6 secs

     total energy              =   -7395.12427259 Ry
     estimated scf accuracy    <      12.01675707 Ry

     total magnetization       =    81.94 Bohr mag/cell
     absolute magnetization    =   117.48 Bohr mag/cell

     iteration #  7     ecut=    50.00 Ry     beta= 0.10
     Davidson diagonalization with overlap
     ethr =  1.11E-03,  avg # of iterations =  4.5

     negative rho (up, down):  6.223E-04 9.333E-04
 
     Adding external electric field

     Computed dipole along edir(3) : 
        Dipole               -1.3633 Ry au,         -3.4652 Debye
        Dipole field         -0.0008 Ry au, 
 
        Potential amp.        0.0915 Ry
        Total length         54.2615 bohr
 
 
     Adding external electric field

     Computed dipole along edir(3) : 
        Dipole               -1.3633 Ry au,         -3.4652 Debye
        Dipole field         -0.0008 Ry au, 
 
        Potential amp.        0.0915 Ry
        Total length         54.2615 bohr
 

     total cpu time spent up to now is      125.2 secs

     total energy              =   -7397.77775248 Ry
     estimated scf accuracy    <      18.75737664 Ry

     total magnetization       =    66.75 Bohr mag/cell
     absolute magnetization    =    84.66 Bohr mag/cell

     iteration #  8     ecut=    50.00 Ry     beta= 0.10
     Davidson diagonalization with overlap
     ethr =  1.11E-03,  avg # of iterations =  1.0

     negative rho (up, down):  4.385E-04 6.723E-04
 
     Adding external electric field

     Computed dipole along edir(3) : 
        Dipole               -1.2278 Ry au,         -3.1207 Debye
        Dipole field         -0.0008 Ry au, 
 
        Potential amp.        0.0824 Ry
        Total length         54.2615 bohr
 
 
     Adding external electric field

     Computed dipole along edir(3) : 
        Dipole               -1.2278 Ry au,         -3.1207 Debye
        Dipole field         -0.0008 Ry au, 
 
        Potential amp.        0.0824 Ry
        Total length         54.2615 bohr
 

     total cpu time spent up to now is      136.4 secs

     total energy              =   -7397.69708782 Ry
     estimated scf accuracy    <      16.98472241 Ry

     total magnetization       =    67.59 Bohr mag/cell
     absolute magnetization    =    85.11 Bohr mag/cell

     iteration #  9     ecut=    50.00 Ry     beta= 0.10
     Davidson diagonalization with overlap
     ethr =  1.11E-03,  avg # of iterations =  1.0

     negative rho (up, down):  1.355E-04 2.783E-04
 
     Adding external electric field

     Computed dipole along edir(3) : 
        Dipole               -0.8345 Ry au,         -2.1210 Debye
        Dipole field         -0.0005 Ry au, 
 
        Potential amp.        0.0560 Ry
        Total length         54.2615 bohr
 
 
     Adding external electric field

     Computed dipole along edir(3) : 
        Dipole               -0.8345 Ry au,         -2.1210 Debye
        Dipole field         -0.0005 Ry au, 
 
        Potential amp.        0.0560 Ry
        Total length         54.2615 bohr
 

     total cpu time spent up to now is      147.7 secs

     total energy              =   -7397.47545089 Ry
     estimated scf accuracy    <      13.16910788 Ry

     total magnetization       =    68.60 Bohr mag/cell
     absolute magnetization    =    85.11 Bohr mag/cell

     iteration # 10     ecut=    50.00 Ry     beta= 0.10
     Davidson diagonalization with overlap
     ethr =  1.11E-03,  avg # of iterations =  1.5

     negative rho (up, down):  1.710E-04 3.301E-04
 
     Adding external electric field

     Computed dipole along edir(3) : 
        Dipole               -0.9463 Ry au,         -2.4052 Debye
        Dipole field         -0.0006 Ry au, 
 
        Potential amp.        0.0635 Ry
        Total length         54.2615 bohr
 
 
     Adding external electric field

     Computed dipole along edir(3) : 
        Dipole               -0.9463 Ry au,         -2.4052 Debye
        Dipole field         -0.0006 Ry au, 
 
        Potential amp.        0.0635 Ry
        Total length         54.2615 bohr
 

     total cpu time spent up to now is      159.7 secs

     total energy              =   -7397.61167173 Ry
     estimated scf accuracy    <       5.17864921 Ry

     total magnetization       =    72.95 Bohr mag/cell
     absolute magnetization    =    86.38 Bohr mag/cell

     iteration # 11     ecut=    50.00 Ry     beta= 0.10
     Davidson diagonalization with overlap
     ethr =  4.80E-04,  avg # of iterations =  2.0

     negative rho (up, down):  1.379E-04 2.854E-04
 
     Adding external electric field

     Computed dipole along edir(3) : 
        Dipole               -0.8993 Ry au,         -2.2859 Debye
        Dipole field         -0.0006 Ry au, 
 
        Potential amp.        0.0604 Ry
        Total length         54.2615 bohr
 
 
     Adding external electric field

     Computed dipole along edir(3) : 
        Dipole               -0.8993 Ry au,         -2.2859 Debye
        Dipole field         -0.0006 Ry au, 
 
        Potential amp.        0.0604 Ry
        Total length         54.2615 bohr
 

     total cpu time spent up to now is      172.3 secs

     total energy              =   -7397.62130775 Ry
     estimated scf accuracy    <       3.87787130 Ry

     total magnetization       =    72.95 Bohr mag/cell
     absolute magnetization    =    86.02 Bohr mag/cell

     iteration # 12     ecut=    50.00 Ry     beta= 0.10
     Davidson diagonalization with overlap
     ethr =  3.60E-04,  avg # of iterations =  1.5

     negative rho (up, down):  7.821E-05 2.212E-04
 
     Adding external electric field

     Computed dipole along edir(3) : 
        Dipole               -0.7658 Ry au,         -1.9464 Debye
        Dipole field         -0.0005 Ry au, 
 
        Potential amp.        0.0514 Ry
        Total length         54.2615 bohr
 
 
     Adding external electric field

     Computed dipole along edir(3) : 
        Dipole               -0.7658 Ry au,         -1.9464 Debye
        Dipole field         -0.0005 Ry au, 
 
        Potential amp.        0.0514 Ry
        Total length         54.2615 bohr
 

     total cpu time spent up to now is      184.0 secs

     total energy              =   -7397.74353780 Ry
     estimated scf accuracy    <       1.09905916 Ry

     total magnetization       =    76.61 Bohr mag/cell
     absolute magnetization    =    88.10 Bohr mag/cell

     iteration # 13     ecut=    50.00 Ry     beta= 0.10
     Davidson diagonalization with overlap
     ethr =  1.02E-04,  avg # of iterations = 19.0

     negative rho (up, down):  2.068E-05 4.936E-05
 
     Adding external electric field

     Computed dipole along edir(3) : 
        Dipole               -0.5633 Ry au,         -1.4317 Debye
        Dipole field         -0.0003 Ry au, 
 
        Potential amp.        0.0378 Ry
        Total length         54.2615 bohr
 
 
     Adding external electric field

     Computed dipole along edir(3) : 
        Dipole               -0.5633 Ry au,         -1.4317 Debye
        Dipole field         -0.0003 Ry au, 
 
        Potential amp.        0.0378 Ry
        Total length         54.2615 bohr
 

     total cpu time spent up to now is      215.4 secs

     total energy              =   -7397.94088364 Ry
     estimated scf accuracy    <       0.61559688 Ry

     total magnetization       =    79.82 Bohr mag/cell
     absolute magnetization    =    87.81 Bohr mag/cell

     iteration # 14     ecut=    50.00 Ry     beta= 0.10
     Davidson diagonalization with overlap
     ethr =  5.71E-05,  avg # of iterations =  2.0

     negative rho (up, down):  9.486E-08 5.682E-06
 
     Adding external electric field

     Computed dipole along edir(3) : 
        Dipole               -0.3130 Ry au,         -0.7955 Debye
        Dipole field         -0.0002 Ry au, 
 
        Potential amp.        0.0210 Ry
        Total length         54.2615 bohr
 
 
     Adding external electric field

     Computed dipole along edir(3) : 
        Dipole               -0.3130 Ry au,         -0.7955 Debye
        Dipole field         -0.0002 Ry au, 
 
        Potential amp.        0.0210 Ry
        Total length         54.2615 bohr
 

     total cpu time spent up to now is      227.5 secs

     total energy              =   -7398.05025086 Ry
     estimated scf accuracy    <       0.55565357 Ry

     total magnetization       =    79.56 Bohr mag/cell
     absolute magnetization    =    85.59 Bohr mag/cell

     iteration # 15     ecut=    50.00 Ry     beta= 0.10
     Davidson diagonalization with overlap
     ethr =  5.15E-05,  avg # of iterations =  1.5

     negative rho (up, down):  1.195E-07 5.319E-06
 
     Adding external electric field

     Computed dipole along edir(3) : 
        Dipole               -0.3510 Ry au,         -0.8922 Debye
        Dipole field         -0.0002 Ry au, 
 
        Potential amp.        0.0236 Ry
        Total length         54.2615 bohr
 
 
     Adding external electric field

     Computed dipole along edir(3) : 
        Dipole               -0.3510 Ry au,         -0.8922 Debye
        Dipole field         -0.0002 Ry au, 
 
        Potential amp.        0.0236 Ry
        Total length         54.2615 bohr
 

     total cpu time spent up to now is      239.3 secs

     total energy              =   -7398.07363538 Ry
     estimated scf accuracy    <       1.43083293 Ry

     total magnetization       =    78.20 Bohr mag/cell
     absolute magnetization    =    81.76 Bohr mag/cell

     iteration # 16     ecut=    50.00 Ry     beta= 0.10
     Davidson diagonalization with overlap
     ethr =  5.15E-05,  avg # of iterations =  1.0

     negative rho (up, down):  2.240E-06 5.965E-06
 
     Adding external electric field

     Computed dipole along edir(3) : 
        Dipole               -0.3812 Ry au,         -0.9690 Debye
        Dipole field         -0.0002 Ry au, 
 
        Potential amp.        0.0256 Ry
        Total length         54.2615 bohr
 
 
     Adding external electric field

     Computed dipole along edir(3) : 
        Dipole               -0.3812 Ry au,         -0.9690 Debye
        Dipole field         -0.0002 Ry au, 
 
        Potential amp.        0.0256 Ry
        Total length         54.2615 bohr
 

     total cpu time spent up to now is      250.1 secs

     total energy              =   -7398.07969398 Ry
     estimated scf accuracy    <       0.85752681 Ry

     total magnetization       =    78.67 Bohr mag/cell
     absolute magnetization    =    82.19 Bohr mag/cell

     iteration # 17     ecut=    50.00 Ry     beta= 0.10
     Davidson diagonalization with overlap
     ethr =  5.15E-05,  avg # of iterations =  1.0

     negative rho (up, down):  3.057E-06 5.655E-06
 
     Adding external electric field

     Computed dipole along edir(3) : 
        Dipole               -0.4004 Ry au,         -1.0177 Debye
        Dipole field         -0.0002 Ry au, 
 
        Potential amp.        0.0269 Ry
        Total length         54.2615 bohr
 
 
     Adding external electric field

     Computed dipole along edir(3) : 
        Dipole               -0.4004 Ry au,         -1.0177 Debye
        Dipole field         -0.0002 Ry au, 
 
        Potential amp.        0.0269 Ry
        Total length         54.2615 bohr
 

     total cpu time spent up to now is      260.9 secs

     total energy              =   -7398.08899726 Ry
     estimated scf accuracy    <       0.44385867 Ry

     total magnetization       =    78.75 Bohr mag/cell
     absolute magnetization    =    81.17 Bohr mag/cell

     iteration # 18     ecut=    50.00 Ry     beta= 0.10
     Davidson diagonalization with overlap
     ethr =  4.12E-05,  avg # of iterations =  1.0

     negative rho (up, down):  9.149E-07 7.593E-07
 
     Adding external electric field

     Computed dipole along edir(3) : 
        Dipole               -0.4864 Ry au,         -1.2363 Debye
        Dipole field         -0.0003 Ry au, 
 
        Potential amp.        0.0326 Ry
        Total length         54.2615 bohr
 
 
     Adding external electric field

     Computed dipole along edir(3) : 
        Dipole               -0.4864 Ry au,         -1.2363 Debye
        Dipole field         -0.0003 Ry au, 
 
        Potential amp.        0.0326 Ry
        Total length         54.2615 bohr
 

     total cpu time spent up to now is      272.0 secs

     total energy              =   -7398.08297133 Ry
     estimated scf accuracy    <       0.35914855 Ry

     total magnetization       =    78.76 Bohr mag/cell
     absolute magnetization    =    80.82 Bohr mag/cell

     iteration # 19     ecut=    50.00 Ry     beta= 0.10
     Davidson diagonalization with overlap
     ethr =  3.33E-05,  avg # of iterations =  1.5

     negative rho (up, down):  2.006E-06 1.290E-06
 
     Adding external electric field

     Computed dipole along edir(3) : 
        Dipole               -0.4992 Ry au,         -1.2687 Debye
        Dipole field         -0.0003 Ry au, 
 
        Potential amp.        0.0335 Ry
        Total length         54.2615 bohr
 
 
     Adding external electric field

     Computed dipole along edir(3) : 
        Dipole               -0.4992 Ry au,         -1.2687 Debye
        Dipole field         -0.0003 Ry au, 
 
        Potential amp.        0.0335 Ry
        Total length         54.2615 bohr
 

     total cpu time spent up to now is      283.9 secs

     total energy              =   -7398.08529763 Ry
     estimated scf accuracy    <       0.12125416 Ry

     total magnetization       =    78.86 Bohr mag/cell
     absolute magnetization    =    80.87 Bohr mag/cell

     iteration # 20     ecut=    50.00 Ry     beta= 0.10
     Davidson diagonalization with overlap
     ethr =  1.12E-05,  avg # of iterations =  2.0

     negative rho (up, down):  9.938E-06 3.024E-07
 
     Adding external electric field

     Computed dipole along edir(3) : 
        Dipole               -0.4871 Ry au,         -1.2381 Debye
        Dipole field         -0.0003 Ry au, 
 
        Potential amp.        0.0327 Ry
        Total length         54.2615 bohr
 
 
     Adding external electric field

     Computed dipole along edir(3) : 
        Dipole               -0.4871 Ry au,         -1.2381 Debye
        Dipole field         -0.0003 Ry au, 
 
        Potential amp.        0.0327 Ry
        Total length         54.2615 bohr
 

     total cpu time spent up to now is      296.3 secs

     total energy              =   -7398.08177973 Ry
     estimated scf accuracy    <       0.09729311 Ry

     total magnetization       =    78.89 Bohr mag/cell
     absolute magnetization    =    80.76 Bohr mag/cell

     iteration # 21     ecut=    50.00 Ry     beta= 0.10
     Davidson diagonalization with overlap
     ethr =  9.03E-06,  avg # of iterations =  9.0

     negative rho (up, down):  2.320E-05 3.031E-07
 
     Adding external electric field

     Computed dipole along edir(3) : 
        Dipole               -0.5047 Ry au,         -1.2829 Debye
        Dipole field         -0.0003 Ry au, 
 
        Potential amp.        0.0339 Ry
        Total length         54.2615 bohr
 
 
     Adding external electric field

     Computed dipole along edir(3) : 
        Dipole               -0.5047 Ry au,         -1.2829 Debye
        Dipole field         -0.0003 Ry au, 
 
        Potential amp.        0.0339 Ry
        Total length         54.2615 bohr
 

     total cpu time spent up to now is      312.3 secs

     total energy              =   -7398.07948649 Ry
     estimated scf accuracy    <       0.12791727 Ry

     total magnetization       =    79.13 Bohr mag/cell
     absolute magnetization    =    80.91 Bohr mag/cell

     iteration # 22     ecut=    50.00 Ry     beta= 0.10
     Davidson diagonalization with overlap
     ethr =  9.03E-06,  avg # of iterations =  2.0

     negative rho (up, down):  4.323E-06 8.545E-10
 
     Adding external electric field

     Computed dipole along edir(3) : 
        Dipole               -0.4732 Ry au,         -1.2029 Debye
        Dipole field         -0.0003 Ry au, 
 
        Potential amp.        0.0318 Ry
        Total length         54.2615 bohr
 
 
     Adding external electric field

     Computed dipole along edir(3) : 
        Dipole               -0.4732 Ry au,         -1.2029 Debye
        Dipole field         -0.0003 Ry au, 
 
        Potential amp.        0.0318 Ry
        Total length         54.2615 bohr
 

     total cpu time spent up to now is      325.2 secs

     total energy              =   -7398.08056935 Ry
     estimated scf accuracy    <       0.08398952 Ry

     total magnetization       =    78.96 Bohr mag/cell
     absolute magnetization    =    80.63 Bohr mag/cell

     iteration # 23     ecut=    50.00 Ry     beta= 0.10
     Davidson diagonalization with overlap
     ethr =  7.79E-06,  avg # of iterations =  1.5

     negative rho (up, down):  1.420E-05 1.092E-10
 
     Adding external electric field

     Computed dipole along edir(3) : 
        Dipole               -0.4466 Ry au,         -1.1351 Debye
        Dipole field         -0.0003 Ry au, 
 
        Potential amp.        0.0300 Ry
        Total length         54.2615 bohr
 
 
     Adding external electric field

     Computed dipole along edir(3) : 
        Dipole               -0.4466 Ry au,         -1.1351 Debye
        Dipole field         -0.0003 Ry au, 
 
        Potential amp.        0.0300 Ry
        Total length         54.2615 bohr
 

     total cpu time spent up to now is      338.0 secs

     total energy              =   -7398.07728810 Ry
     estimated scf accuracy    <       0.09850965 Ry

     total magnetization       =    78.95 Bohr mag/cell
     absolute magnetization    =    80.70 Bohr mag/cell

     iteration # 24     ecut=    50.00 Ry     beta= 0.10
     Davidson diagonalization with overlap
     c_bands:  2 eigenvalues not converged
     ethr =  7.79E-06,  avg # of iterations = 11.0

     negative rho (up, down):  8.240E-05 9.351E-07
 
     Adding external electric field

     Computed dipole along edir(3) : 
        Dipole               -0.4937 Ry au,         -1.2548 Debye
        Dipole field         -0.0003 Ry au, 
 
        Potential amp.        0.0331 Ry
        Total length         54.2615 bohr
 
 
     Adding external electric field

     Computed dipole along edir(3) : 
        Dipole               -0.4937 Ry au,         -1.2548 Debye
        Dipole field         -0.0003 Ry au, 
 
        Potential amp.        0.0331 Ry
        Total length         54.2615 bohr
 

     total cpu time spent up to now is      357.0 secs

     total energy              =   -7398.07421251 Ry
     estimated scf accuracy    <       0.10182194 Ry

     total magnetization       =    78.99 Bohr mag/cell
     absolute magnetization    =    80.67 Bohr mag/cell

     iteration # 25     ecut=    50.00 Ry     beta= 0.10
     Davidson diagonalization with overlap
     c_bands:  1 eigenvalues not converged
     ethr =  7.79E-06,  avg # of iterations = 11.0

     negative rho (up, down):  5.607E-05 2.864E-06
 
     Adding external electric field

     Computed dipole along edir(3) : 
        Dipole               -0.4470 Ry au,         -1.1362 Debye
        Dipole field         -0.0003 Ry au, 
 
        Potential amp.        0.0300 Ry
        Total length         54.2615 bohr
 
 
     Adding external electric field

     Computed dipole along edir(3) : 
        Dipole               -0.4470 Ry au,         -1.1362 Debye
        Dipole field         -0.0003 Ry au, 
 
        Potential amp.        0.0300 Ry
        Total length         54.2615 bohr
 

     total cpu time spent up to now is      375.4 secs

     total energy              =   -7398.07865406 Ry
     estimated scf accuracy    <       0.03976907 Ry

     total magnetization       =    79.00 Bohr mag/cell
     absolute magnetization    =    80.56 Bohr mag/cell

     iteration # 26     ecut=    50.00 Ry     beta= 0.10
     Davidson diagonalization with overlap
     c_bands:  3 eigenvalues not converged
     ethr =  3.69E-06,  avg # of iterations = 11.0

     negative rho (up, down):  9.209E-05 1.106E-05
 
     Adding external electric field

     Computed dipole along edir(3) : 
        Dipole               -0.4434 Ry au,         -1.1271 Debye
        Dipole field         -0.0003 Ry au, 
 
        Potential amp.        0.0298 Ry
        Total length         54.2615 bohr
 
 
     Adding external electric field

     Computed dipole along edir(3) : 
        Dipole               -0.4434 Ry au,         -1.1271 Debye
        Dipole field         -0.0003 Ry au, 
 
        Potential amp.        0.0298 Ry
        Total length         54.2615 bohr
 

     total cpu time spent up to now is      393.0 secs

     total energy              =   -7398.07827763 Ry
     estimated scf accuracy    <       0.04297591 Ry

     total magnetization       =    78.97 Bohr mag/cell
     absolute magnetization    =    80.47 Bohr mag/cell

     iteration # 27     ecut=    50.00 Ry     beta= 0.10
     Davidson diagonalization with overlap
     ethr =  3.69E-06,  avg # of iterations =  7.5

     negative rho (up, down):  5.390E-05 5.646E-05
 
     Adding external electric field

     Computed dipole along edir(3) : 
        Dipole               -0.3807 Ry au,         -0.9677 Debye
        Dipole field         -0.0002 Ry au, 
 
        Potential amp.        0.0256 Ry
        Total length         54.2615 bohr
 
 
     Adding external electric field

     Computed dipole along edir(3) : 
        Dipole               -0.3807 Ry au,         -0.9677 Debye
        Dipole field         -0.0002 Ry au, 
 
        Potential amp.        0.0256 Ry
        Total length         54.2615 bohr
 

     total cpu time spent up to now is      409.6 secs

     total energy              =   -7398.08035462 Ry
     estimated scf accuracy    <       0.02766344 Ry

     total magnetization       =    78.83 Bohr mag/cell
     absolute magnetization    =    80.29 Bohr mag/cell

     iteration # 28     ecut=    50.00 Ry     beta= 0.10
     Davidson diagonalization with overlap
     c_bands:  4 eigenvalues not converged
     ethr =  2.57E-06,  avg # of iterations = 21.5

     negative rho (up, down):  5.635E-05 5.395E-05
 
     Adding external electric field

     Computed dipole along edir(3) : 
        Dipole               -0.3736 Ry au,         -0.9496 Debye
        Dipole field         -0.0002 Ry au, 
 
        Potential amp.        0.0251 Ry
        Total length         54.2615 bohr
 
 
     Adding external electric field

     Computed dipole along edir(3) : 
        Dipole               -0.3736 Ry au,         -0.9496 Debye
        Dipole field         -0.0002 Ry au, 
 
        Potential amp.        0.0251 Ry
        Total length         54.2615 bohr
 

     total cpu time spent up to now is      439.7 secs

     total energy              =   -7398.08159997 Ry
     estimated scf accuracy    <       0.07201207 Ry

     total magnetization       =    78.92 Bohr mag/cell
     absolute magnetization    =    80.58 Bohr mag/cell

     iteration # 29     ecut=    50.00 Ry     beta= 0.10
     Davidson diagonalization with overlap
     ethr =  2.57E-06,  avg # of iterations =  2.5

     negative rho (up, down):  9.994E-05 5.061E-05
 
     Adding external electric field

     Computed dipole along edir(3) : 
        Dipole               -0.4006 Ry au,         -1.0182 Debye
        Dipole field         -0.0002 Ry au, 
 
        Potential amp.        0.0269 Ry
        Total length         54.2615 bohr
 
 
     Adding external electric field

     Computed dipole along edir(3) : 
        Dipole               -0.4006 Ry au,         -1.0182 Debye
        Dipole field         -0.0002 Ry au, 
 
        Potential amp.        0.0269 Ry
        Total length         54.2615 bohr
 

     total cpu time spent up to now is      452.9 secs

     total energy              =   -7398.07998781 Ry
     estimated scf accuracy    <       0.06395535 Ry

     total magnetization       =    78.90 Bohr mag/cell
     absolute magnetization    =    80.53 Bohr mag/cell

     iteration # 30     ecut=    50.00 Ry     beta= 0.10
     Davidson diagonalization with overlap
     ethr =  2.57E-06,  avg # of iterations =  2.0

     negative rho (up, down):  3.830E-05 1.721E-05
 
     Adding external electric field

     Computed dipole along edir(3) : 
        Dipole               -0.4041 Ry au,         -1.0272 Debye
        Dipole field         -0.0002 Ry au, 
 
        Potential amp.        0.0271 Ry
        Total length         54.2615 bohr
 
 
     Adding external electric field

     Computed dipole along edir(3) : 
        Dipole               -0.4041 Ry au,         -1.0272 Debye
        Dipole field         -0.0002 Ry au, 
 
        Potential amp.        0.0271 Ry
        Total length         54.2615 bohr
 

     total cpu time spent up to now is      467.0 secs

     total energy              =   -7398.08076252 Ry
     estimated scf accuracy    <       0.02568714 Ry

     total magnetization       =    78.74 Bohr mag/cell
     absolute magnetization    =    80.28 Bohr mag/cell

     iteration # 31     ecut=    50.00 Ry     beta= 0.10
     Davidson diagonalization with overlap
     ethr =  2.38E-06,  avg # of iterations =  1.5

     negative rho (up, down):  3.773E-05 2.853E-05
 
     Adding external electric field

     Computed dipole along edir(3) : 
        Dipole               -0.3917 Ry au,         -0.9956 Debye
        Dipole field         -0.0002 Ry au, 
 
        Potential amp.        0.0263 Ry
        Total length         54.2615 bohr
 
 
     Adding external electric field

     Computed dipole along edir(3) : 
        Dipole               -0.3917 Ry au,         -0.9956 Debye
        Dipole field         -0.0002 Ry au, 
 
        Potential amp.        0.0263 Ry
        Total length         54.2615 bohr
 

     total cpu time spent up to now is      480.1 secs

     total energy              =   -7398.08106181 Ry
     estimated scf accuracy    <       0.02254034 Ry

     total magnetization       =    78.65 Bohr mag/cell
     absolute magnetization    =    80.24 Bohr mag/cell

     iteration # 32     ecut=    50.00 Ry     beta= 0.10
     Davidson diagonalization with overlap
     ethr =  2.09E-06,  avg # of iterations =  2.0

     negative rho (up, down):  4.273E-05 3.374E-05
 
     Adding external electric field

     Computed dipole along edir(3) : 
        Dipole               -0.2696 Ry au,         -0.6852 Debye
        Dipole field         -0.0002 Ry au, 
 
        Potential amp.        0.0181 Ry
        Total length         54.2615 bohr
 
 
     Adding external electric field

     Computed dipole along edir(3) : 
        Dipole               -0.2696 Ry au,         -0.6852 Debye
        Dipole field         -0.0002 Ry au, 
 
        Potential amp.        0.0181 Ry
        Total length         54.2615 bohr
 

     total cpu time spent up to now is      492.8 secs

     total energy              =   -7398.08021154 Ry
     estimated scf accuracy    <       0.01800832 Ry

     total magnetization       =    78.63 Bohr mag/cell
     absolute magnetization    =    80.28 Bohr mag/cell

     iteration # 33     ecut=    50.00 Ry     beta= 0.10
     Davidson diagonalization with overlap
     ethr =  1.67E-06,  avg # of iterations =  3.5

     negative rho (up, down):  1.438E-04 1.267E-04
 
     Adding external electric field

     Computed dipole along edir(3) : 
        Dipole               -0.2758 Ry au,         -0.7011 Debye
        Dipole field         -0.0002 Ry au, 
 
        Potential amp.        0.0185 Ry
        Total length         54.2615 bohr
 
 
     Adding external electric field

     Computed dipole along edir(3) : 
        Dipole               -0.2758 Ry au,         -0.7011 Debye
        Dipole field         -0.0002 Ry au, 
 
        Potential amp.        0.0185 Ry
        Total length         54.2615 bohr
 

     total cpu time spent up to now is      505.4 secs

     total energy              =   -7398.08041095 Ry
     estimated scf accuracy    <       0.04748836 Ry

     total magnetization       =    78.61 Bohr mag/cell
     absolute magnetization    =    80.33 Bohr mag/cell

     iteration # 34     ecut=    50.00 Ry     beta= 0.10
     Davidson diagonalization with overlap
     ethr =  1.67E-06,  avg # of iterations =  2.0

     negative rho (up, down):  4.669E-04 4.028E-04
 
     Adding external electric field

     Computed dipole along edir(3) : 
        Dipole               -0.2590 Ry au,         -0.6582 Debye
        Dipole field         -0.0002 Ry au, 
 
        Potential amp.        0.0174 Ry
        Total length         54.2615 bohr
 
 
     Adding external electric field

     Computed dipole along edir(3) : 
        Dipole               -0.2590 Ry au,         -0.6582 Debye
        Dipole field         -0.0002 Ry au, 
 
        Potential amp.        0.0174 Ry
        Total length         54.2615 bohr
 

     total cpu time spent up to now is      517.5 secs

     total energy              =   -7398.07954269 Ry
     estimated scf accuracy    <       0.02670686 Ry

     total magnetization       =    78.64 Bohr mag/cell
     absolute magnetization    =    80.33 Bohr mag/cell

     iteration # 35     ecut=    50.00 Ry     beta= 0.10
     Davidson diagonalization with overlap
     ethr =  1.67E-06,  avg # of iterations =  2.0

     negative rho (up, down):  7.300E-04 5.883E-04
 
     Adding external electric field

     Computed dipole along edir(3) : 
        Dipole               -0.1905 Ry au,         -0.4842 Debye
        Dipole field         -0.0001 Ry au, 
 
        Potential amp.        0.0128 Ry
        Total length         54.2615 bohr
 
 
     Adding external electric field

     Computed dipole along edir(3) : 
        Dipole               -0.1905 Ry au,         -0.4842 Debye
        Dipole field         -0.0001 Ry au, 
 
        Potential amp.        0.0128 Ry
        Total length         54.2615 bohr
 

     total cpu time spent up to now is      530.3 secs

     total energy              =   -7398.07933617 Ry
     estimated scf accuracy    <       0.01642526 Ry

     total magnetization       =    78.71 Bohr mag/cell
     absolute magnetization    =    80.39 Bohr mag/cell

     iteration # 36     ecut=    50.00 Ry     beta= 0.10
     Davidson diagonalization with overlap
     c_bands:  4 eigenvalues not converged
     ethr =  1.52E-06,  avg # of iterations = 12.0

     negative rho (up, down):  1.486E-03 1.316E-03
 
     Adding external electric field

     Computed dipole along edir(3) : 
        Dipole               -0.1046 Ry au,         -0.2659 Debye
        Dipole field         -0.0001 Ry au, 
 
        Potential amp.        0.0070 Ry
        Total length         54.2615 bohr
 
 
     Adding external electric field

     Computed dipole along edir(3) : 
        Dipole               -0.1046 Ry au,         -0.2659 Debye
        Dipole field         -0.0001 Ry au, 
 
        Potential amp.        0.0070 Ry
        Total length         54.2615 bohr
 

     total cpu time spent up to now is      550.0 secs

     total energy              =   -7398.07911549 Ry
     estimated scf accuracy    <       0.01268492 Ry

     total magnetization       =    78.61 Bohr mag/cell
     absolute magnetization    =    80.32 Bohr mag/cell

     iteration # 37     ecut=    50.00 Ry     beta= 0.10
     Davidson diagonalization with overlap
     c_bands:  3 eigenvalues not converged
     c_bands:  1 eigenvalues not converged
     ethr =  1.18E-06,  avg # of iterations = 20.0

     negative rho (up, down):  7.923E-04 7.370E-04
 
     Adding external electric field

     Computed dipole along edir(3) : 
        Dipole               -0.0832 Ry au,         -0.2114 Debye
        Dipole field         -0.0001 Ry au, 
 
        Potential amp.        0.0056 Ry
        Total length         54.2615 bohr
 
 
     Adding external electric field

     Computed dipole along edir(3) : 
        Dipole               -0.0832 Ry au,         -0.2114 Debye
        Dipole field         -0.0001 Ry au, 
 
        Potential amp.        0.0056 Ry
        Total length         54.2615 bohr
 

     total cpu time spent up to now is      572.6 secs

     total energy              =   -7398.07902393 Ry
     estimated scf accuracy    <       0.01174020 Ry

     total magnetization       =    78.63 Bohr mag/cell
     absolute magnetization    =    80.36 Bohr mag/cell

     iteration # 38     ecut=    50.00 Ry     beta= 0.10
     Davidson diagonalization with overlap
     c_bands:  2 eigenvalues not converged
     ethr =  1.09E-06,  avg # of iterations = 11.0

     negative rho (up, down):  1.139E-03 1.176E-03
 
     Adding external electric field

     Computed dipole along edir(3) : 
        Dipole               -0.0092 Ry au,         -0.0235 Debye
        Dipole field         -0.0000 Ry au, 
 
        Potential amp.        0.0006 Ry
        Total length         54.2615 bohr
 
 
     Adding external electric field

     Computed dipole along edir(3) : 
        Dipole               -0.0092 Ry au,         -0.0235 Debye
        Dipole field         -0.0000 Ry au, 
 
        Potential amp.        0.0006 Ry
        Total length         54.2615 bohr
 

     total cpu time spent up to now is      589.7 secs

     total energy              =   -7398.07902047 Ry
     estimated scf accuracy    <       0.01020005 Ry

     total magnetization       =    78.71 Bohr mag/cell
     absolute magnetization    =    80.44 Bohr mag/cell

     iteration # 39     ecut=    50.00 Ry     beta= 0.10
     Davidson diagonalization with overlap
     ethr =  9.46E-07,  avg # of iterations =  2.5

     negative rho (up, down):  2.394E-04 2.858E-04
 
     Adding external electric field

     Computed dipole along edir(3) : 
        Dipole                0.0203 Ry au,          0.0516 Debye
        Dipole field          0.0000 Ry au, 
 
        Potential amp.       -0.0014 Ry
        Total length         54.2615 bohr
 
 
     Adding external electric field

     Computed dipole along edir(3) : 
        Dipole                0.0203 Ry au,          0.0516 Debye
        Dipole field          0.0000 Ry au, 
 
        Potential amp.       -0.0014 Ry
        Total length         54.2615 bohr
 

     total cpu time spent up to now is      602.6 secs

     total energy              =   -7398.07870843 Ry
     estimated scf accuracy    <       0.00907998 Ry

     total magnetization       =    78.65 Bohr mag/cell
     absolute magnetization    =    80.36 Bohr mag/cell

     iteration # 40     ecut=    50.00 Ry     beta= 0.10
     Davidson diagonalization with overlap
     ethr =  8.42E-07,  avg # of iterations =  1.5

     negative rho (up, down):  2.831E-04 2.646E-04
 
     Adding external electric field

     Computed dipole along edir(3) : 
        Dipole                0.0570 Ry au,          0.1450 Debye
        Dipole field          0.0000 Ry au, 
 
        Potential amp.       -0.0038 Ry
        Total length         54.2615 bohr
 
 
     Adding external electric field

     Computed dipole along edir(3) : 
        Dipole                0.0570 Ry au,          0.1450 Debye
        Dipole field          0.0000 Ry au, 
 
        Potential amp.       -0.0038 Ry
        Total length         54.2615 bohr
 

     total cpu time spent up to now is      614.8 secs

     total energy              =   -7398.07856920 Ry
     estimated scf accuracy    <       0.00743009 Ry

     total magnetization       =    78.72 Bohr mag/cell
     absolute magnetization    =    80.37 Bohr mag/cell

     iteration # 41     ecut=    50.00 Ry     beta= 0.10
     Davidson diagonalization with overlap
     ethr =  6.89E-07,  avg # of iterations =  2.0

     negative rho (up, down):  2.527E-05 2.223E-05
 
     Adding external electric field

     Computed dipole along edir(3) : 
        Dipole                0.0220 Ry au,          0.0559 Debye
        Dipole field          0.0000 Ry au, 
 
        Potential amp.       -0.0015 Ry
        Total length         54.2615 bohr
 
 
     Adding external electric field

     Computed dipole along edir(3) : 
        Dipole                0.0220 Ry au,          0.0559 Debye
        Dipole field          0.0000 Ry au, 
 
        Potential amp.       -0.0015 Ry
        Total length         54.2615 bohr
 

     total cpu time spent up to now is      628.2 secs

     total energy              =   -7398.07804878 Ry
     estimated scf accuracy    <       0.00637663 Ry

     total magnetization       =    78.68 Bohr mag/cell
     absolute magnetization    =    80.25 Bohr mag/cell

     iteration # 42     ecut=    50.00 Ry     beta= 0.10
     Davidson diagonalization with overlap
     ethr =  5.92E-07,  avg # of iterations =  2.0

     negative rho (up, down):  2.253E-05 1.443E-05
 
     Adding external electric field

     Computed dipole along edir(3) : 
        Dipole                0.0173 Ry au,          0.0440 Debye
        Dipole field          0.0000 Ry au, 
 
        Potential amp.       -0.0012 Ry
        Total length         54.2615 bohr
 
 
     Adding external electric field

     Computed dipole along edir(3) : 
        Dipole                0.0173 Ry au,          0.0440 Debye
        Dipole field          0.0000 Ry au, 
 
        Potential amp.       -0.0012 Ry
        Total length         54.2615 bohr
 

     total cpu time spent up to now is      641.9 secs

     total energy              =   -7398.07798297 Ry
     estimated scf accuracy    <       0.00585941 Ry

     total magnetization       =    78.81 Bohr mag/cell
     absolute magnetization    =    80.35 Bohr mag/cell

     iteration # 43     ecut=    50.00 Ry     beta= 0.10
     Davidson diagonalization with overlap
     ethr =  5.44E-07,  avg # of iterations =  6.0

     negative rho (up, down):  1.684E-05 8.947E-06
 
     Adding external electric field

     Computed dipole along edir(3) : 
        Dipole                0.0175 Ry au,          0.0446 Debye
        Dipole field          0.0000 Ry au, 
 
        Potential amp.       -0.0012 Ry
        Total length         54.2615 bohr
 
 
     Adding external electric field

     Computed dipole along edir(3) : 
        Dipole                0.0175 Ry au,          0.0446 Debye
        Dipole field          0.0000 Ry au, 
 
        Potential amp.       -0.0012 Ry
        Total length         54.2615 bohr
 

     total cpu time spent up to now is      657.1 secs

     total energy              =   -7398.07806002 Ry
     estimated scf accuracy    <       0.00304685 Ry

     total magnetization       =    78.79 Bohr mag/cell
     absolute magnetization    =    80.32 Bohr mag/cell

     iteration # 44     ecut=    50.00 Ry     beta= 0.10
     Davidson diagonalization with overlap
     ethr =  2.83E-07,  avg # of iterations =  2.0

     negative rho (up, down):  4.085E-06 1.978E-06
 
     Adding external electric field

     Computed dipole along edir(3) : 
        Dipole               -0.0067 Ry au,         -0.0171 Debye
        Dipole field         -0.0000 Ry au, 
 
        Potential amp.        0.0005 Ry
        Total length         54.2615 bohr
 
 
     Adding external electric field

     Computed dipole along edir(3) : 
        Dipole               -0.0067 Ry au,         -0.0171 Debye
        Dipole field         -0.0000 Ry au, 
 
        Potential amp.        0.0005 Ry
        Total length         54.2615 bohr
 

     total cpu time spent up to now is      669.5 secs

     total energy              =   -7398.07819271 Ry
     estimated scf accuracy    <       0.00259835 Ry

     total magnetization       =    78.79 Bohr mag/cell
     absolute magnetization    =    80.32 Bohr mag/cell

     iteration # 45     ecut=    50.00 Ry     beta= 0.10
     Davidson diagonalization with overlap
     ethr =  2.41E-07,  avg # of iterations =  2.0

     negative rho (up, down):  7.666E-06 3.734E-06
 
     Adding external electric field

     Computed dipole along edir(3) : 
        Dipole               -0.0138 Ry au,         -0.0351 Debye
        Dipole field         -0.0000 Ry au, 
 
        Potential amp.        0.0009 Ry
        Total length         54.2615 bohr
 
 
     Adding external electric field

     Computed dipole along edir(3) : 
        Dipole               -0.0138 Ry au,         -0.0351 Debye
        Dipole field         -0.0000 Ry au, 
 
        Potential amp.        0.0009 Ry
        Total length         54.2615 bohr
 

     total cpu time spent up to now is      682.5 secs

     total energy              =   -7398.07840468 Ry
     estimated scf accuracy    <       0.00225275 Ry

     total magnetization       =    78.82 Bohr mag/cell
     absolute magnetization    =    80.39 Bohr mag/cell

     iteration # 46     ecut=    50.00 Ry     beta= 0.10
     Davidson diagonalization with overlap
     ethr =  2.09E-07,  avg # of iterations =  1.5

     negative rho (up, down):  3.359E-05 1.982E-05
 
     Adding external electric field

     Computed dipole along edir(3) : 
        Dipole                0.0120 Ry au,          0.0304 Debye
        Dipole field          0.0000 Ry au, 
 
        Potential amp.       -0.0008 Ry
        Total length         54.2615 bohr
 
 
     Adding external electric field

     Computed dipole along edir(3) : 
        Dipole                0.0120 Ry au,          0.0304 Debye
        Dipole field          0.0000 Ry au, 
 
        Potential amp.       -0.0008 Ry
        Total length         54.2615 bohr
 

     total cpu time spent up to now is      694.9 secs

     total energy              =   -7398.07852377 Ry
     estimated scf accuracy    <       0.00148498 Ry

     total magnetization       =    78.81 Bohr mag/cell
     absolute magnetization    =    80.42 Bohr mag/cell

     iteration # 47     ecut=    50.00 Ry     beta= 0.10
     Davidson diagonalization with overlap
     ethr =  1.38E-07,  avg # of iterations =  2.0

     negative rho (up, down):  3.633E-04 3.556E-04
 
     Adding external electric field

     Computed dipole along edir(3) : 
        Dipole                0.0467 Ry au,          0.1187 Debye
        Dipole field          0.0000 Ry au, 
 
        Potential amp.       -0.0031 Ry
        Total length         54.2615 bohr
 
 
     Adding external electric field

     Computed dipole along edir(3) : 
        Dipole                0.0467 Ry au,          0.1187 Debye
        Dipole field          0.0000 Ry au, 
 
        Potential amp.       -0.0031 Ry
        Total length         54.2615 bohr
 

     total cpu time spent up to now is      707.7 secs

     total energy              =   -7398.07853500 Ry
     estimated scf accuracy    <       0.00090070 Ry

     total magnetization       =    78.78 Bohr mag/cell
     absolute magnetization    =    80.41 Bohr mag/cell

     iteration # 48     ecut=    50.00 Ry     beta= 0.10
     Davidson diagonalization with overlap
     ethr =  8.36E-08,  avg # of iterations =  7.5

     negative rho (up, down):  6.858E-04 6.663E-04
 
     Adding external electric field

     Computed dipole along edir(3) : 
        Dipole                0.0745 Ry au,          0.1893 Debye
        Dipole field          0.0000 Ry au, 
 
        Potential amp.       -0.0050 Ry
        Total length         54.2615 bohr
 
 
     Adding external electric field

     Computed dipole along edir(3) : 
        Dipole                0.0745 Ry au,          0.1893 Debye
        Dipole field          0.0000 Ry au, 
 
        Potential amp.       -0.0050 Ry
        Total length         54.2615 bohr
 

     total cpu time spent up to now is      723.9 secs

     total energy              =   -7398.07860776 Ry
     estimated scf accuracy    <       0.00077165 Ry

     total magnetization       =    78.79 Bohr mag/cell
     absolute magnetization    =    80.44 Bohr mag/cell

     iteration # 49     ecut=    50.00 Ry     beta= 0.10
     Davidson diagonalization with overlap
     ethr =  7.16E-08,  avg # of iterations =  2.0

     negative rho (up, down):  1.461E-03 1.419E-03
 
     Adding external electric field

     Computed dipole along edir(3) : 
        Dipole                0.1037 Ry au,          0.2636 Debye
        Dipole field          0.0001 Ry au, 
 
        Potential amp.       -0.0070 Ry
        Total length         54.2615 bohr
 
 
     Adding external electric field

     Computed dipole along edir(3) : 
        Dipole                0.1037 Ry au,          0.2636 Debye
        Dipole field          0.0001 Ry au, 
 
        Potential amp.       -0.0070 Ry
        Total length         54.2615 bohr
 

     total cpu time spent up to now is      736.9 secs

     total energy              =   -7398.07867386 Ry
     estimated scf accuracy    <       0.00053446 Ry

     total magnetization       =    78.78 Bohr mag/cell
     absolute magnetization    =    80.42 Bohr mag/cell

     iteration # 50     ecut=    50.00 Ry     beta= 0.10
     Davidson diagonalization with overlap
     ethr =  4.96E-08,  avg # of iterations =  2.0

     negative rho (up, down):  2.779E-03 2.653E-03
 
     Adding external electric field

     Computed dipole along edir(3) : 
        Dipole                0.1266 Ry au,          0.3218 Debye
        Dipole field          0.0001 Ry au, 
 
        Potential amp.       -0.0085 Ry
        Total length         54.2615 bohr
 
 
     Adding external electric field

     Computed dipole along edir(3) : 
        Dipole                0.1266 Ry au,          0.3218 Debye
        Dipole field          0.0001 Ry au, 
 
        Potential amp.       -0.0085 Ry
        Total length         54.2615 bohr
 

     total cpu time spent up to now is      749.7 secs

     total energy              =   -7398.07872424 Ry
     estimated scf accuracy    <       0.00028151 Ry

     total magnetization       =    78.77 Bohr mag/cell
     absolute magnetization    =    80.41 Bohr mag/cell

     iteration # 51     ecut=    50.00 Ry     beta= 0.10
     Davidson diagonalization with overlap
     ethr =  2.61E-08,  avg # of iterations =  2.0

     negative rho (up, down):  3.029E-03 2.874E-03
 
     Adding external electric field

     Computed dipole along edir(3) : 
        Dipole                0.1342 Ry au,          0.3410 Debye
        Dipole field          0.0001 Ry au, 
 
        Potential amp.       -0.0090 Ry
        Total length         54.2615 bohr
 
 
     Adding external electric field

     Computed dipole along edir(3) : 
        Dipole                0.1342 Ry au,          0.3410 Debye
        Dipole field          0.0001 Ry au, 
 
        Potential amp.       -0.0090 Ry
        Total length         54.2615 bohr
 

     total cpu time spent up to now is      762.3 secs

     total energy              =   -7398.07873352 Ry
     estimated scf accuracy    <       0.00018314 Ry

     total magnetization       =    78.77 Bohr mag/cell
     absolute magnetization    =    80.42 Bohr mag/cell

     iteration # 52     ecut=    50.00 Ry     beta= 0.10
     Davidson diagonalization with overlap
     ethr =  1.70E-08,  avg # of iterations =  2.0

     negative rho (up, down):  2.171E-03 1.893E-03
 
     Adding external electric field

     Computed dipole along edir(3) : 
        Dipole                0.1394 Ry au,          0.3544 Debye
        Dipole field          0.0001 Ry au, 
 
        Potential amp.       -0.0094 Ry
        Total length         54.2615 bohr
 
 
     Adding external electric field

     Computed dipole along edir(3) : 
        Dipole                0.1394 Ry au,          0.3544 Debye
        Dipole field          0.0001 Ry au, 
 
        Potential amp.       -0.0094 Ry
        Total length         54.2615 bohr
 

     total cpu time spent up to now is      775.6 secs

     total energy              =   -7398.07872636 Ry
     estimated scf accuracy    <       0.00014315 Ry

     total magnetization       =    78.78 Bohr mag/cell
     absolute magnetization    =    80.42 Bohr mag/cell

     iteration # 53     ecut=    50.00 Ry     beta= 0.10
     Davidson diagonalization with overlap
     ethr =  1.33E-08,  avg # of iterations =  2.0

     negative rho (up, down):  1.740E-03 1.406E-03
 
     Adding external electric field

     Computed dipole along edir(3) : 
        Dipole                0.1383 Ry au,          0.3515 Debye
        Dipole field          0.0001 Ry au, 
 
        Potential amp.       -0.0093 Ry
        Total length         54.2615 bohr
 
 
     Adding external electric field

     Computed dipole along edir(3) : 
        Dipole                0.1383 Ry au,          0.3515 Debye
        Dipole field          0.0001 Ry au, 
 
        Potential amp.       -0.0093 Ry
        Total length         54.2615 bohr
 

     total cpu time spent up to now is      788.3 secs

     total energy              =   -7398.07872944 Ry
     estimated scf accuracy    <       0.00007721 Ry

     total magnetization       =    78.77 Bohr mag/cell
     absolute magnetization    =    80.42 Bohr mag/cell

     iteration # 54     ecut=    50.00 Ry     beta= 0.10
     Davidson diagonalization with overlap
     ethr =  7.16E-09,  avg # of iterations =  2.0

     negative rho (up, down):  1.539E-03 1.188E-03
 
     Adding external electric field

     Computed dipole along edir(3) : 
        Dipole                0.1373 Ry au,          0.3489 Debye
        Dipole field          0.0001 Ry au, 
 
        Potential amp.       -0.0092 Ry
        Total length         54.2615 bohr
 
 
     Adding external electric field

     Computed dipole along edir(3) : 
        Dipole                0.1373 Ry au,          0.3489 Debye
        Dipole field          0.0001 Ry au, 
 
        Potential amp.       -0.0092 Ry
        Total length         54.2615 bohr
 

     total cpu time spent up to now is      801.0 secs

     total energy              =   -7398.07872791 Ry
     estimated scf accuracy    <       0.00007014 Ry

     total magnetization       =    78.77 Bohr mag/cell
     absolute magnetization    =    80.43 Bohr mag/cell

     iteration # 55     ecut=    50.00 Ry     beta= 0.10
     Davidson diagonalization with overlap
     ethr =  6.51E-09,  avg # of iterations =  2.0

     negative rho (up, down):  1.324E-03 9.814E-04
 
     Adding external electric field

     Computed dipole along edir(3) : 
        Dipole                0.1339 Ry au,          0.3403 Debye
        Dipole field          0.0001 Ry au, 
 
        Potential amp.       -0.0090 Ry
        Total length         54.2615 bohr
 
 
     Adding external electric field

     Computed dipole along edir(3) : 
        Dipole                0.1339 Ry au,          0.3403 Debye
        Dipole field          0.0001 Ry au, 
 
        Potential amp.       -0.0090 Ry
        Total length         54.2615 bohr
 

     total cpu time spent up to now is      813.5 secs

     total energy              =   -7398.07872600 Ry
     estimated scf accuracy    <       0.00004324 Ry

     total magnetization       =    78.78 Bohr mag/cell
     absolute magnetization    =    80.43 Bohr mag/cell

     iteration # 56     ecut=    50.00 Ry     beta= 0.10
     Davidson diagonalization with overlap
     ethr =  4.01E-09,  avg # of iterations =  2.0

     negative rho (up, down):  1.292E-03 9.687E-04
 
     Adding external electric field

     Computed dipole along edir(3) : 
        Dipole                0.1325 Ry au,          0.3369 Debye
        Dipole field          0.0001 Ry au, 
 
        Potential amp.       -0.0089 Ry
        Total length         54.2615 bohr
 
 
     Adding external electric field

     Computed dipole along edir(3) : 
        Dipole                0.1325 Ry au,          0.3369 Debye
        Dipole field          0.0001 Ry au, 
 
        Potential amp.       -0.0089 Ry
        Total length         54.2615 bohr
 

     total cpu time spent up to now is      825.7 secs

     total energy              =   -7398.07872458 Ry
     estimated scf accuracy    <       0.00003163 Ry

     total magnetization       =    78.78 Bohr mag/cell
     absolute magnetization    =    80.44 Bohr mag/cell

     iteration # 57     ecut=    50.00 Ry     beta= 0.10
     Davidson diagonalization with overlap
     ethr =  2.93E-09,  avg # of iterations =  2.0

     negative rho (up, down):  1.146E-03 8.184E-04
 
     Adding external electric field

     Computed dipole along edir(3) : 
        Dipole                0.1299 Ry au,          0.3301 Debye
        Dipole field          0.0001 Ry au, 
 
        Potential amp.       -0.0087 Ry
        Total length         54.2615 bohr
 
 
     Adding external electric field

     Computed dipole along edir(3) : 
        Dipole                0.1299 Ry au,          0.3301 Debye
        Dipole field          0.0001 Ry au, 
 
        Potential amp.       -0.0087 Ry
        Total length         54.2615 bohr
 

     total cpu time spent up to now is      838.3 secs

     total energy              =   -7398.07872104 Ry
     estimated scf accuracy    <       0.00001845 Ry

     total magnetization       =    78.78 Bohr mag/cell
     absolute magnetization    =    80.44 Bohr mag/cell

     iteration # 58     ecut=    50.00 Ry     beta= 0.10
     Davidson diagonalization with overlap
     ethr =  1.71E-09,  avg # of iterations =  7.0

     negative rho (up, down):  1.011E-03 6.682E-04
 
[...]
    -6.0033  -5.9842  -5.9714  -5.9582  -5.9480  -5.9004  -5.8602  -5.8524
    -5.8282  -5.8212  -5.8006  -5.7809  -5.7702  -5.7378  -5.7142  -5.6972
    -5.6948  -5.6745  -5.6584  -5.6535  -5.6299  -5.6121  -5.5734  -5.5357
    -5.5084  -5.4743  -5.4450  -5.4250  -5.4156  -5.3936  -5.3630  -5.2950
    -5.2761  -5.2559  -5.2439  -5.2334  -5.1508  -5.1235  -5.1126  -5.0752
    -5.0462  -5.0057  -4.9878  -4.9720  -4.9364  -4.9261  -4.8951  -4.8734
    -4.8191  -4.7974  -4.7525  -4.7409  -4.7122  -4.6998  -4.6671  -4.5919
    -4.5409  -4.5276  -4.5219  -4.4944  -4.4864  -4.4618  -4.4079  -4.3874
    -4.3771  -4.3161  -4.2604  -4.2271  -4.1938  -4.1810  -4.1514  -4.1401
    -4.0895  -4.0606  -4.0347  -4.0212  -3.9915  -3.9612  -3.9443  -3.9270
    -3.9233  -3.8837  -3.8457  -3.8277  -3.8172  -3.7690  -3.7466  -3.7433
    -3.7257  -3.6983  -3.6816  -3.6761  -3.6666  -3.6404  -3.6390  -3.6183
    -3.5686  -3.5479  -3.5415  -3.5179  -3.5113  -3.5070  -3.4734  -3.4679
    -3.4563  -3.4160  -3.3960  -3.3788  -3.3550  -3.3472  -3.3020  -3.2846
    -3.2759  -3.2467  -3.2217  -3.2073  -3.1979  -3.1811  -3.1693  -3.1602
    -3.1248  -3.1142  -3.0795  -3.0499  -3.0436  -3.0224  -3.0146  -2.9674
    -2.9585  -2.9350  -2.9300  -2.9024  -2.8734  -2.8565  -2.8378  -2.8146
    -2.8025  -2.7888  -2.7873  -2.7788  -2.7729  -2.7618  -2.7528  -2.7383
    -2.7157  -2.6995  -2.6778  -2.6714  -2.6467  -2.6403  -2.6159  -2.6012
    -2.5816  -2.5733  -2.5414  -2.5226  -2.5063  -2.5052  -2.4835  -2.4677
    -2.4340  -2.4331  -2.4108  -2.4085  -2.3649  -2.3556  -2.3219  -2.3199
    -2.2952  -2.2664  -2.2530  -2.2346  -2.2117  -2.2057  -2.1780  -2.1505
    -2.1470  -2.1273  -2.1004  -2.0864  -2.0706  -2.0630  -2.0341  -2.0063
    -2.0056  -1.9948  -1.9833  -1.9658  -1.9348  -1.9247  -1.9091  -1.8861
    -1.8636  -1.8448  -1.8121  -1.8082  -1.8033  -1.7729  -1.7515  -1.7328
    -1.7152  -1.6876  -1.6796  -1.6599  -1.6432  -1.6156  -1.5700  -1.5613
    -1.5570  -1.5429  -1.5115  -1.5031  -1.4808  -1.4569  -1.4467  -1.4293
    -1.4276  -1.3945  -1.3624  -1.3319  -1.3180  -1.3031  -1.2844  -1.2494
    -1.2054  -1.1845  -1.1164  -1.1013  -1.0058  -0.9881  -0.9024  -0.8610
    -0.8450  -0.8053  -0.7093  -0.5543  -0.5280  -0.4122  -0.3416  -0.2371
     0.0868   0.1103   0.1367   0.1770   0.2078   0.2156   0.2273   0.2327
     0.2572   0.2711   0.2831   0.2921   0.2991   0.3010   0.3240   0.3308
     0.3345   0.3438   0.3509   0.3607   0.3655   0.3797   0.3833   0.3903
     0.3988   0.4022   0.4064   0.4117   0.4242   0.4290   0.4312   0.4389
     0.4460   0.4624   0.4666   0.4705   0.4736   0.4807   0.4834   0.4899
     0.5068   0.5160   0.5200   0.5221   0.5275   0.5369   0.5416   0.5524
     0.5615   0.5731   0.5847   0.5866   0.5980   0.5992   0.6082   0.6168
     0.6225   0.6279   0.6340   0.6388   0.6507   0.6531   0.6599   0.6654
     0.6744   0.6805   0.7007   0.7072   0.7160   0.7250   0.7258   0.7269
     0.7298   0.7450   0.7490   0.7719   0.7803   0.7899   0.7981   0.8093
     0.8100   0.8224   0.8228   0.8365   0.8438   0.8494   0.8582   0.8721
     0.8738   0.8946   0.8968   0.9185   0.9207   0.9421   0.9577   0.9784
     0.9928   1.1030   1.1368   1.6522   1.6596   1.6649   1.6936   1.6947
     1.7146   1.7176   1.8078   1.8302   1.8592   1.8785   1.9201   1.9254
     1.9452   1.9745   1.9949   1.9990   2.0267   2.0449   2.0515   2.0832
     2.1049   2.1126   2.1474   2.1644   2.1746   2.1874   2.2153   2.2206
     2.2251   2.2408   2.2439   2.2653   2.2763   2.2836   2.3018   2.3126
     2.3209   2.3301   2.3355   2.3599   2.3692   2.3907   2.4053   2.4175
     2.4425   2.4438   2.4701   2.4766   2.5000   2.5056   2.5185   2.5491
     2.5618   2.5710   2.5894   2.6268   2.6567   2.6988   2.7160   2.7737
     2.7792   2.7921   2.8271   2.8507   2.8903   3.2569   3.4471   3.6930
     3.7681   3.8450   3.9135   3.9800   4.0043   4.0707   4.3200   4.4090
     4.6173   4.7444   4.8603   4.8901   4.9313   5.0219   5.3790   6.2859
     6.3312   6.4805   6.5604   6.6497   6.7086   6.8040   6.8120   6.8570
     7.0010   7.0298   7.0917   7.1109   7.2859   7.3365   7.3426   7.3741
     7.4998   7.5821   7.6275   7.6605   7.6930   7.6965   7.7816   7.8141
     7.8650   7.9078   7.9337   7.9482   7.9807   7.9944   8.0480   8.0754
     8.0940   8.1152   8.1498   8.1949   8.2344   8.2498   8.2711   8.3000
     8.3127   8.3440   8.3846   8.4330   8.4551   8.4650   8.4964   8.5162
     8.5342   8.5433   8.5511   8.5767   8.6080   8.6294   8.6354   8.6627
     8.6937   8.7138   8.7326   8.7841   8.8135   8.8293   8.8470

     the Fermi energy is     1.5498 ev

!    total energy              =   -7398.07871994 Ry
     estimated scf accuracy    <       0.00000081 Ry
     smearing contrib. (-TS)   =      -0.01373681 Ry
     internal energy E=F+TS    =   -7398.06498312 Ry

     The total energy is F=E-TS. E is the sum of the following terms:
     one-electron contribution =  -91725.30517369 Ry
     hartree contribution      =   46509.32075229 Ry
     xc contribution           =   -2260.24416871 Ry
     ewald contribution        =   40079.99650295 Ry
     Dispersion Correction     =      -1.83290638 Ry
     electric field correction =       0.00001043 Ry

     total magnetization       =    78.78 Bohr mag/cell
     absolute magnetization    =    80.45 Bohr mag/cell

     convergence has been achieved in  62 iterations

     negative rho (up, down):  9.272E-04 5.558E-04

     Forces acting on atoms (cartesian axes, Ry/au):

     atom    1 type  2   force =     0.00047846    0.00078942   -0.00089927
     atom    2 type  1   force =     0.00013213    0.00014411   -0.00030942
     atom    3 type  1   force =    -0.00014105   -0.00090978   -0.00044970
     atom    4 type  1   force =    -0.00013140    0.00008769    0.00027502
     atom    5 type  1   force =    -0.00027908    0.00003207    0.00017845
     atom    6 type  1   force =    -0.00001514   -0.00091373   -0.00006216
     atom    7 type  1   force =    -0.00006892   -0.00023002   -0.00017605
     atom    8 type  1   force =    -0.00041684   -0.00006017   -0.00046540
     atom    9 type  1   force =    -0.00017869    0.00026713   -0.00067008
     atom   10 type  1   force =    -0.00044283    0.00020594   -0.00002629
     atom   11 type  1   force =    -0.00040332    0.00056359   -0.00075909
     atom   12 type  1   force =     0.00013523   -0.00003269   -0.00103020
     atom   13 type  3   force =    -0.00048859   -0.00018696   -0.00018074
     atom   14 type  3   force =     0.00004155   -0.00007198   -0.00027352
     atom   15 type  3   force =    -0.00012646   -0.00008425   -0.00037304
     atom   16 type  3   force =    -0.00000430   -0.00000313   -0.00015511
     atom   17 type  4   force =     0.00013163   -0.00009935   -0.00009308
     atom   18 type  4   force =     0.00038964   -0.00010013    0.00018761
     atom   19 type  4   force =     0.00028332   -0.00050525    0.00087902
     atom   20 type  4   force =    -0.00010144    0.00045906    0.00014882
     atom   21 type  4   force =    -0.00019924    0.00029874    0.00007570
     atom   22 type  4   force =    -0.00007754    0.00013887   -0.00027050
     atom   23 type  4   force =     0.00012577   -0.00055063   -0.00097180
     atom   24 type  4   force =     0.00005030    0.00002706    0.00031088
     atom   25 type  4   force =    -0.00026676   -0.00004442    0.00013406
     atom   26 type  4   force =     0.00052482    0.00000649    0.00009035
     atom   27 type  4   force =     0.00010907    0.00038274    0.00004058
     atom   28 type  4   force =    -0.00000050    0.00002185   -0.00035487
     atom   29 type  4   force =     0.00010401   -0.00046755   -0.00000096
     atom   30 type  4   force =    -0.00047630   -0.00004248   -0.00024683
     atom   31 type  4   force =    -0.00003688   -0.00001582   -0.00031677
     atom   32 type  4   force =    -0.00024019    0.00021467   -0.00053299
     atom   33 type  3   force =     0.00076143    0.00005707    0.00041116
     atom   34 type  3   force =    -0.00072017    0.00076600    0.00104890
     atom   35 type  3   force =     0.00022645   -0.00019222    0.00007213
     atom   36 type  3   force =    -0.00029252   -0.00005626   -0.00030307
     atom   37 type  4   force =     0.00010690    0.00015302   -0.00008856
     atom   38 type  4   force =    -0.00009199    0.00034610   -0.00012208
     atom   39 type  4   force =    -0.00016189    0.00001745    0.00025044
     atom   40 type  4   force =    -0.00030965   -0.00004051   -0.00047062
     atom   41 type  4   force =     0.00009007   -0.00007003    0.00001287
     atom   42 type  4   force =    -0.00011256   -0.00032635   -0.00060014
     atom   43 type  4   force =     0.00028776   -0.00002269    0.00001858
     atom   44 type  4   force =    -0.00005961   -0.00013541    0.00003295
     atom   45 type  4   force =    -0.00024116   -0.00015790   -0.00022057
     atom   46 type  4   force =     0.00036645    0.00005467   -0.00009071
     atom   47 type  4   force =     0.00019803   -0.00030934    0.00012674
     atom   48 type  4   force =     0.00046865    0.00054171   -0.00024035
     atom   49 type  4   force =    -0.00003853   -0.00004886   -0.00039872
     atom   50 type  4   force =    -0.00016549   -0.00025664   -0.00007662
     atom   51 type  4   force =     0.00012454   -0.00038724    0.00000692
     atom   52 type  4   force =    -0.00011282   -0.00029672   -0.00015151
     atom   53 type  2   force =     0.00258252   -0.00355451    0.00543342
     atom   54 type  1   force =     0.00508237   -0.00210619    0.00413960
     atom   55 type  1   force =     0.00810308   -0.00310035    0.00282586
     atom   56 type  1   force =    -0.00193688    0.01022343    0.00626338
     atom   57 type  1   force =     0.00033417    0.02289978    0.01506754
     atom   58 type  1   force =     0.00210791   -0.00315788   -0.00118979
     atom   59 type  1   force =     0.00094217   -0.00887817    0.00133013
     atom   60 type  1   force =    -0.00519375   -0.00181739    0.00506210
     atom   61 type  1   force =    -0.00191734   -0.00053625    0.00447103
     atom   62 type  1   force =    -0.00438440    0.00822630    0.00615495
     atom   63 type  1   force =    -0.01144186    0.02567982    0.01900996
     atom   64 type  1   force =    -0.00199308    0.00131593    0.00178064
     atom   65 type  3   force =     0.04621939   -0.11392384   -0.01061463
     atom   66 type  3   force =    -0.00056628   -0.00146843    0.00420783
     atom   67 type  3   force =    -0.03976492    0.12468408    0.01503246
     atom   68 type  3   force =     0.06274322   -0.00163508   -0.00335445
     atom   69 type  4   force =     0.01388118   -0.01826132    0.00358570
     atom   70 type  4   force =    -0.00064494    0.00261135   -0.00107985
     atom   71 type  4   force =    -0.00125017    0.00352939   -0.00540747
     atom   72 type  4   force =     0.00403238    0.00186143   -0.00072935
     atom   73 type  4   force =     0.00091544   -0.01154076    0.00270397
     atom   74 type  4   force =    -0.00011097   -0.00077536   -0.00028648
     atom   75 type  4   force =     0.00131152    0.01453469    0.00503183
     atom   76 type  4   force =     0.00836981    0.00518438    0.00922846
     atom   77 type  4   force =     0.00707991   -0.00265162    0.00159999
     atom   78 type  4   force =     0.04452723   -0.14162083   -0.00650210
     atom   79 type  4   force =     0.00178639    0.00192034    0.00143738
     atom   80 type  4   force =     0.00011544    0.00291206   -0.00163949
     atom   81 type  4   force =     0.06780107    0.00051050   -0.00648209
     atom   82 type  4   force =    -0.00002249    0.00087176   -0.00150182
     atom   83 type  4   force =    -0.03920408    0.13488708    0.00271636
     atom   84 type  4   force =    -0.00295876   -0.01099891   -0.00411731
     atom   85 type  3   force =     0.03994309   -0.12018002   -0.01829114
     atom   86 type  3   force =    -0.06405694    0.00010241    0.00870252
     atom   87 type  3   force =    -0.04514419    0.12430938    0.01708134
     atom   88 type  3   force =    -0.00169121    0.00015405    0.00256386
     atom   89 type  4   force =     0.00906429   -0.01518802    0.00385079
     atom   90 type  4   force =    -0.00482319    0.00143111    0.00004434
     atom   91 type  4   force =    -0.00894601    0.00819443   -0.00577041
     atom   92 type  4   force =     0.00007433    0.00015684   -0.00062446
     atom   93 type  4   force =    -0.00175708   -0.00835634    0.00743202
     atom   94 type  4   force =    -0.00397571    0.00011147    0.00097506
     atom   95 type  4   force =    -0.00383615    0.01396032    0.00648801
     atom   96 type  4   force =     0.00417347    0.00513977    0.00962402
     atom   97 type  4   force =    -0.00000659    0.00033386    0.00070891
     atom   98 type  4   force =     0.04016276   -0.14056790   -0.00494145
     atom   99 type  4   force =    -0.06670480    0.00000002    0.00637979
     atom  100 type  4   force =    -0.00156232    0.00404519   -0.00240571
     atom  101 type  4   force =     0.00004229    0.00072081   -0.00079581
     atom  102 type  4   force =    -0.00623251    0.00394624   -0.00139486
     atom  103 type  4   force =    -0.04023520    0.13344765    0.00435930
     atom  104 type  4   force =    -0.00702115   -0.00986459   -0.00515294
     atom  105 type  2   force =     0.00422325   -0.00662425   -0.01783585
     atom  106 type  1   force =     0.02825276    0.01432394    0.01168304
     atom  107 type  1   force =     0.00871558   -0.00613681   -0.01394326
     atom  108 type  1   force =    -0.02843053    0.02172501    0.01867989
     atom  109 type  1   force =     0.00502732    0.01611855    0.00947008
     atom  110 type  1   force =    -0.00253413   -0.00879500   -0.00676380
     atom  111 type  1   force =    -0.00089209   -0.00947692   -0.01129801
     atom  112 type  1   force =     0.02922980    0.01756799    0.01137446
     atom  113 type  1   force =    -0.00070779   -0.00499278   -0.01378555
     atom  114 type  1   force =    -0.02971950    0.02076871    0.01848323
     atom  115 type  1   force =    -0.00716198    0.01851492    0.01219514
     atom  116 type  1   force =    -0.00558104   -0.00433588   -0.00293360
     atom  117 type  3   force =     0.01422287   -0.17390486   -0.10884672
     atom  118 type  3   force =     0.00517989   -0.00851031   -0.01264849
     atom  119 type  3   force =    -0.04465466    0.12488288   -0.00193014
     atom  120 type  3   force =     0.09507586   -0.04106052   -0.07978101
     atom  121 type  4   force =     0.00607055   -0.01713064    0.03724294
     atom  122 type  4   force =    -0.00354981    0.00379017    0.00442155
     atom  123 type  4   force =    -0.00081769    0.00263759   -0.00292982
     atom  124 type  4   force =     0.00853535    0.00211852    0.02702280
     atom  125 type  4   force =     0.00985004   -0.01694672    0.01580278
     atom  126 type  4   force =    -0.00751427    0.00101645   -0.00302149
     atom  127 type  4   force =     0.00401474    0.00972777    0.00053970
     atom  128 type  4   force =    -0.00058955   -0.00114392    0.03002280
     atom  129 type  4   force =    -0.00760353    0.02561076    0.00115493
     atom  130 type  4   force =     0.04346041   -0.14595987   -0.00187293
     atom  131 type  4   force =    -0.01752838   -0.00038742    0.00283571
     atom  132 type  4   force =     0.00329625    0.00265752    0.00202814
     atom  133 type  4   force =     0.06978233    0.00364737   -0.00189543
     atom  134 type  4   force =     0.00091072    0.00357127    0.00274639
     atom  135 type  4   force =    -0.02761632    0.17235767    0.00601827
     atom  136 type  4   force =     0.01969882   -0.00862206    0.00398055
     atom  137 type  3   force =     0.00908747   -0.16686608   -0.09430306
     atom  138 type  3   force =    -0.06463809   -0.00209277   -0.00497948
     atom  139 type  3   force =    -0.04873038    0.11822293    0.00148009
     atom  140 type  3   force =     0.03145059   -0.04324427   -0.07374540
     atom  141 type  4   force =     0.00463107   -0.01335518    0.03217481
     atom  142 type  4   force =    -0.00547140   -0.00027395    0.00423546
     atom  143 type  4   force =    -0.00816589    0.00816257   -0.00359433
     atom  144 type  4   force =     0.00387114    0.00131531    0.02762765
     atom  145 type  4   force =     0.00687261   -0.01305785    0.03218856
     atom  146 type  4   force =    -0.00877790   -0.00174815   -0.00299477
     atom  147 type  4   force =     0.00035675    0.00992342    0.00274421
     atom  148 type  4   force =    -0.00788122    0.00116504    0.02894405
     atom  149 type  4   force =    -0.01311424    0.02953717    0.00046235
     atom  150 type  4   force =     0.03983745   -0.13839711   -0.00136082
     atom  151 type  4   force =    -0.08628569   -0.00173899    0.00912484
     atom  152 type  4   force =     0.00112212    0.00389338    0.00145645
     atom  153 type  4   force =    -0.00345648    0.00085194    0.00299508
     atom  154 type  4   force =    -0.00594304    0.00589582    0.00135380
     atom  155 type  4   force =    -0.02802736    0.16656179    0.00479997
     atom  156 type  4   force =     0.01066960   -0.00972129   -0.00140220
     atom  157 type  4   force =     0.01151131    0.00659203   -0.00106778
     atom  158 type  5   force =    -0.01231048   -0.00531394    0.00171297

     Total force =     0.671110     Total SCF correction =     0.004040
 
     init_run     :      7.52s CPU      8.26s WALL (       1 calls)
     electrons    :    848.89s CPU    892.53s WALL (       1 calls)
     forces       :      3.75s CPU      4.15s WALL (       1 calls)
     force_london :      0.09s CPU      0.09s WALL (       1 calls)

     Called by init_run:
     wfcinit      :      4.44s CPU      4.63s WALL (       1 calls)
     potinit      :      0.58s CPU      0.78s WALL (       1 calls)
     hinit0       :      1.36s CPU      1.46s WALL (       1 calls)

     Called by electrons:
     c_bands      :    674.39s CPU    698.34s WALL (      62 calls)
     sum_band     :    111.57s CPU    121.84s WALL (      62 calls)
     v_of_rho     :     12.19s CPU     13.24s WALL (      63 calls)
     newd         :     33.65s CPU     42.16s WALL (      63 calls)
     mix_rho      :     16.65s CPU     16.78s WALL (      62 calls)
     energy_londo :      0.09s CPU      0.09s WALL (       1 calls)

     Called by c_bands:
     init_us_2    :      2.09s CPU      2.15s WALL (     252 calls)
     init_us_2:cp :      2.09s CPU      2.15s WALL (     252 calls)
     regterg      :    660.53s CPU    684.24s WALL (     126 calls)

     Called by *egterg:
     rdiaghg      :    193.48s CPU    205.78s WALL (     628 calls)
     h_psi        :    248.49s CPU    252.98s WALL (     630 calls)
     s_psi        :     48.91s CPU     48.93s WALL (     630 calls)
     g_psi        :      0.32s CPU      0.32s WALL (     502 calls)

     Called by h_psi:
     h_psi:calbec :     66.91s CPU     70.76s WALL (     630 calls)
     vloc_psi     :    130.91s CPU    131.46s WALL (     630 calls)
     add_vuspsi   :     49.99s CPU     50.06s WALL (     630 calls)

     General routines
     calbec       :     98.25s CPU    103.96s WALL (     762 calls)
     fft          :     16.76s CPU     18.14s WALL (    1147 calls)
     ffts         :      9.89s CPU      9.93s WALL (    7691 calls)
     fftw         :    147.69s CPU    148.27s WALL (  211316 calls)
     interpolate  :      1.03s CPU      1.11s WALL (     126 calls)
 
     Parallel routines
 
     PWSCF        :  14m22.20s CPU  15m 7.29s WALL

 
   This run was terminated on:  20:45:48  19Nov2025            

=------------------------------------------------------------------------------=
   JOB DONE.
=------------------------------------------------------------------------------=
