
     Program PWSCF v.7.2 starts on 19Nov2025 at 21:47:17 

     This program is part of the open-source Quantum ESPRESSO suite
     for quantum simulation of materials; please cite
         "P. Giannozzi et al., J. Phys.:Condens. Matter 21 395502 (2009);
         "P. Giannozzi et al., J. Phys.:Condens. Matter 29 465901 (2017);
         "P. Giannozzi et al., J. Chem. Phys. 152 154105 (2020);
          URL http://www.quantum-espresso.org", 
     in publications or presentations arising from this work. More details at
     http://www.quantum-espresso.org/quote

     Parallel version (MPI), running on    64 processors

     MPI processes distributed on     4 nodes
     385051 MiB available memory on the printing compute node when the environment starts
 
     Reading input from PWINPUT_atm158_zp

     Current dimensions of program PWSCF are:
     Max number of different atomic species (ntypx) = 10
     Max number of k-points (npk) =  40000
     Max angular momentum in pseudopotentials (lmaxx) =  4
     Presently no symmetry can be used with electric field

     file Ni.pbe-n-rrkjus_psl.1.0.0.UPF: wavefunction(s)  3D renormalized
     file Mn.pbe-spn-rrkjus_psl.0.3.1.UPF: wavefunction(s)  3D renormalized
     file O.pbe-rrkjus.UPF: wavefunction(s)  2S renormalized
     file H.pbe-rrkjus.UPF: wavefunction(s)  1S renormalized

     gamma-point specific algorithms are used
 
     R & G space division:  proc/nbgrp/npool/nimage =      64
     Subspace diagonalization in iterative solution of the eigenvalue problem:
     one sub-group per band group will be used
     custom distributed-memory algorithm (size of sub-group:  6*  6 procs)

 
     Parallelization info
     --------------------
     sticks:   dense  smooth     PW     G-vecs:    dense   smooth      PW
     Min         208      82     20                59912    15118    1876
     Max         210      84     22                59974    15196    1926
     Sum       13399    5355   1345              3836275   970529  121367
 
     Using Slab Decomposition
 


     bravais-lattice index     =            0
     lattice parameter (alat)  =      17.7004  a.u.
     unit-cell volume          =   20319.7251 (a.u.)^3
     number of atoms/cell      =          158
     number of atomic types    =            5
     number of electrons       =      1078.00
     number of Kohn-Sham states=          647
     kinetic-energy cutoff     =      50.0000  Ry
     charge density cutoff     =     500.0000  Ry
     scf convergence threshold =      1.0E-06
     mixing beta               =       0.1000
     number of iterations used =            8  local-TF  mixing
     Exchange-correlation=  SLA  PW   PBE  PBE
                           (   1   4   3   4   0   0   0)

     celldm(1)=  17.700384  celldm(2)=   0.000000  celldm(3)=   0.000000
     celldm(4)=   0.000000  celldm(5)=   0.000000  celldm(6)=   0.000000

     crystal axes: (cart. coord. in units of alat)
               a(1) = (   1.000000   0.000000   0.000000 )  
               a(2) = (   0.000000   1.075730   0.000000 )  
               a(3) = (   0.000000   0.000000   3.406172 )  

     reciprocal axes: (cart. coord. in units 2 pi/alat)
               b(1) = (  1.000000  0.000000  0.000000 )  
               b(2) = (  0.000000  0.929602  0.000000 )  
               b(3) = (  0.000000  0.000000  0.293585 )  


     PseudoPot. # 1 for Ni read from file:
     ~/PSEUDO/Ni.pbe-n-rrkjus_psl.1.0.0.UPF
     MD5 check sum: Not computed, couldn't open file
     Pseudo is Ultrasoft + core correction, Zval = 10.0
     Generated using "atomic" code by A. Dal Corso  v.5.1.2
     Using radial grid of 1195 points,  6 beta functions with: 
                l(1) =   0
                l(2) =   0
                l(3) =   1
                l(4) =   1
                l(5) =   2
                l(6) =   2
     Q(r) pseudized with 0 coefficients 


     PseudoPot. # 2 for Mn read from file:
     ~/PSEUDO/Mn.pbe-spn-rrkjus_psl.0.3.1.UPF
     MD5 check sum: Not computed, couldn't open file
     Pseudo is Ultrasoft + core correction, Zval = 15.0
     Generated using &quot;atomic&quot; code by A. Dal Corso  v.6.2.2
     Using radial grid of 1187 points,  6 beta functions with: 
                l(1) =   0
                l(2) =   0
                l(3) =   1
                l(4) =   1
                l(5) =   2
                l(6) =   2
     Q(r) pseudized with 0 coefficients 


     PseudoPot. # 3 for P  read from file:
     ~/PSEUDO/P.pbe-n-rrkjus_psl.1.0.0.UPF
     MD5 check sum: Not computed, couldn't open file
     Pseudo is Ultrasoft + core correction, Zval =  5.0
     Generated using "atomic" code by A. Dal Corso  v.5.1
     Using radial grid of 1147 points,  6 beta functions with: 
                l(1) =   0
                l(2) =   0
                l(3) =   1
                l(4) =   1
                l(5) =   2
                l(6) =   2
     Q(r) pseudized with 0 coefficients 


     PseudoPot. # 4 for O  read from file:
     ~/PSEUDO/O.pbe-rrkjus.UPF
     MD5 check sum: Not computed, couldn't open file
     Pseudo is Ultrasoft, Zval =  6.0
     Generated by new atomic code, or converted to UPF format
     Using radial grid of 1269 points,  4 beta functions with: 
                l(1) =   0
                l(2) =   0
                l(3) =   1
                l(4) =   1
     Q(r) pseudized with 0 coefficients 


     PseudoPot. # 5 for H  read from file:
     ~/PSEUDO/H.pbe-rrkjus.UPF
     MD5 check sum: Not computed, couldn't open file
     Pseudo is Ultrasoft, Zval =  1.0
     Generated by new atomic code, or converted to UPF format
     Using radial grid of 1061 points,  2 beta functions with: 
                l(1) =   0
                l(2) =   0
     Q(r) pseudized with 0 coefficients 


     atomic species   valence    mass     pseudopotential
     Ni               10.00    58.69300     Ni( 1.00)
     Mn               15.00    54.93800     Mn( 1.00)
     P                 5.00    30.97300     P ( 1.00)
     O                 6.00    15.99900     O ( 1.00)
     H                 1.00     1.00790     H ( 1.00)

     Starting magnetic structure 
     atomic species   magnetization
     Ni              1.000
     Mn              1.000
     P               1.000
     O               1.000
     H               0.000

     No symmetry found



   Cartesian axes

     site n.     atom                  positions (alat units)
         1        Mn     tau(   1) = (   0.2517087   0.8371115   1.7089200  )
         2        Ni     tau(   2) = (   0.4946298   0.7752973   1.3725824  )
         3        Ni     tau(   3) = (   0.0015481   0.2961171   1.6749872  )
         4        Ni     tau(   4) = (   0.2613521   0.2396234   1.3678359  )
         5        Ni     tau(   5) = (   0.9984933   1.0749377   1.5355607  )
         6        Ni     tau(   6) = (   0.2572590   0.5404195   1.5326386  )
         7        Ni     tau(   7) = (   0.7529013   0.8355294   1.6752854  )
         8        Ni     tau(   8) = (   0.9935933   0.7756548   1.3720141  )
         9        Ni     tau(   9) = (   0.5024742   0.2964342   1.6745479  )
        10        Ni     tau(  10) = (   0.7618978   0.2375431   1.3667264  )
        11        Ni     tau(  11) = (   0.4990156   1.0768182   1.5305295  )
        12        Ni     tau(  12) = (   0.7564696   0.5358840   1.5310064  )
        13        P      tau(  13) = (   0.2101543   0.9720156   1.3797127  )
        14        P      tau(  14) = (   0.4706542   0.6451455   1.6955617  )
        15        P      tau(  15) = (   0.2884324   0.1127271   1.6923494  )
        16        P      tau(  16) = (   0.0456337   0.4340918   1.3707912  )
        17        O      tau(  17) = (   0.1335059   0.8997101   1.5140650  )
        18        O      tau(  18) = (   0.3867827   0.7182378   1.5594019  )
        19        O      tau(  19) = (   0.3670053   0.1737862   1.5463102  )
        20        O      tau(  20) = (   0.1240237   0.3636575   1.5070371  )
        21        O      tau(  21) = (   0.1473160   0.8837944   1.2542796  )
        22        O      tau(  22) = (   0.4146853   0.7340483   1.8196848  )
        23        O      tau(  23) = (   0.3495356   0.2093518   1.8074273  )
        24        O      tau(  24) = (   0.1052584   0.3464292   1.2439881  )
        25        O      tau(  25) = (   0.1049117   0.5895470   1.3757347  )
        26        O      tau(  26) = (   0.3473708   1.0308751   1.6857652  )
        27        O      tau(  27) = (   0.3810036   0.4281764   1.3825697  )
        28        O      tau(  28) = (   0.1238775   0.1159040   1.6775620  )
        29        O      tau(  29) = (   0.1305439   0.6501957   1.6820985  )
        30        O      tau(  30) = (   0.4132477   0.4886172   1.6862595  )
        31        O      tau(  31) = (   0.1524630   0.0515712   1.3799009  )
        32        O      tau(  32) = (   0.3743678   0.9633656   1.3849747  )
        33        P      tau(  33) = (   0.7103643   0.9714602   1.3712571  )
        34        P      tau(  34) = (   0.9649208   0.6440558   1.6927385  )
        35        P      tau(  35) = (   0.7871885   0.1098825   1.6920406  )
        36        P      tau(  36) = (   0.5450176   0.4335131   1.3702334  )
        37        O      tau(  37) = (   0.6319749   0.9002438   1.5073571  )
        38        O      tau(  38) = (   0.8891581   0.7073457   1.5481759  )
        39        O      tau(  39) = (   0.8662231   0.1700413   1.5462886  )
        40        O      tau(  40) = (   0.6235591   0.3611085   1.5054814  )
        41        O      tau(  41) = (   0.6491843   0.8831538   1.2455076  )
        42        O      tau(  42) = (   0.9034437   0.7399336   1.8095699  )
        43        O      tau(  43) = (   0.8478548   0.2077401   1.8063738  )
        44        O      tau(  44) = (   0.6060435   0.3462002   1.2436710  )
        45        O      tau(  45) = (   0.6035774   0.5890693   1.3768175  )
        46        O      tau(  46) = (   0.8421571   1.0273722   1.6917632  )
        47        O      tau(  47) = (   0.8816644   0.4266506   1.3828449  )
        48        O      tau(  48) = (   0.6221997   0.1135664   1.6772983  )
        49        O      tau(  49) = (   0.6347776   0.6499156   1.6770748  )
        50        O      tau(  50) = (   0.9100442   0.4869846   1.6900532  )
        51        O      tau(  51) = (   0.6512513   0.0508446   1.3744142  )
        52        O      tau(  52) = (   0.8740844   0.9637479   1.3848135  )
        53        Mn     tau(  53) = (   0.2404744   0.8246335   1.0701417  )
        54        Ni     tau(  54) = (   0.4968126   0.7601755   0.7454373  )
        55        Ni     tau(  55) = (   0.0066150   0.2811828   1.0628866  )
        56        Ni     tau(  56) = (   0.2585722   0.2230943   0.7421070  )
        57        Ni     tau(  57) = (   0.9987350   1.0571496   0.9014992  )
        58        Ni     tau(  58) = (   0.2517397   0.5205596   0.9040596  )
        59        Ni     tau(  59) = (   0.7451645   0.8212628   1.0648168  )
        60        Ni     tau(  60) = (   0.9939181   0.7613889   0.7462324  )
        61        Ni     tau(  61) = (   0.5111533   0.2799173   1.0618053  )
        62        Ni     tau(  62) = (   0.7606326   0.2194352   0.7418547  )
        63        Ni     tau(  63) = (   0.5024065   1.0563218   0.8999416  )
        64        Ni     tau(  64) = (   0.7529977   0.5192985   0.9024691  )
        65        P      tau(  65) = (   0.2092944   0.9606182   0.7524883  )
        66        P      tau(  66) = (   0.4655727   0.6234620   1.0595283  )
        67        P      tau(  67) = (   0.2910699   0.0902448   1.0573821  )
        68        P      tau(  68) = (   0.0396216   0.4163480   0.7471080  )
        69        O      tau(  69) = (   0.1294378   0.8888345   0.8859300  )
        70        O      tau(  70) = (   0.3874505   0.6929859   0.9232915  )
        71        O      tau(  71) = (   0.3702540   0.1589885   0.9209891  )
        72        O      tau(  72) = (   0.1184398   0.3458043   0.8831565  )
        73        O      tau(  73) = (   0.1451572   0.8725966   0.6282341  )
        74        O      tau(  74) = (   0.4048762   0.7120670   1.1852426  )
        75        O      tau(  75) = (   0.3523506   0.1775664   1.1834175  )
        76        O      tau(  76) = (   0.1017610   0.3285569   0.6213347  )
        77        O      tau(  77) = (   0.0975396   0.5724373   0.7511996  )
        78        O      tau(  78) = (   0.3483552   1.0190030   1.0599597  )
        79        O      tau(  79) = (   0.3784305   0.4100203   0.7560991  )
        80        O      tau(  80) = (   0.1268237   0.0943029   1.0477175  )
        81        O      tau(  81) = (   0.1212267   0.6299255   1.0507023  )
        82        O      tau(  82) = (   0.4053315   0.4684472   1.0569297  )
        83        O      tau(  83) = (   0.1536621   0.0322003   0.7496532  )
        84        O      tau(  84) = (   0.3732349   0.9506802   0.7613277  )
        85        P      tau(  85) = (   0.7119823   0.9571059   0.7496908  )
        86        P      tau(  86) = (   0.9615208   0.6238477   1.0606987  )
        87        P      tau(  87) = (   0.7927710   0.0845145   1.0577754  )
        88        P      tau(  88) = (   0.5426404   0.4144760   0.7459181  )
        89        O      tau(  89) = (   0.6326879   0.8866267   0.8856678  )
        90        O      tau(  90) = (   0.8842163   0.6958291   0.9244764  )
        91        O      tau(  91) = (   0.8716178   0.1552836   0.9216415  )
        92        O      tau(  92) = (   0.6212010   0.3433751   0.8818834  )
        93        O      tau(  93) = (   0.6507714   0.8687427   0.6238197  )
        94        O      tau(  94) = (   0.9014054   0.7139543   1.1859242  )
        95        O      tau(  95) = (   0.8548963   0.1722994   1.1834447  )
        96        O      tau(  96) = (   0.6044469   0.3253792   0.6209553  )
        97        O      tau(  97) = (   0.6024424   0.5698225   0.7490903  )
        98        O      tau(  98) = (   0.8498940   1.0129567   1.0594762  )
        99        O      tau(  99) = (   0.8798395   0.4080910   0.7564148  )
       100        O      tau( 100) = (   0.6286921   0.0909721   1.0472573  )
       101        O      tau( 101) = (   0.6294973   0.6302838   1.0497366  )
       102        O      tau( 102) = (   0.9024339   0.4685397   1.0573501  )
       103        O      tau( 103) = (   0.6547812   0.0286072   0.7473283  )
       104        O      tau( 104) = (   0.8760507   0.9507690   0.7605412  )
       105        Mn     tau( 105) = (   0.2404744   0.8121420   0.4502541  )
       106        Ni     tau( 106) = (   0.4968126   0.7476840   0.1255496  )
       107        Ni     tau( 107) = (   0.0066150   0.2686914   0.4429989  )
       108        Ni     tau( 108) = (   0.2585722   0.2106028   0.1222194  )
       109        Ni     tau( 109) = (   0.9987350   1.0446581   0.2816116  )
       110        Ni     tau( 110) = (   0.2517397   0.5080681   0.2841720  )
       111        Ni     tau( 111) = (   0.7451645   0.8087713   0.4449291  )
       112        Ni     tau( 112) = (   0.9939181   0.7488974   0.1263448  )
       113        Ni     tau( 113) = (   0.5111533   0.2674258   0.4419177  )
       114        Ni     tau( 114) = (   0.7606326   0.2069438   0.1219670  )
       115        Ni     tau( 115) = (   0.5024065   1.0438304   0.2800540  )
       116        Ni     tau( 116) = (   0.7529977   0.5068070   0.2825815  )
       117        P      tau( 117) = (   0.2092944   0.9481267   0.1326007  )
       118        P      tau( 118) = (   0.4655727   0.6109705   0.4396407  )
       119        P      tau( 119) = (   0.2910699   0.0777534   0.4374945  )
       120        P      tau( 120) = (   0.0396216   0.4038566   0.1272204  )
       121        O      tau( 121) = (   0.1294378   0.8763430   0.2660424  )
       122        O      tau( 122) = (   0.3874505   0.6804944   0.3034039  )
       123        O      tau( 123) = (   0.3702540   0.1464970   0.3011014  )
       124        O      tau( 124) = (   0.1184398   0.3333129   0.2632689  )
       125        O      tau( 125) = (   0.1451572   0.8601051   0.0083464  )
       126        O      tau( 126) = (   0.4048762   0.6995756   0.5653550  )
       127        O      tau( 127) = (   0.3523506   0.1650749   0.5635298  )
       128        O      tau( 128) = (   0.1017610   0.3160655   0.0014470  )
       129        O      tau( 129) = (   0.0975396   0.5599458   0.1313120  )
       130        O      tau( 130) = (   0.3483552   1.0065115   0.4400720  )
       131        O      tau( 131) = (   0.3784305   0.3975288   0.1362114  )
       132        O      tau( 132) = (   0.1268237   0.0818115   0.4278298  )
       133        O      tau( 133) = (   0.1212267   0.6174340   0.4308146  )
       134        O      tau( 134) = (   0.4053315   0.4559557   0.4370420  )
       135        O      tau( 135) = (   0.1536621   0.0197088   0.1297656  )
       136        O      tau( 136) = (   0.3732349   0.9381887   0.1414400  )
       137        P      tau( 137) = (   0.7119823   0.9446144   0.1298032  )
       138        P      tau( 138) = (   0.9615208   0.6113562   0.4408111  )
       139        P      tau( 139) = (   0.7927710   0.0720230   0.4378878  )
       140        P      tau( 140) = (   0.5426404   0.4019845   0.1260304  )
       141        O      tau( 141) = (   0.6326879   0.8741353   0.2657802  )
       142        O      tau( 142) = (   0.8842163   0.6833376   0.3045887  )
       143        O      tau( 143) = (   0.8716178   0.1427921   0.3017538  )
       144        O      tau( 144) = (   0.6212010   0.3308836   0.2619957  )
       145        O      tau( 145) = (   0.6507714   0.8562512   0.0039320  )
       146        O      tau( 146) = (   0.9014054   0.7014628   0.5660366  )
       147        O      tau( 147) = (   0.8548963   0.1598079   0.5635571  )
       148        O      tau( 148) = (   0.6044469   0.3128877   0.0010676  )
       149        O      tau( 149) = (   0.6024424   0.5573310   0.1292027  )
       150        O      tau( 150) = (   0.8498940   1.0004653   0.4395886  )
       151        O      tau( 151) = (   0.8798395   0.3955995   0.1365272  )
       152        O      tau( 152) = (   0.6286921   0.0784807   0.4273696  )
       153        O      tau( 153) = (   0.6294973   0.6177923   0.4298489  )
       154        O      tau( 154) = (   0.9024339   0.4560482   0.4374624  )
       155        O      tau( 155) = (   0.6547812   0.0161158   0.1274406  )
       156        O      tau( 156) = (   0.8760507   0.9382775   0.1406535  )
       157        O      tau( 157) = (   1.1426512   0.9081323   1.8444903  )
       158        H      tau( 158) = (   1.0494652   0.8581547   1.8572830  )

     -------------------------------------------------
     Parameters for Dispersion (Grimme-D2) Correction:
     -------------------------------------------------
       atom      VdW radius       C_6     

        Ni         2.952        374.666
        Mn         2.952        374.666
        P          3.222        271.980
        O          2.536         24.284
        H          1.892          4.857

     number of k points=     1  Gaussian smearing, width (Ry)=  0.0100
                       cart. coord. in units 2pi/alat
        k(    1) = (   0.0000000   0.0000000   0.0000000), wk =   1.0000000

     Dense  grid:  1918138 G-vectors     FFT dimensions: ( 125, 135, 432)

     Smooth grid:   485265 G-vectors     FFT dimensions: (  80,  90, 288)

     Estimated max dynamical RAM per process >     320.12 MB

     Estimated total dynamical RAM >      20.01 GB
     Generating pointlists ...
     new r_m :   0.0866 (alat units)  1.5324 (a.u.) for type    1
     new r_m :   0.0775 (alat units)  1.3721 (a.u.) for type    2
     new r_m :   0.0650 (alat units)  1.1499 (a.u.) for type    3
     new r_m :   0.0439 (alat units)  0.7777 (a.u.) for type    4
     new r_m :   0.0439 (alat units)  0.7777 (a.u.) for type    5

     Initial potential from superposition of free atoms

     starting charge    1077.8900, renormalised to    1078.0000

     negative rho (up, down):  1.247E-03 4.554E-04
 
     Adding external electric field

     Computed dipole along edir(3) : 
        Dipole                1.6060 Ry au,          4.0820 Debye
        Dipole field          0.0010 Ry au, 
 
        Potential amp.       -0.1078 Ry
        Total length         54.2615 bohr
 
 
     Adding external electric field

     Computed dipole along edir(3) : 
        Dipole                1.6060 Ry au,          4.0820 Debye
        Dipole field          0.0010 Ry au, 
 
        Potential amp.       -0.1078 Ry
        Total length         54.2615 bohr
 
     Starting wfcs are  812 randomized atomic wfcs

     total cpu time spent up to now is        9.5 secs

     Self-consistent Calculation

     iteration #  1     ecut=    50.00 Ry     beta= 0.10
     Davidson diagonalization with overlap
     ethr =  1.00E-02,  avg # of iterations =  6.0

     negative rho (up, down):  3.331E-01 9.003E-07
 
     Adding external electric field

     Computed dipole along edir(3) : 
        Dipole               -3.5404 Ry au,         -8.9988 Debye
        Dipole field         -0.0022 Ry au, 
 
        Potential amp.        0.2376 Ry
        Total length         54.2615 bohr
 
 
     Adding external electric field

     Computed dipole along edir(3) : 
        Dipole               -3.5404 Ry au,         -8.9988 Debye
        Dipole field         -0.0022 Ry au, 
 
        Potential amp.        0.2376 Ry
        Total length         54.2615 bohr
 

     total cpu time spent up to now is       34.0 secs

     total energy              =   -7178.43074861 Ry
     estimated scf accuracy    <     733.52840704 Ry

     total magnetization       =   216.00 Bohr mag/cell
     absolute magnetization    =   296.76 Bohr mag/cell

     iteration #  2     ecut=    50.00 Ry     beta= 0.10
     Davidson diagonalization with overlap
     ethr =  1.00E-02,  avg # of iterations =  2.0

     negative rho (up, down):  3.160E-01 6.112E-07
 
     Adding external electric field

     Computed dipole along edir(3) : 
        Dipole               -2.3491 Ry au,         -5.9708 Debye
        Dipole field         -0.0015 Ry au, 
 
        Potential amp.        0.1577 Ry
        Total length         54.2615 bohr
 
 
     Adding external electric field

     Computed dipole along edir(3) : 
        Dipole               -2.3491 Ry au,         -5.9708 Debye
        Dipole field         -0.0015 Ry au, 
 
        Potential amp.        0.1577 Ry
        Total length         54.2615 bohr
 

     total cpu time spent up to now is       49.0 secs

     total energy              =   -7262.16750716 Ry
     estimated scf accuracy    <     204.82815886 Ry

     total magnetization       =   149.76 Bohr mag/cell
     absolute magnetization    =   199.45 Bohr mag/cell

     iteration #  3     ecut=    50.00 Ry     beta= 0.10
     Davidson diagonalization with overlap
     ethr =  1.00E-02,  avg # of iterations =  1.5

     negative rho (up, down):  2.776E-01 3.548E-07
 
     Adding external electric field

     Computed dipole along edir(3) : 
        Dipole               -1.9926 Ry au,         -5.0647 Debye
        Dipole field         -0.0012 Ry au, 
 
        Potential amp.        0.1337 Ry
        Total length         54.2615 bohr
 
 
     Adding external electric field

     Computed dipole along edir(3) : 
        Dipole               -1.9926 Ry au,         -5.0647 Debye
        Dipole field         -0.0012 Ry au, 
 
        Potential amp.        0.1337 Ry
        Total length         54.2615 bohr
 

     total cpu time spent up to now is       61.3 secs

     total energy              =   -7293.17239903 Ry
     estimated scf accuracy    <      97.72008521 Ry

     total magnetization       =   125.36 Bohr mag/cell
     absolute magnetization    =   179.03 Bohr mag/cell

     iteration #  4     ecut=    50.00 Ry     beta= 0.10
     Davidson diagonalization with overlap
     ethr =  9.06E-03,  avg # of iterations =  1.5

     negative rho (up, down):  2.091E-01 3.533E-08
 
     Adding external electric field

     Computed dipole along edir(3) : 
        Dipole               -1.9897 Ry au,         -5.0573 Debye
        Dipole field         -0.0012 Ry au, 
 
        Potential amp.        0.1335 Ry
        Total length         54.2615 bohr
 
 
     Adding external electric field

     Computed dipole along edir(3) : 
        Dipole               -1.9897 Ry au,         -5.0573 Debye
        Dipole field         -0.0012 Ry au, 
 
        Potential amp.        0.1335 Ry
        Total length         54.2615 bohr
 

     total cpu time spent up to now is       73.1 secs

     total energy              =   -7325.91407350 Ry
     estimated scf accuracy    <      78.59131188 Ry

     total magnetization       =   110.26 Bohr mag/cell
     absolute magnetization    =   164.69 Bohr mag/cell

     iteration #  5     ecut=    50.00 Ry     beta= 0.10
     Davidson diagonalization with overlap
     ethr =  7.29E-03,  avg # of iterations =  1.5

     negative rho (up, down):  1.199E-02 2.921E-07
 
     Adding external electric field

     Computed dipole along edir(3) : 
        Dipole               -1.5516 Ry au,         -3.9439 Debye
        Dipole field         -0.0010 Ry au, 
 
        Potential amp.        0.1041 Ry
        Total length         54.2615 bohr
 
 
     Adding external electric field

     Computed dipole along edir(3) : 
        Dipole               -1.5516 Ry au,         -3.9439 Debye
        Dipole field         -0.0010 Ry au, 
 
        Potential amp.        0.1041 Ry
        Total length         54.2615 bohr
 

     total cpu time spent up to now is       85.0 secs

     total energy              =   -7385.63832633 Ry
     estimated scf accuracy    <      62.42400338 Ry

     total magnetization       =    88.05 Bohr mag/cell
     absolute magnetization    =   146.17 Bohr mag/cell

     iteration #  6     ecut=    50.00 Ry     beta= 0.10
     Davidson diagonalization with overlap
     ethr =  5.79E-03,  avg # of iterations =  1.5

     negative rho (up, down):  3.705E-04 5.700E-04
 
     Adding external electric field

     Computed dipole along edir(3) : 
        Dipole               -1.2185 Ry au,         -3.0972 Debye
        Dipole field         -0.0008 Ry au, 
 
        Potential amp.        0.0818 Ry
        Total length         54.2615 bohr
 
 
     Adding external electric field

     Computed dipole along edir(3) : 
        Dipole               -1.2185 Ry au,         -3.0972 Debye
        Dipole field         -0.0008 Ry au, 
 
        Potential amp.        0.0818 Ry
        Total length         54.2615 bohr
 

     total cpu time spent up to now is       97.4 secs

     total energy              =   -7395.44250234 Ry
     estimated scf accuracy    <      11.17428794 Ry

     total magnetization       =    81.05 Bohr mag/cell
     absolute magnetization    =   115.35 Bohr mag/cell

     iteration #  7     ecut=    50.00 Ry     beta= 0.10
     Davidson diagonalization with overlap
     ethr =  1.04E-03,  avg # of iterations =  5.0

     negative rho (up, down):  3.795E-04 5.674E-04
 
     Adding external electric field

     Computed dipole along edir(3) : 
        Dipole               -1.2098 Ry au,         -3.0751 Debye
        Dipole field         -0.0007 Ry au, 
 
        Potential amp.        0.0812 Ry
        Total length         54.2615 bohr
 
 
     Adding external electric field

     Computed dipole along edir(3) : 
        Dipole               -1.2098 Ry au,         -3.0751 Debye
        Dipole field         -0.0007 Ry au, 
 
        Potential amp.        0.0812 Ry
        Total length         54.2615 bohr
 

     total cpu time spent up to now is      116.6 secs

     total energy              =   -7397.74507924 Ry
     estimated scf accuracy    <      16.41966424 Ry

     total magnetization       =    67.89 Bohr mag/cell
     absolute magnetization    =    85.70 Bohr mag/cell

     iteration #  8     ecut=    50.00 Ry     beta= 0.10
     Davidson diagonalization with overlap
     ethr =  1.04E-03,  avg # of iterations =  1.0

     negative rho (up, down):  3.508E-04 5.269E-04
 
     Adding external electric field

     Computed dipole along edir(3) : 
        Dipole               -1.2514 Ry au,         -3.1807 Debye
        Dipole field         -0.0008 Ry au, 
 
        Potential amp.        0.0840 Ry
        Total length         54.2615 bohr
 
 
     Adding external electric field

     Computed dipole along edir(3) : 
        Dipole               -1.2514 Ry au,         -3.1807 Debye
        Dipole field         -0.0008 Ry au, 
 
        Potential amp.        0.0840 Ry
        Total length         54.2615 bohr
 

     total cpu time spent up to now is      127.8 secs

     total energy              =   -7397.78928690 Ry
     estimated scf accuracy    <      16.13672638 Ry

     total magnetization       =    68.04 Bohr mag/cell
     absolute magnetization    =    85.58 Bohr mag/cell

     iteration #  9     ecut=    50.00 Ry     beta= 0.10
     Davidson diagonalization with overlap
     ethr =  1.04E-03,  avg # of iterations =  1.0

     negative rho (up, down):  1.641E-03 2.306E-03
 
     Adding external electric field

     Computed dipole along edir(3) : 
        Dipole               -0.7713 Ry au,         -1.9605 Debye
        Dipole field         -0.0005 Ry au, 
 
        Potential amp.        0.0518 Ry
        Total length         54.2615 bohr
 
 
     Adding external electric field

     Computed dipole along edir(3) : 
        Dipole               -0.7713 Ry au,         -1.9605 Debye
        Dipole field         -0.0005 Ry au, 
 
        Potential amp.        0.0518 Ry
        Total length         54.2615 bohr
 

     total cpu time spent up to now is      139.4 secs

     total energy              =   -7397.57780364 Ry
     estimated scf accuracy    <      17.47630097 Ry

     total magnetization       =    67.55 Bohr mag/cell
     absolute magnetization    =    85.00 Bohr mag/cell

     iteration # 10     ecut=    50.00 Ry     beta= 0.10
     Davidson diagonalization with overlap
     ethr =  1.04E-03,  avg # of iterations =  1.5

     negative rho (up, down):  5.281E-03 8.104E-03
 
     Adding external electric field

     Computed dipole along edir(3) : 
        Dipole               -0.5405 Ry au,         -1.3739 Debye
        Dipole field         -0.0003 Ry au, 
 
        Potential amp.        0.0363 Ry
        Total length         54.2615 bohr
 
 
     Adding external electric field

     Computed dipole along edir(3) : 
        Dipole               -0.5405 Ry au,         -1.3739 Debye
        Dipole field         -0.0003 Ry au, 
 
        Potential amp.        0.0363 Ry
        Total length         54.2615 bohr
 

     total cpu time spent up to now is      150.6 secs

     total energy              =   -7397.63459002 Ry
     estimated scf accuracy    <       7.80031613 Ry

     total magnetization       =    70.18 Bohr mag/cell
     absolute magnetization    =    84.96 Bohr mag/cell

     iteration # 11     ecut=    50.00 Ry     beta= 0.10
     Davidson diagonalization with overlap
     ethr =  7.24E-04,  avg # of iterations =  2.0

     negative rho (up, down):  4.705E-03 8.598E-03
 
     Adding external electric field

     Computed dipole along edir(3) : 
        Dipole               -0.5326 Ry au,         -1.3537 Debye
        Dipole field         -0.0003 Ry au, 
 
        Potential amp.        0.0357 Ry
        Total length         54.2615 bohr
 
 
     Adding external electric field

     Computed dipole along edir(3) : 
        Dipole               -0.5326 Ry au,         -1.3537 Debye
        Dipole field         -0.0003 Ry au, 
 
        Potential amp.        0.0357 Ry
        Total length         54.2615 bohr
 

     total cpu time spent up to now is      162.4 secs

     total energy              =   -7397.67430244 Ry
     estimated scf accuracy    <       4.22866666 Ry

     total magnetization       =    73.23 Bohr mag/cell
     absolute magnetization    =    85.71 Bohr mag/cell

     iteration # 12     ecut=    50.00 Ry     beta= 0.10
     Davidson diagonalization with overlap
     ethr =  3.92E-04,  avg # of iterations =  2.0

     negative rho (up, down):  2.351E-03 5.387E-03
 
     Adding external electric field

     Computed dipole along edir(3) : 
        Dipole               -0.6867 Ry au,         -1.7455 Debye
        Dipole field         -0.0004 Ry au, 
 
        Potential amp.        0.0461 Ry
        Total length         54.2615 bohr
 
 
     Adding external electric field

     Computed dipole along edir(3) : 
        Dipole               -0.6867 Ry au,         -1.7455 Debye
        Dipole field         -0.0004 Ry au, 
 
        Potential amp.        0.0461 Ry
        Total length         54.2615 bohr
 

     total cpu time spent up to now is      174.1 secs

     total energy              =   -7397.67890870 Ry
     estimated scf accuracy    <       4.68482102 Ry

     total magnetization       =    71.85 Bohr mag/cell
     absolute magnetization    =    84.02 Bohr mag/cell

     iteration # 13     ecut=    50.00 Ry     beta= 0.10
     Davidson diagonalization with overlap
     ethr =  3.92E-04,  avg # of iterations =  2.0

     negative rho (up, down):  2.139E-02 2.657E-02
 
     Adding external electric field

     Computed dipole along edir(3) : 
        Dipole               -0.2215 Ry au,         -0.5630 Debye
        Dipole field         -0.0001 Ry au, 
 
        Potential amp.        0.0149 Ry
        Total length         54.2615 bohr
 
 
     Adding external electric field

     Computed dipole along edir(3) : 
        Dipole               -0.2215 Ry au,         -0.5630 Debye
        Dipole field         -0.0001 Ry au, 
 
        Potential amp.        0.0149 Ry
        Total length         54.2615 bohr
 

     total cpu time spent up to now is      185.4 secs

     total energy              =   -7397.54546930 Ry
     estimated scf accuracy    <       7.42038510 Ry

     total magnetization       =    70.20 Bohr mag/cell
     absolute magnetization    =    82.47 Bohr mag/cell

     iteration # 14     ecut=    50.00 Ry     beta= 0.10
     Davidson diagonalization with overlap
     ethr =  3.92E-04,  avg # of iterations =  2.0

     negative rho (up, down):  1.447E-02 2.118E-02
 
     Adding external electric field

     Computed dipole along edir(3) : 
        Dipole               -0.2801 Ry au,         -0.7120 Debye
        Dipole field         -0.0002 Ry au, 
 
        Potential amp.        0.0188 Ry
        Total length         54.2615 bohr
 
 
     Adding external electric field

     Computed dipole along edir(3) : 
        Dipole               -0.2801 Ry au,         -0.7120 Debye
        Dipole field         -0.0002 Ry au, 
 
        Potential amp.        0.0188 Ry
        Total length         54.2615 bohr
 

     total cpu time spent up to now is      196.5 secs

     total energy              =   -7397.84227602 Ry
     estimated scf accuracy    <       0.83292007 Ry

     total magnetization       =    79.81 Bohr mag/cell
     absolute magnetization    =    87.13 Bohr mag/cell

     iteration # 15     ecut=    50.00 Ry     beta= 0.10
     Davidson diagonalization with overlap
     c_bands:  3 eigenvalues not converged
     ethr =  7.73E-05,  avg # of iterations = 18.5

     negative rho (up, down):  1.924E-03 5.297E-03
 
     Adding external electric field

     Computed dipole along edir(3) : 
        Dipole               -0.4763 Ry au,         -1.2107 Debye
        Dipole field         -0.0003 Ry au, 
 
        Potential amp.        0.0320 Ry
        Total length         54.2615 bohr
 
 
     Adding external electric field

     Computed dipole along edir(3) : 
        Dipole               -0.4763 Ry au,         -1.2107 Debye
        Dipole field         -0.0003 Ry au, 
 
        Potential amp.        0.0320 Ry
        Total length         54.2615 bohr
 

     total cpu time spent up to now is      219.9 secs

     total energy              =   -7397.76518145 Ry
     estimated scf accuracy    <       0.64618059 Ry

     total magnetization       =    79.19 Bohr mag/cell
     absolute magnetization    =    85.89 Bohr mag/cell

     iteration # 16     ecut=    50.00 Ry     beta= 0.10
     Davidson diagonalization with overlap
     ethr =  5.99E-05,  avg # of iterations =  2.0

     negative rho (up, down):  2.287E-03 5.050E-03
 
     Adding external electric field

     Computed dipole along edir(3) : 
        Dipole               -0.4609 Ry au,         -1.1714 Debye
        Dipole field         -0.0003 Ry au, 
 
        Potential amp.        0.0309 Ry
        Total length         54.2615 bohr
 
 
     Adding external electric field

     Computed dipole along edir(3) : 
        Dipole               -0.4609 Ry au,         -1.1714 Debye
        Dipole field         -0.0003 Ry au, 
 
        Potential amp.        0.0309 Ry
        Total length         54.2615 bohr
 

     total cpu time spent up to now is      231.2 secs

     total energy              =   -7397.88071174 Ry
     estimated scf accuracy    <       1.86350489 Ry

     total magnetization       =    74.49 Bohr mag/cell
     absolute magnetization    =    81.04 Bohr mag/cell

     iteration # 17     ecut=    50.00 Ry     beta= 0.10
     Davidson diagonalization with overlap
     ethr =  5.99E-05,  avg # of iterations =  1.0

     negative rho (up, down):  5.273E-04 7.945E-04
 
     Adding external electric field

     Computed dipole along edir(3) : 
        Dipole               -0.5396 Ry au,         -1.3716 Debye
        Dipole field         -0.0003 Ry au, 
 
        Potential amp.        0.0362 Ry
        Total length         54.2615 bohr
 
 
     Adding external electric field

     Computed dipole along edir(3) : 
        Dipole               -0.5396 Ry au,         -1.3716 Debye
        Dipole field         -0.0003 Ry au, 
 
        Potential amp.        0.0362 Ry
        Total length         54.2615 bohr
 

     total cpu time spent up to now is      240.7 secs

     total energy              =   -7398.03291841 Ry
     estimated scf accuracy    <       0.35855706 Ry

     total magnetization       =    77.91 Bohr mag/cell
     absolute magnetization    =    83.45 Bohr mag/cell

     iteration # 18     ecut=    50.00 Ry     beta= 0.10
     Davidson diagonalization with overlap
     ethr =  3.33E-05,  avg # of iterations =  2.0

     negative rho (up, down):  4.681E-04 6.022E-04
 
     Adding external electric field

     Computed dipole along edir(3) : 
        Dipole               -0.5812 Ry au,         -1.4774 Debye
        Dipole field         -0.0004 Ry au, 
 
        Potential amp.        0.0390 Ry
        Total length         54.2615 bohr
 
 
     Adding external electric field

     Computed dipole along edir(3) : 
        Dipole               -0.5812 Ry au,         -1.4774 Debye
        Dipole field         -0.0004 Ry au, 
 
        Potential amp.        0.0390 Ry
        Total length         54.2615 bohr
 

     total cpu time spent up to now is      251.8 secs

     total energy              =   -7398.07730288 Ry
     estimated scf accuracy    <       0.13636212 Ry

     total magnetization       =    79.43 Bohr mag/cell
     absolute magnetization    =    82.45 Bohr mag/cell

     iteration # 19     ecut=    50.00 Ry     beta= 0.10
     Davidson diagonalization with overlap
     ethr =  1.26E-05,  avg # of iterations =  2.0

     negative rho (up, down):  4.556E-04 4.436E-04
 
     Adding external electric field

     Computed dipole along edir(3) : 
        Dipole               -0.6085 Ry au,         -1.5467 Debye
        Dipole field         -0.0004 Ry au, 
 
        Potential amp.        0.0408 Ry
        Total length         54.2615 bohr
 
 
     Adding external electric field

     Computed dipole along edir(3) : 
        Dipole               -0.6085 Ry au,         -1.5467 Debye
        Dipole field         -0.0004 Ry au, 
 
        Potential amp.        0.0408 Ry
        Total length         54.2615 bohr
 

     total cpu time spent up to now is      262.5 secs

     total energy              =   -7398.08086042 Ry
     estimated scf accuracy    <       0.16771027 Ry

     total magnetization       =    78.71 Bohr mag/cell
     absolute magnetization    =    81.28 Bohr mag/cell

     iteration # 20     ecut=    50.00 Ry     beta= 0.10
     Davidson diagonalization with overlap
     ethr =  1.26E-05,  avg # of iterations =  2.0

     negative rho (up, down):  6.038E-04 6.104E-04
 
     Adding external electric field

     Computed dipole along edir(3) : 
        Dipole               -0.6339 Ry au,         -1.6111 Debye
        Dipole field         -0.0004 Ry au, 
 
        Potential amp.        0.0425 Ry
        Total length         54.2615 bohr
 
 
     Adding external electric field

     Computed dipole along edir(3) : 
        Dipole               -0.6339 Ry au,         -1.6111 Debye
        Dipole field         -0.0004 Ry au, 
 
        Potential amp.        0.0425 Ry
        Total length         54.2615 bohr
 

     total cpu time spent up to now is      273.4 secs

     total energy              =   -7398.08402218 Ry
     estimated scf accuracy    <       0.15844881 Ry

     total magnetization       =    78.67 Bohr mag/cell
     absolute magnetization    =    80.96 Bohr mag/cell

     iteration # 21     ecut=    50.00 Ry     beta= 0.10
     Davidson diagonalization with overlap
     ethr =  1.26E-05,  avg # of iterations =  2.0

     negative rho (up, down):  4.895E-04 4.654E-04
 
     Adding external electric field

     Computed dipole along edir(3) : 
        Dipole               -0.6412 Ry au,         -1.6298 Debye
        Dipole field         -0.0004 Ry au, 
 
        Potential amp.        0.0430 Ry
        Total length         54.2615 bohr
 
 
     Adding external electric field

     Computed dipole along edir(3) : 
        Dipole               -0.6412 Ry au,         -1.6298 Debye
        Dipole field         -0.0004 Ry au, 
 
        Potential amp.        0.0430 Ry
        Total length         54.2615 bohr
 

     total cpu time spent up to now is      284.4 secs

     total energy              =   -7398.07910102 Ry
     estimated scf accuracy    <       0.26488951 Ry

     total magnetization       =    78.13 Bohr mag/cell
     absolute magnetization    =    80.40 Bohr mag/cell

     iteration # 22     ecut=    50.00 Ry     beta= 0.10
     Davidson diagonalization with overlap
     ethr =  1.26E-05,  avg # of iterations =  2.0

     negative rho (up, down):  3.532E-04 2.953E-04
 
     Adding external electric field

     Computed dipole along edir(3) : 
        Dipole               -0.5791 Ry au,         -1.4719 Debye
        Dipole field         -0.0004 Ry au, 
 
        Potential amp.        0.0389 Ry
        Total length         54.2615 bohr
 
 
     Adding external electric field

     Computed dipole along edir(3) : 
        Dipole               -0.5791 Ry au,         -1.4719 Debye
        Dipole field         -0.0004 Ry au, 
 
        Potential amp.        0.0389 Ry
        Total length         54.2615 bohr
 

     total cpu time spent up to now is      295.8 secs

     total energy              =   -7398.07769579 Ry
     estimated scf accuracy    <       0.10719716 Ry

     total magnetization       =    78.12 Bohr mag/cell
     absolute magnetization    =    80.19 Bohr mag/cell

     iteration # 23     ecut=    50.00 Ry     beta= 0.10
     Davidson diagonalization with overlap
     ethr =  9.94E-06,  avg # of iterations =  2.0

     negative rho (up, down):  1.778E-04 1.590E-04
 
     Adding external electric field

     Computed dipole along edir(3) : 
        Dipole               -0.5672 Ry au,         -1.4417 Debye
        Dipole field         -0.0004 Ry au, 
 
        Potential amp.        0.0381 Ry
        Total length         54.2615 bohr
 
 
     Adding external electric field

     Computed dipole along edir(3) : 
        Dipole               -0.5672 Ry au,         -1.4417 Debye
        Dipole field         -0.0004 Ry au, 
 
        Potential amp.        0.0381 Ry
        Total length         54.2615 bohr
 

     total cpu time spent up to now is      306.7 secs

     total energy              =   -7398.08141656 Ry
     estimated scf accuracy    <       0.02946709 Ry

     total magnetization       =    79.06 Bohr mag/cell
     absolute magnetization    =    80.76 Bohr mag/cell

     iteration # 24     ecut=    50.00 Ry     beta= 0.10
     Davidson diagonalization with overlap
     c_bands:  2 eigenvalues not converged
     c_bands:  4 eigenvalues not converged
     ethr =  2.73E-06,  avg # of iterations = 20.0

     negative rho (up, down):  1.155E-05 4.734E-06
 
     Adding external electric field

     Computed dipole along edir(3) : 
        Dipole               -0.5004 Ry au,         -1.2718 Debye
        Dipole field         -0.0003 Ry au, 
 
        Potential amp.        0.0336 Ry
        Total length         54.2615 bohr
 
 
     Adding external electric field

     Computed dipole along edir(3) : 
        Dipole               -0.5004 Ry au,         -1.2718 Debye
        Dipole field         -0.0003 Ry au, 
 
        Potential amp.        0.0336 Ry
        Total length         54.2615 bohr
 

     total cpu time spent up to now is      329.3 secs

     total energy              =   -7398.08070076 Ry
     estimated scf accuracy    <       0.11357237 Ry

     total magnetization       =    78.31 Bohr mag/cell
     absolute magnetization    =    80.00 Bohr mag/cell

     iteration # 25     ecut=    50.00 Ry     beta= 0.10
     Davidson diagonalization with overlap
     ethr =  2.73E-06,  avg # of iterations = 14.0

     negative rho (up, down):  1.270E-05 4.749E-06
 
     Adding external electric field

     Computed dipole along edir(3) : 
        Dipole               -0.4866 Ry au,         -1.2368 Debye
        Dipole field         -0.0003 Ry au, 
 
        Potential amp.        0.0327 Ry
        Total length         54.2615 bohr
 
 
     Adding external electric field

     Computed dipole along edir(3) : 
        Dipole               -0.4866 Ry au,         -1.2368 Debye
        Dipole field         -0.0003 Ry au, 
 
        Potential amp.        0.0327 Ry
        Total length         54.2615 bohr
 

     total cpu time spent up to now is      345.5 secs

     total energy              =   -7398.08155268 Ry
     estimated scf accuracy    <       0.03210723 Ry

     total magnetization       =    78.98 Bohr mag/cell
     absolute magnetization    =    80.56 Bohr mag/cell

     iteration # 26     ecut=    50.00 Ry     beta= 0.10
     Davidson diagonalization with overlap
     ethr =  2.73E-06,  avg # of iterations =  1.5

     negative rho (up, down):  1.122E-05 4.914E-06
 
     Adding external electric field

     Computed dipole along edir(3) : 
        Dipole               -0.4916 Ry au,         -1.2496 Debye
        Dipole field         -0.0003 Ry au, 
 
        Potential amp.        0.0330 Ry
        Total length         54.2615 bohr
 
 
     Adding external electric field

     Computed dipole along edir(3) : 
        Dipole               -0.4916 Ry au,         -1.2496 Debye
        Dipole field         -0.0003 Ry au, 
 
        Potential amp.        0.0330 Ry
        Total length         54.2615 bohr
 

     total cpu time spent up to now is      356.2 secs

     total energy              =   -7398.08230515 Ry
     estimated scf accuracy    <       0.03449623 Ry

     total magnetization       =    78.90 Bohr mag/cell
     absolute magnetization    =    80.52 Bohr mag/cell

     iteration # 27     ecut=    50.00 Ry     beta= 0.10
     Davidson diagonalization with overlap
     ethr =  2.73E-06,  avg # of iterations =  1.0

     negative rho (up, down):  3.734E-05 2.012E-05
 
     Adding external electric field

     Computed dipole along edir(3) : 
        Dipole               -0.5088 Ry au,         -1.2932 Debye
        Dipole field         -0.0003 Ry au, 
 
        Potential amp.        0.0341 Ry
        Total length         54.2615 bohr
 
 
     Adding external electric field

     Computed dipole along edir(3) : 
        Dipole               -0.5088 Ry au,         -1.2932 Debye
        Dipole field         -0.0003 Ry au, 
 
        Potential amp.        0.0341 Ry
        Total length         54.2615 bohr
 

     total cpu time spent up to now is      366.1 secs

     total energy              =   -7398.08168331 Ry
     estimated scf accuracy    <       0.04258014 Ry

     total magnetization       =    78.83 Bohr mag/cell
     absolute magnetization    =    80.45 Bohr mag/cell

     iteration # 28     ecut=    50.00 Ry     beta= 0.10
     Davidson diagonalization with overlap
     ethr =  2.73E-06,  avg # of iterations =  1.5

     negative rho (up, down):  2.809E-05 1.879E-05
 
     Adding external electric field

     Computed dipole along edir(3) : 
        Dipole               -0.4964 Ry au,         -1.2616 Debye
        Dipole field         -0.0003 Ry au, 
 
        Potential amp.        0.0333 Ry
        Total length         54.2615 bohr
 
 
     Adding external electric field

     Computed dipole along edir(3) : 
        Dipole               -0.4964 Ry au,         -1.2616 Debye
        Dipole field         -0.0003 Ry au, 
 
        Potential amp.        0.0333 Ry
        Total length         54.2615 bohr
 

     total cpu time spent up to now is      376.6 secs

     total energy              =   -7398.08145520 Ry
     estimated scf accuracy    <       0.02822854 Ry

     total magnetization       =    78.84 Bohr mag/cell
     absolute magnetization    =    80.45 Bohr mag/cell

     iteration # 29     ecut=    50.00 Ry     beta= 0.10
     Davidson diagonalization with overlap
     ethr =  2.62E-06,  avg # of iterations =  1.5

     negative rho (up, down):  1.874E-05 1.141E-05
 
     Adding external electric field

     Computed dipole along edir(3) : 
        Dipole               -0.4904 Ry au,         -1.2463 Debye
        Dipole field         -0.0003 Ry au, 
 
        Potential amp.        0.0329 Ry
        Total length         54.2615 bohr
 
 
     Adding external electric field

     Computed dipole along edir(3) : 
        Dipole               -0.4904 Ry au,         -1.2463 Debye
        Dipole field         -0.0003 Ry au, 
 
        Potential amp.        0.0329 Ry
        Total length         54.2615 bohr
 

     total cpu time spent up to now is      387.1 secs

     total energy              =   -7398.08158731 Ry
     estimated scf accuracy    <       0.02143492 Ry

     total magnetization       =    78.72 Bohr mag/cell
     absolute magnetization    =    80.32 Bohr mag/cell

     iteration # 30     ecut=    50.00 Ry     beta= 0.10
     Davidson diagonalization with overlap
     ethr =  1.99E-06,  avg # of iterations =  1.0

     negative rho (up, down):  2.204E-05 1.514E-05
 
     Adding external electric field

     Computed dipole along edir(3) : 
        Dipole               -0.4947 Ry au,         -1.2573 Debye
        Dipole field         -0.0003 Ry au, 
 
        Potential amp.        0.0332 Ry
        Total length         54.2615 bohr
 
 
     Adding external electric field

     Computed dipole along edir(3) : 
        Dipole               -0.4947 Ry au,         -1.2573 Debye
        Dipole field         -0.0003 Ry au, 
 
        Potential amp.        0.0332 Ry
        Total length         54.2615 bohr
 

     total cpu time spent up to now is      397.0 secs

     total energy              =   -7398.08185811 Ry
     estimated scf accuracy    <       0.01974647 Ry

     total magnetization       =    78.74 Bohr mag/cell
     absolute magnetization    =    80.35 Bohr mag/cell

     iteration # 31     ecut=    50.00 Ry     beta= 0.10
     Davidson diagonalization with overlap
     ethr =  1.83E-06,  avg # of iterations =  1.5

     negative rho (up, down):  2.897E-06 1.444E-06
 
     Adding external electric field

     Computed dipole along edir(3) : 
        Dipole               -0.4570 Ry au,         -1.1615 Debye
        Dipole field         -0.0003 Ry au, 
 
        Potential amp.        0.0307 Ry
        Total length         54.2615 bohr
 
 
     Adding external electric field

     Computed dipole along edir(3) : 
        Dipole               -0.4570 Ry au,         -1.1615 Debye
        Dipole field         -0.0003 Ry au, 
 
        Potential amp.        0.0307 Ry
        Total length         54.2615 bohr
 

     total cpu time spent up to now is      407.7 secs

     total energy              =   -7398.08123134 Ry
     estimated scf accuracy    <       0.02105611 Ry

     total magnetization       =    78.74 Bohr mag/cell
     absolute magnetization    =    80.35 Bohr mag/cell

     iteration # 32     ecut=    50.00 Ry     beta= 0.10
     Davidson diagonalization with overlap
     ethr =  1.83E-06,  avg # of iterations =  1.5

     negative rho (up, down):  4.362E-05 2.434E-05
 
     Adding external electric field

     Computed dipole along edir(3) : 
        Dipole               -0.4894 Ry au,         -1.2440 Debye
        Dipole field         -0.0003 Ry au, 
 
        Potential amp.        0.0328 Ry
        Total length         54.2615 bohr
 
 
     Adding external electric field

     Computed dipole along edir(3) : 
        Dipole               -0.4894 Ry au,         -1.2440 Debye
        Dipole field         -0.0003 Ry au, 
 
        Potential amp.        0.0328 Ry
        Total length         54.2615 bohr
 

     total cpu time spent up to now is      418.4 secs

     total energy              =   -7398.08084402 Ry
     estimated scf accuracy    <       0.01853578 Ry

     total magnetization       =    78.83 Bohr mag/cell
     absolute magnetization    =    80.46 Bohr mag/cell

     iteration # 33     ecut=    50.00 Ry     beta= 0.10
     Davidson diagonalization with overlap
     ethr =  1.72E-06,  avg # of iterations =  1.0

     negative rho (up, down):  9.391E-05 5.365E-05
 
     Adding external electric field

     Computed dipole along edir(3) : 
        Dipole               -0.4900 Ry au,         -1.2454 Debye
        Dipole field         -0.0003 Ry au, 
 
        Potential amp.        0.0329 Ry
        Total length         54.2615 bohr
 
 
     Adding external electric field

     Computed dipole along edir(3) : 
        Dipole               -0.4900 Ry au,         -1.2454 Debye
        Dipole field         -0.0003 Ry au, 
 
        Potential amp.        0.0329 Ry
        Total length         54.2615 bohr
 

     total cpu time spent up to now is      428.3 secs

     total energy              =   -7398.08030912 Ry
     estimated scf accuracy    <       0.01716037 Ry

     total magnetization       =    78.82 Bohr mag/cell
     absolute magnetization    =    80.40 Bohr mag/cell

     iteration # 34     ecut=    50.00 Ry     beta= 0.10
     Davidson diagonalization with overlap
     ethr =  1.59E-06,  avg # of iterations =  1.0

     negative rho (up, down):  8.286E-05 5.536E-05
 
     Adding external electric field

     Computed dipole along edir(3) : 
        Dipole               -0.4644 Ry au,         -1.1803 Debye
        Dipole field         -0.0003 Ry au, 
 
        Potential amp.        0.0312 Ry
        Total length         54.2615 bohr
 
 
     Adding external electric field

     Computed dipole along edir(3) : 
        Dipole               -0.4644 Ry au,         -1.1803 Debye
        Dipole field         -0.0003 Ry au, 
 
        Potential amp.        0.0312 Ry
        Total length         54.2615 bohr
 

     total cpu time spent up to now is      438.3 secs

     total energy              =   -7398.08047678 Ry
     estimated scf accuracy    <       0.01876824 Ry

     total magnetization       =    78.81 Bohr mag/cell
     absolute magnetization    =    80.36 Bohr mag/cell

     iteration # 35     ecut=    50.00 Ry     beta= 0.10
     Davidson diagonalization with overlap
     ethr =  1.59E-06,  avg # of iterations =  1.0

     negative rho (up, down):  1.135E-04 8.908E-05
 
     Adding external electric field

     Computed dipole along edir(3) : 
        Dipole               -0.5277 Ry au,         -1.3414 Debye
        Dipole field         -0.0003 Ry au, 
 
        Potential amp.        0.0354 Ry
        Total length         54.2615 bohr
 
 
     Adding external electric field

     Computed dipole along edir(3) : 
        Dipole               -0.5277 Ry au,         -1.3414 Debye
        Dipole field         -0.0003 Ry au, 
 
        Potential amp.        0.0354 Ry
        Total length         54.2615 bohr
 

     total cpu time spent up to now is      448.2 secs

     total energy              =   -7398.08143311 Ry
     estimated scf accuracy    <       0.02233094 Ry

     total magnetization       =    78.71 Bohr mag/cell
     absolute magnetization    =    80.27 Bohr mag/cell

     iteration # 36     ecut=    50.00 Ry     beta= 0.10
     Davidson diagonalization with overlap
     ethr =  1.59E-06,  avg # of iterations =  1.5

     negative rho (up, down):  2.021E-04 1.891E-04
 
     Adding external electric field

     Computed dipole along edir(3) : 
        Dipole               -0.5654 Ry au,         -1.4371 Debye
        Dipole field         -0.0003 Ry au, 
 
        Potential amp.        0.0379 Ry
        Total length         54.2615 bohr
 
 
     Adding external electric field

     Computed dipole along edir(3) : 
        Dipole               -0.5654 Ry au,         -1.4371 Debye
        Dipole field         -0.0003 Ry au, 
 
        Potential amp.        0.0379 Ry
        Total length         54.2615 bohr
 

     total cpu time spent up to now is      459.1 secs

     total energy              =   -7398.08184206 Ry
     estimated scf accuracy    <       0.02059303 Ry

     total magnetization       =    78.71 Bohr mag/cell
     absolute magnetization    =    80.27 Bohr mag/cell

     iteration # 37     ecut=    50.00 Ry     beta= 0.10
     Davidson diagonalization with overlap
     ethr =  1.59E-06,  avg # of iterations =  1.5

     negative rho (up, down):  1.966E-04 1.819E-04
 
     Adding external electric field

     Computed dipole along edir(3) : 
        Dipole               -0.5643 Ry au,         -1.4344 Debye
        Dipole field         -0.0003 Ry au, 
 
        Potential amp.        0.0379 Ry
        Total length         54.2615 bohr
 
 
     Adding external electric field

     Computed dipole along edir(3) : 
        Dipole               -0.5643 Ry au,         -1.4344 Debye
        Dipole field         -0.0003 Ry au, 
 
        Potential amp.        0.0379 Ry
        Total length         54.2615 bohr
 

     total cpu time spent up to now is      469.9 secs

     total energy              =   -7398.08186517 Ry
     estimated scf accuracy    <       0.01716665 Ry

     total magnetization       =    78.76 Bohr mag/cell
     absolute magnetization    =    80.30 Bohr mag/cell

     iteration # 38     ecut=    50.00 Ry     beta= 0.10
     Davidson diagonalization with overlap
     ethr =  1.59E-06,  avg # of iterations =  1.0

     negative rho (up, down):  3.314E-04 3.143E-04
 
     Adding external electric field

     Computed dipole along edir(3) : 
        Dipole               -0.6148 Ry au,         -1.5627 Debye
        Dipole field         -0.0004 Ry au, 
 
        Potential amp.        0.0413 Ry
        Total length         54.2615 bohr
 
 
     Adding external electric field

     Computed dipole along edir(3) : 
        Dipole               -0.6148 Ry au,         -1.5627 Debye
        Dipole field         -0.0004 Ry au, 
 
        Potential amp.        0.0413 Ry
        Total length         54.2615 bohr
 

     total cpu time spent up to now is      479.9 secs

     total energy              =   -7398.08229529 Ry
     estimated scf accuracy    <       0.01654591 Ry

     total magnetization       =    78.80 Bohr mag/cell
     absolute magnetization    =    80.34 Bohr mag/cell

     iteration # 39     ecut=    50.00 Ry     beta= 0.10
     Davidson diagonalization with overlap
     ethr =  1.53E-06,  avg # of iterations =  1.5

     negative rho (up, down):  1.861E-04 1.849E-04
 
     Adding external electric field

     Computed dipole along edir(3) : 
        Dipole               -0.5670 Ry au,         -1.4412 Debye
        Dipole field         -0.0004 Ry au, 
 
        Potential amp.        0.0381 Ry
        Total length         54.2615 bohr
 
 
     Adding external electric field

     Computed dipole along edir(3) : 
        Dipole               -0.5670 Ry au,         -1.4412 Debye
        Dipole field         -0.0004 Ry au, 
 
        Potential amp.        0.0381 Ry
        Total length         54.2615 bohr
 

     total cpu time spent up to now is      490.4 secs

     total energy              =   -7398.08197493 Ry
     estimated scf accuracy    <       0.01689469 Ry

     total magnetization       =    78.79 Bohr mag/cell
     absolute magnetization    =    80.35 Bohr mag/cell

     iteration # 40     ecut=    50.00 Ry     beta= 0.10
     Davidson diagonalization with overlap
     ethr =  1.53E-06,  avg # of iterations =  1.5

     negative rho (up, down):  2.604E-04 2.449E-04
 
     Adding external electric field

     Computed dipole along edir(3) : 
        Dipole               -0.5861 Ry au,         -1.4897 Debye
        Dipole field         -0.0004 Ry au, 
 
        Potential amp.        0.0393 Ry
        Total length         54.2615 bohr
 
 
     Adding external electric field

     Computed dipole along edir(3) : 
        Dipole               -0.5861 Ry au,         -1.4897 Debye
        Dipole field         -0.0004 Ry au, 
 
        Potential amp.        0.0393 Ry
        Total length         54.2615 bohr
 

     total cpu time spent up to now is      501.2 secs

     total energy              =   -7398.08204506 Ry
     estimated scf accuracy    <       0.01751240 Ry

     total magnetization       =    78.80 Bohr mag/cell
     absolute magnetization    =    80.34 Bohr mag/cell

     iteration # 41     ecut=    50.00 Ry     beta= 0.10
     Davidson diagonalization with overlap
     ethr =  1.53E-06,  avg # of iterations =  1.5

     negative rho (up, down):  3.848E-04 3.646E-04
 
     Adding external electric field

     Computed dipole along edir(3) : 
        Dipole               -0.6145 Ry au,         -1.5618 Debye
        Dipole field         -0.0004 Ry au, 
 
        Potential amp.        0.0412 Ry
        Total length         54.2615 bohr
 
 
     Adding external electric field

     Computed dipole along edir(3) : 
        Dipole               -0.6145 Ry au,         -1.5618 Debye
        Dipole field         -0.0004 Ry au, 
 
        Potential amp.        0.0412 Ry
        Total length         54.2615 bohr
 

     total cpu time spent up to now is      512.0 secs

     total energy              =   -7398.08197916 Ry
     estimated scf accuracy    <       0.01708929 Ry

     total magnetization       =    78.80 Bohr mag/cell
     absolute magnetization    =    80.35 Bohr mag/cell

     iteration # 42     ecut=    50.00 Ry     beta= 0.10
     Davidson diagonalization with overlap
     ethr =  1.53E-06,  avg # of iterations =  1.5

     negative rho (up, down):  2.997E-04 2.949E-04
 
     Adding external electric field

     Computed dipole along edir(3) : 
        Dipole               -0.6059 Ry au,         -1.5401 Debye
        Dipole field         -0.0004 Ry au, 
 
        Potential amp.        0.0407 Ry
        Total length         54.2615 bohr
 
 
     Adding external electric field

     Computed dipole along edir(3) : 
        Dipole               -0.6059 Ry au,         -1.5401 Debye
        Dipole field         -0.0004 Ry au, 
 
        Potential amp.        0.0407 Ry
        Total length         54.2615 bohr
 

     total cpu time spent up to now is      523.3 secs

     total energy              =   -7398.08234268 Ry
     estimated scf accuracy    <       0.01660639 Ry

     total magnetization       =    78.80 Bohr mag/cell
     absolute magnetization    =    80.32 Bohr mag/cell

     iteration # 43     ecut=    50.00 Ry     beta= 0.10
     Davidson diagonalization with overlap
     ethr =  1.53E-06,  avg # of iterations =  1.0

     negative rho (up, down):  3.253E-04 3.206E-04
 
     Adding external electric field

     Computed dipole along edir(3) : 
        Dipole               -0.6376 Ry au,         -1.6205 Debye
        Dipole field         -0.0004 Ry au, 
 
        Potential amp.        0.0428 Ry
        Total length         54.2615 bohr
 
 
     Adding external electric field

     Computed dipole along edir(3) : 
        Dipole               -0.6376 Ry au,         -1.6205 Debye
        Dipole field         -0.0004 Ry au, 
 
        Potential amp.        0.0428 Ry
        Total length         54.2615 bohr
 

     total cpu time spent up to now is      534.6 secs

     total energy              =   -7398.08272515 Ry
     estimated scf accuracy    <       0.01694362 Ry

     total magnetization       =    78.79 Bohr mag/cell
     absolute magnetization    =    80.36 Bohr mag/cell

     iteration # 44     ecut=    50.00 Ry     beta= 0.10
     Davidson diagonalization with overlap
     ethr =  1.53E-06,  avg # of iterations =  2.0

     negative rho (up, down):  3.542E-04 3.458E-04
 
     Adding external electric field

     Computed dipole along edir(3) : 
        Dipole               -0.5817 Ry au,         -1.4785 Debye
        Dipole field         -0.0004 Ry au, 
 
        Potential amp.        0.0390 Ry
        Total length         54.2615 bohr
 
 
     Adding external electric field

     Computed dipole along edir(3) : 
        Dipole               -0.5817 Ry au,         -1.4785 Debye
        Dipole field         -0.0004 Ry au, 
 
        Potential amp.        0.0390 Ry
        Total length         54.2615 bohr
 

     total cpu time spent up to now is      547.3 secs

     total energy              =   -7398.08200356 Ry
     estimated scf accuracy    <       0.01703321 Ry

     total magnetization       =    78.80 Bohr mag/cell
     absolute magnetization    =    80.38 Bohr mag/cell

     iteration # 45     ecut=    50.00 Ry     beta= 0.10
     Davidson diagonalization with overlap
     ethr =  1.53E-06,  avg # of iterations =  1.0

     negative rho (up, down):  4.665E-04 4.521E-04
 
     Adding external electric field

     Computed dipole along edir(3) : 
        Dipole               -0.5351 Ry au,         -1.3601 Debye
        Dipole field         -0.0003 Ry au, 
 
        Potential amp.        0.0359 Ry
        Total length         54.2615 bohr
 
 
     Adding external electric field

     Computed dipole along edir(3) : 
        Dipole               -0.5351 Ry au,         -1.3601 Debye
        Dipole field         -0.0003 Ry au, 
 
        Potential amp.        0.0359 Ry
        Total length         54.2615 bohr
 

     total cpu time spent up to now is      557.4 secs

     total energy              =   -7398.08158550 Ry
     estimated scf accuracy    <       0.01550465 Ry

     total magnetization       =    78.78 Bohr mag/cell
     absolute magnetization    =    80.36 Bohr mag/cell

     iteration # 46     ecut=    50.00 Ry     beta= 0.10
     Davidson diagonalization with overlap
     ethr =  1.44E-06,  avg # of iterations =  2.0

     negative rho (up, down):  4.527E-04 4.541E-04
 
     Adding external electric field

     Computed dipole along edir(3) : 
        Dipole               -0.5168 Ry au,         -1.3135 Debye
        Dipole field         -0.0003 Ry au, 
 
        Potential amp.        0.0347 Ry
        Total length         54.2615 bohr
 
 
     Adding external electric field

     Computed dipole along edir(3) : 
        Dipole               -0.5168 Ry au,         -1.3135 Debye
        Dipole field         -0.0003 Ry au, 
 
        Potential amp.        0.0347 Ry
        Total length         54.2615 bohr
 

     total cpu time spent up to now is      568.8 secs

     total energy              =   -7398.08145035 Ry
     estimated scf accuracy    <       0.01497988 Ry

     total magnetization       =    78.77 Bohr mag/cell
     absolute magnetization    =    80.36 Bohr mag/cell

     iteration # 47     ecut=    50.00 Ry     beta= 0.10
     Davidson diagonalization with overlap
     ethr =  1.39E-06,  avg # of iterations =  1.0

     negative rho (up, down):  4.332E-04 4.183E-04
 
     Adding external electric field

     Computed dipole along edir(3) : 
        Dipole               -0.5198 Ry au,         -1.3212 Debye
        Dipole field         -0.0003 Ry au, 
 
        Potential amp.        0.0349 Ry
        Total length         54.2615 bohr
 
 
     Adding external electric field

     Computed dipole along edir(3) : 
        Dipole               -0.5198 Ry au,         -1.3212 Debye
        Dipole field         -0.0003 Ry au, 
 
        Potential amp.        0.0349 Ry
        Total length         54.2615 bohr
 

     total cpu time spent up to now is      579.1 secs

     total energy              =   -7398.08155554 Ry
     estimated scf accuracy    <       0.01514188 Ry

     total magnetization       =    78.74 Bohr mag/cell
     absolute magnetization    =    80.31 Bohr mag/cell

     iteration # 48     ecut=    50.00 Ry     beta= 0.10
     Davidson diagonalization with overlap
     ethr =  1.39E-06,  avg # of iterations =  1.0

     negative rho (up, down):  5.218E-04 5.029E-04
 
     Adding external electric field

     Computed dipole along edir(3) : 
        Dipole               -0.5161 Ry au,         -1.3117 Debye
        Dipole field         -0.0003 Ry au, 
 
        Potential amp.        0.0346 Ry
        Total length         54.2615 bohr
 
 
     Adding external electric field

     Computed dipole along edir(3) : 
        Dipole               -0.5161 Ry au,         -1.3117 Debye
        Dipole field         -0.0003 Ry au, 
 
        Potential amp.        0.0346 Ry
        Total length         54.2615 bohr
 

     total cpu time spent up to now is      589.3 secs

     total energy              =   -7398.08139566 Ry
     estimated scf accuracy    <       0.01492240 Ry

     total magnetization       =    78.77 Bohr mag/cell
     absolute magnetization    =    80.35 Bohr mag/cell

     iteration # 49     ecut=    50.00 Ry     beta= 0.10
     Davidson diagonalization with overlap
     ethr =  1.38E-06,  avg # of iterations =  1.0

     negative rho (up, down):  5.548E-04 5.182E-04
 
     Adding external electric field

     Computed dipole along edir(3) : 
        Dipole               -0.5476 Ry au,         -1.3919 Debye
        Dipole field         -0.0003 Ry au, 
 
        Potential amp.        0.0368 Ry
        Total length         54.2615 bohr
 
 
     Adding external electric field

     Computed dipole along edir(3) : 
        Dipole               -0.5476 Ry au,         -1.3919 Debye
        Dipole field         -0.0003 Ry au, 
 
        Potential amp.        0.0368 Ry
        Total length         54.2615 bohr
 

     total cpu time spent up to now is      600.1 secs

     total energy              =   -7398.08147963 Ry
     estimated scf accuracy    <       0.01480213 Ry

     total magnetization       =    78.77 Bohr mag/cell
     absolute magnetization    =    80.35 Bohr mag/cell

     iteration # 50     ecut=    50.00 Ry     beta= 0.10
     Davidson diagonalization with overlap
     ethr =  1.37E-06,  avg # of iterations =  1.0

     negative rho (up, down):  5.278E-04 5.109E-04
 
     Adding external electric field

     Computed dipole along edir(3) : 
        Dipole               -0.5112 Ry au,         -1.2994 Debye
        Dipole field         -0.0003 Ry au, 
 
        Potential amp.        0.0343 Ry
        Total length         54.2615 bohr
 
 
     Adding external electric field

     Computed dipole along edir(3) : 
        Dipole               -0.5112 Ry au,         -1.2994 Debye
        Dipole field         -0.0003 Ry au, 
 
        Potential amp.        0.0343 Ry
        Total length         54.2615 bohr
 

     total cpu time spent up to now is      610.4 secs

     total energy              =   -7398.08136249 Ry
     estimated scf accuracy    <       0.01523695 Ry

     total magnetization       =    78.76 Bohr mag/cell
     absolute magnetization    =    80.35 Bohr mag/cell

     iteration # 51     ecut=    50.00 Ry     beta= 0.10
     Davidson diagonalization with overlap
     ethr =  1.37E-06,  avg # of iterations =  1.0

     negative rho (up, down):  4.683E-04 4.596E-04
 
     Adding external electric field

     Computed dipole along edir(3) : 
        Dipole               -0.5021 Ry au,         -1.2761 Debye
        Dipole field         -0.0003 Ry au, 
 
        Potential amp.        0.0337 Ry
        Total length         54.2615 bohr
 
 
     Adding external electric field

     Computed dipole along edir(3) : 
        Dipole               -0.5021 Ry au,         -1.2761 Debye
        Dipole field         -0.0003 Ry au, 
 
        Potential amp.        0.0337 Ry
        Total length         54.2615 bohr
 

     total cpu time spent up to now is      621.0 secs

     total energy              =   -7398.08150820 Ry
     estimated scf accuracy    <       0.01481546 Ry

     total magnetization       =    78.77 Bohr mag/cell
     absolute magnetization    =    80.35 Bohr mag/cell

     iteration # 52     ecut=    50.00 Ry     beta= 0.10
     Davidson diagonalization with overlap
     ethr =  1.37E-06,  avg # of iterations =  1.0

     negative rho (up, down):  4.900E-04 4.593E-04
 
     Adding external electric field

     Computed dipole along edir(3) : 
        Dipole               -0.4448 Ry au,         -1.1306 Debye
        Dipole field         -0.0003 Ry au, 
 
        Potential amp.        0.0299 Ry
        Total length         54.2615 bohr
 
 
     Adding external electric field

     Computed dipole along edir(3) : 
        Dipole               -0.4448 Ry au,         -1.1306 Debye
        Dipole field         -0.0003 Ry au, 
 
        Potential amp.        0.0299 Ry
        Total length         54.2615 bohr
 

     total cpu time spent up to now is      631.4 secs

     total energy              =   -7398.08035763 Ry
     estimated scf accuracy    <       0.01509278 Ry

     total magnetization       =    78.77 Bohr mag/cell
     absolute magnetization    =    80.38 Bohr mag/cell

     iteration # 53     ecut=    50.00 Ry     beta= 0.10
     Davidson diagonalization with overlap
     ethr =  1.37E-06,  avg # of iterations =  1.0

     negative rho (up, down):  5.119E-04 4.883E-04
 
     Adding external electric field

     Computed dipole along edir(3) : 
        Dipole               -0.4958 Ry au,         -1.2603 Debye
        Dipole field         -0.0003 Ry au, 
 
        Potential amp.        0.0333 Ry
        Total length         54.2615 bohr
 
 
     Adding external electric field

     Computed dipole along edir(3) : 
        Dipole               -0.4958 Ry au,         -1.2603 Debye
        Dipole field         -0.0003 Ry au, 
 
        Potential amp.        0.0333 Ry
        Total length         54.2615 bohr
 

     total cpu time spent up to now is      641.6 secs

     total energy              =   -7398.08102570 Ry
     estimated scf accuracy    <       0.01545412 Ry

     total magnetization       =    78.78 Bohr mag/cell
     absolute magnetization    =    80.32 Bohr mag/cell

     iteration # 54     ecut=    50.00 Ry     beta= 0.10
     Davidson diagonalization with overlap
     ethr =  1.37E-06,  avg # of iterations =  1.0

     negative rho (up, down):  5.133E-04 4.970E-04
 
     Adding external electric field

     Computed dipole along edir(3) : 
        Dipole               -0.2076 Ry au,         -0.5276 Debye
        Dipole field         -0.0001 Ry au, 
 
        Potential amp.        0.0139 Ry
        Total length         54.2615 bohr
 
 
     Adding external electric field

     Computed dipole along edir(3) : 
        Dipole               -0.2076 Ry au,         -0.5276 Debye
        Dipole field         -0.0001 Ry au, 
 
        Potential amp.        0.0139 Ry
        Total length         54.2615 bohr
 

     total cpu time spent up to now is      652.3 secs

     total energy              =   -7398.07932525 Ry
     estimated scf accuracy    <       0.01560803 Ry

     total magnetization       =    78.78 Bohr mag/cell
     absolute magnetization    =    80.32 Bohr mag/cell

     iteration # 55     ecut=    50.00 Ry     beta= 0.10
     Davidson diagonalization with overlap
     ethr =  1.37E-06,  avg # of iterations =  3.5

     negative rho (up, down):  5.784E-04 5.729E-04
 
     Adding external electric field

     Computed dipole along edir(3) : 
        Dipole               -0.2266 Ry au,         -0.5760 Debye
        Dipole field         -0.0001 Ry au, 
 
        Potential amp.        0.0152 Ry
        Total length         54.2615 bohr
 
 
     Adding external electric field

     Computed dipole along edir(3) : 
        Dipole               -0.2266 Ry au,         -0.5760 Debye
        Dipole field         -0.0001 Ry au, 
 
        Potential amp.        0.0152 Ry
        Total length         54.2615 bohr
 

     total cpu time spent up to now is      665.4 secs

     total energy              =   -7398.07944136 Ry
     estimated scf accuracy    <       0.01170362 Ry

     total magnetization       =    78.79 Bohr mag/cell
     absolute magnetization    =    80.35 Bohr mag/cell

     iteration # 56     ecut=    50.00 Ry     beta= 0.10
     Davidson diagonalization with overlap
     ethr =  1.09E-06,  avg # of iterations =  1.0

     negative rho (up, down):  7.147E-04 7.627E-04
 
     Adding external electric field

     Computed dipole along edir(3) : 
        Dipole               -0.1070 Ry au,         -0.2720 Debye
        Dipole field         -0.0001 Ry au, 
 
        Potential amp.        0.0072 Ry
        Total length         54.2615 bohr
 
 
     Adding external electric field

     Computed dipole along edir(3) : 
        Dipole               -0.1070 Ry au,         -0.2720 Debye
        Dipole field         -0.0001 Ry au, 
 
        Potential amp.        0.0072 Ry
        Total length         54.2615 bohr
 

     total cpu time spent up to now is      675.4 secs

     total energy              =   -7398.07860792 Ry
     estimated scf accuracy    <       0.01093896 Ry

     total magnetization       =    78.77 Bohr mag/cell
     absolute magnetization    =    80.35 Bohr mag/cell

     iteration # 57     ecut=    50.00 Ry     beta= 0.10
     Davidson diagonalization with overlap
     ethr =  1.01E-06,  avg # of iterations =  2.0

     negative rho (up, down):  5.563E-04 6.883E-04
 
     Adding external electric field

     Computed dipole along edir(3) : 
        Dipole                0.0377 Ry au,          0.0959 Debye
        Dipole field          0.0000 Ry au, 
 
        Potential amp.       -0.0025 Ry
        Total length         54.2615 bohr
 
 
     Adding external electric field

     Computed dipole along edir(3) : 
        Dipole                0.0377 Ry au,          0.0959 Debye
        Dipole field          0.0000 Ry au, 
 
        Potential amp.       -0.0025 Ry
        Total length         54.2615 bohr
 

     total cpu time spent up to now is      686.6 secs

     total energy              =   -7398.07776610 Ry
     estimated scf accuracy    <       0.00899481 Ry

     total magnetization       =    78.73 Bohr mag/cell
     absolute magnetization    =    80.32 Bohr mag/cell

     iteration # 58     ecut=    50.00 Ry     beta= 0.10
     Davidson diagonalization with overlap
     ethr =  8.34E-07,  avg # of iterations =  2.0

     negative rho (up, down):  1.091E-03 1.226E-03
 
     Adding external electric field

     Computed dipole along edir(3) : 
        Dipole                0.1857 Ry au,          0.4720 Debye
        Dipole field          0.0001 Ry au, 
 
        Potential amp.       -0.0125 Ry
[...]
    -6.0024  -5.9834  -5.9705  -5.9572  -5.9474  -5.8997  -5.8592  -5.8516
    -5.8275  -5.8202  -5.7997  -5.7799  -5.7694  -5.7370  -5.7132  -5.6964
    -5.6941  -5.6738  -5.6576  -5.6533  -5.6286  -5.6109  -5.5732  -5.5350
    -5.5077  -5.4733  -5.4442  -5.4242  -5.4149  -5.3922  -5.3617  -5.2943
    -5.2754  -5.2553  -5.2431  -5.2327  -5.1495  -5.1221  -5.1104  -5.0741
    -5.0448  -5.0045  -4.9847  -4.9701  -4.9355  -4.9242  -4.8939  -4.8717
    -4.8181  -4.7966  -4.7475  -4.7390  -4.7095  -4.6988  -4.6659  -4.5914
    -4.5400  -4.5269  -4.5210  -4.4931  -4.4859  -4.4610  -4.4069  -4.3863
    -4.3759  -4.3148  -4.2592  -4.2268  -4.1933  -4.1800  -4.1506  -4.1393
    -4.0885  -4.0596  -4.0337  -4.0200  -3.9910  -3.9605  -3.9432  -3.9260
    -3.9223  -3.8824  -3.8448  -3.8268  -3.8163  -3.7680  -3.7459  -3.7423
    -3.7249  -3.6974  -3.6806  -3.6751  -3.6659  -3.6396  -3.6383  -3.6178
    -3.5679  -3.5469  -3.5406  -3.5168  -3.5105  -3.5059  -3.4725  -3.4668
    -3.4554  -3.4150  -3.3948  -3.3781  -3.3542  -3.3460  -3.3013  -3.2837
    -3.2759  -3.2457  -3.2209  -3.2064  -3.1969  -3.1802  -3.1681  -3.1591
    -3.1239  -3.1134  -3.0789  -3.0490  -3.0428  -3.0216  -3.0140  -2.9663
    -2.9576  -2.9337  -2.9289  -2.9014  -2.8725  -2.8554  -2.8370  -2.8137
    -2.8013  -2.7881  -2.7866  -2.7778  -2.7719  -2.7609  -2.7517  -2.7375
    -2.7148  -2.6989  -2.6771  -2.6705  -2.6458  -2.6394  -2.6150  -2.6003
    -2.5807  -2.5722  -2.5403  -2.5213  -2.5054  -2.5044  -2.4827  -2.4670
    -2.4329  -2.4326  -2.4099  -2.4074  -2.3640  -2.3549  -2.3209  -2.3193
    -2.2943  -2.2652  -2.2524  -2.2334  -2.2106  -2.2049  -2.1773  -2.1499
    -2.1462  -2.1264  -2.0994  -2.0852  -2.0693  -2.0623  -2.0339  -2.0058
    -2.0046  -1.9938  -1.9826  -1.9649  -1.9339  -1.9237  -1.9081  -1.8848
    -1.8625  -1.8446  -1.8118  -1.8072  -1.8036  -1.7719  -1.7511  -1.7323
    -1.7139  -1.6864  -1.6799  -1.6596  -1.6423  -1.6145  -1.5691  -1.5603
    -1.5562  -1.5416  -1.5100  -1.5024  -1.4796  -1.4563  -1.4454  -1.4280
    -1.4265  -1.3937  -1.3612  -1.3305  -1.3179  -1.2997  -1.2828  -1.2486
    -1.2038  -1.1826  -1.1154  -1.0935  -1.0047  -0.9870  -0.9012  -0.8589
    -0.8438  -0.8046  -0.7085  -0.5532  -0.5167  -0.4111  -0.3406  -0.2360
     0.0880   0.1115   0.1379   0.1784   0.2091   0.2165   0.2283   0.2337
     0.2586   0.2722   0.2842   0.2932   0.3001   0.3023   0.3253   0.3322
     0.3360   0.3448   0.3517   0.3619   0.3668   0.3810   0.3845   0.3912
     0.3999   0.4033   0.4073   0.4130   0.4252   0.4302   0.4326   0.4401
     0.4471   0.4638   0.4680   0.4717   0.4748   0.4817   0.4849   0.4911
     0.5080   0.5174   0.5212   0.5231   0.5289   0.5383   0.5425   0.5535
     0.5629   0.5740   0.5859   0.5880   0.5988   0.6004   0.6093   0.6176
     0.6238   0.6290   0.6351   0.6398   0.6519   0.6543   0.6609   0.6663
     0.6757   0.6816   0.7018   0.7083   0.7172   0.7263   0.7271   0.7278
     0.7308   0.7464   0.7498   0.7727   0.7817   0.7912   0.7991   0.8105
     0.8110   0.8233   0.8238   0.8378   0.8450   0.8505   0.8590   0.8735
     0.8752   0.8953   0.8979   0.9200   0.9223   0.9429   0.9583   0.9799
     0.9942   1.1042   1.1380   1.6531   1.6611   1.6664   1.6949   1.6959
     1.7160   1.7186   1.8088   1.8313   1.8605   1.8798   1.9213   1.9267
     1.9464   1.9758   1.9962   2.0003   2.0279   2.0460   2.0528   2.0842
     2.1060   2.1136   2.1482   2.1655   2.1758   2.1883   2.2167   2.2221
     2.2263   2.2419   2.2452   2.2662   2.2777   2.2848   2.3028   2.3142
     2.3220   2.3314   2.3365   2.3606   2.3708   2.3917   2.4064   2.4186
     2.4439   2.4448   2.4713   2.4777   2.5013   2.5068   2.5201   2.5505
     2.5633   2.5726   2.5906   2.6276   2.6580   2.7002   2.7165   2.7753
     2.7802   2.7935   2.8286   2.8517   2.8919   3.2603   3.4495   3.6969
     3.7695   3.8459   3.9149   3.9814   4.0054   4.0718   4.3216   4.4102
     4.6178   4.7457   4.8613   4.8907   4.9323   5.0229   5.3794   6.2861
     6.3323   6.4816   6.5609   6.6500   6.7095   6.8041   6.8125   6.8573
     7.0016   7.0303   7.0922   7.1118   7.2864   7.3370   7.3428   7.3749
     7.5003   7.5831   7.6245   7.6611   7.6935   7.6970   7.7827   7.8148
     7.8650   7.9080   7.9341   7.9485   7.9798   7.9951   8.0487   8.0757
     8.0948   8.1156   8.1506   8.1952   8.2350   8.2496   8.2712   8.3004
     8.3131   8.3433   8.3845   8.4334   8.4557   8.4657   8.4974   8.5164
     8.5347   8.5439   8.5515   8.5767   8.6085   8.6302   8.6355   8.6629
     8.6939   8.7134   8.7332   8.7937   8.8149   8.8344   8.8733

     the Fermi energy is     1.5512 ev

!    total energy              =   -7398.07881308 Ry
     estimated scf accuracy    <       0.00000085 Ry
     smearing contrib. (-TS)   =      -0.01376545 Ry
     internal energy E=F+TS    =   -7398.06504763 Ry

     The total energy is F=E-TS. E is the sum of the following terms:
     one-electron contribution =  -91724.71162870 Ry
     hartree contribution      =   46509.09846424 Ry
     xc contribution           =   -2260.23293234 Ry
     ewald contribution        =   40079.61396453 Ry
     Dispersion Correction     =      -1.83292510 Ry
     electric field correction =       0.00000974 Ry

     total magnetization       =    78.78 Bohr mag/cell
     absolute magnetization    =    80.44 Bohr mag/cell

     convergence has been achieved in  84 iterations

     negative rho (up, down):  9.270E-04 5.557E-04

     Forces acting on atoms (cartesian axes, Ry/au):

     atom    1 type  2   force =    -0.00050232    0.00067834    0.00005005
     atom    2 type  1   force =    -0.00006912    0.00011850   -0.00003794
     atom    3 type  1   force =     0.00004411   -0.00090823    0.00006009
     atom    4 type  1   force =    -0.00012120    0.00003672    0.00041473
     atom    5 type  1   force =    -0.00020573    0.00009323    0.00064913
     atom    6 type  1   force =    -0.00006769   -0.00080765    0.00038259
     atom    7 type  1   force =    -0.00021949   -0.00006333    0.00032197
     atom    8 type  1   force =    -0.00037238   -0.00009840   -0.00028287
     atom    9 type  1   force =    -0.00015653    0.00021338   -0.00013695
     atom   10 type  1   force =    -0.00037365    0.00019049    0.00007645
     atom   11 type  1   force =    -0.00052531    0.00056283   -0.00025249
     atom   12 type  1   force =     0.00021853   -0.00006629   -0.00059357
     atom   13 type  3   force =    -0.00050629   -0.00019821   -0.00014083
     atom   14 type  3   force =    -0.00000272   -0.00006325   -0.00027943
     atom   15 type  3   force =    -0.00011541   -0.00011606   -0.00033800
     atom   16 type  3   force =     0.00001288   -0.00000765   -0.00013125
     atom   17 type  4   force =     0.00008358   -0.00020798    0.00014135
     atom   18 type  4   force =     0.00035285   -0.00001730    0.00011558
     atom   19 type  4   force =     0.00030950   -0.00046296    0.00077465
     atom   20 type  4   force =    -0.00002980    0.00038408    0.00033013
     atom   21 type  4   force =    -0.00032250    0.00019654   -0.00012409
     atom   22 type  4   force =    -0.00014354    0.00023103   -0.00011730
     atom   23 type  4   force =     0.00014967   -0.00048258   -0.00081146
     atom   24 type  4   force =     0.00015268   -0.00007410    0.00010419
     atom   25 type  4   force =    -0.00014897    0.00018831    0.00011910
     atom   26 type  4   force =     0.00061417   -0.00010916    0.00013514
     atom   27 type  4   force =    -0.00016062    0.00040659    0.00003854
     atom   28 type  4   force =    -0.00014832    0.00001113   -0.00028150
     atom   29 type  4   force =     0.00019237   -0.00047287    0.00007849
     atom   30 type  4   force =    -0.00055856   -0.00015510   -0.00016160
     atom   31 type  4   force =    -0.00015239    0.00023984   -0.00034207
     atom   32 type  4   force =     0.00002357    0.00022537   -0.00054012
     atom   33 type  3   force =     0.00075613    0.00006353    0.00043958
     atom   34 type  3   force =    -0.00026589    0.00064195    0.00067486
     atom   35 type  3   force =     0.00020174   -0.00014961    0.00005993
     atom   36 type  3   force =    -0.00029214   -0.00006827   -0.00027854
     atom   37 type  4   force =     0.00001843    0.00005486    0.00011523
     atom   38 type  4   force =    -0.00011441    0.00037209   -0.00006899
     atom   39 type  4   force =    -0.00013086    0.00006190    0.00015587
     atom   40 type  4   force =    -0.00022023   -0.00013129   -0.00028446
     atom   41 type  4   force =    -0.00004912   -0.00019554   -0.00021519
     atom   42 type  4   force =    -0.00022468    0.00003784    0.00012572
     atom   43 type  4   force =     0.00031896    0.00004006    0.00020087
     atom   44 type  4   force =     0.00005314   -0.00024214   -0.00018919
     atom   45 type  4   force =    -0.00011319    0.00010042   -0.00023625
     atom   46 type  4   force =     0.00042814   -0.00008414    0.00004995
     atom   47 type  4   force =    -0.00007200   -0.00029550    0.00012752
     atom   48 type  4   force =     0.00034299    0.00050836   -0.00016117
     atom   49 type  4   force =     0.00016012   -0.00007041   -0.00031052
     atom   50 type  4   force =    -0.00025648   -0.00019925    0.00009252
     atom   51 type  4   force =     0.00000065   -0.00013767   -0.00001935
     atom   52 type  4   force =     0.00016669   -0.00027532   -0.00015198
     atom   53 type  2   force =     0.00245205   -0.00344866    0.00482744
     atom   54 type  1   force =     0.00498639   -0.00221502    0.00376675
     atom   55 type  1   force =     0.00817672   -0.00303964    0.00213440
     atom   56 type  1   force =    -0.00195141    0.01039796    0.00596408
     atom   57 type  1   force =     0.00041764    0.02298895    0.01449352
     atom   58 type  1   force =     0.00204705   -0.00331801   -0.00188689
     atom   59 type  1   force =     0.00093437   -0.00889362    0.00069647
     atom   60 type  1   force =    -0.00508528   -0.00190835    0.00468521
     atom   61 type  1   force =    -0.00187050   -0.00050672    0.00375936
     atom   62 type  1   force =    -0.00437481    0.00844617    0.00585023
     atom   63 type  1   force =    -0.01151299    0.02580065    0.01844611
     atom   64 type  1   force =    -0.00197945    0.00111684    0.00108169
     atom   65 type  3   force =     0.04621123   -0.11392786   -0.01056216
     atom   66 type  3   force =    -0.00058414   -0.00146018    0.00423702
     atom   67 type  3   force =    -0.03975220    0.12465836    0.01506421
     atom   68 type  3   force =     0.06273626   -0.00163284   -0.00331810
     atom   69 type  4   force =     0.01385455   -0.01828238    0.00355535
     atom   70 type  4   force =    -0.00066219    0.00262894   -0.00116814
     atom   71 type  4   force =    -0.00124773    0.00355437   -0.00547420
     atom   72 type  4   force =     0.00403056    0.00187164   -0.00079046
     atom   73 type  4   force =     0.00100102   -0.01150310    0.00274126
     atom   74 type  4   force =    -0.00021668   -0.00066348   -0.00007961
     atom   75 type  4   force =     0.00140653    0.01464396    0.00520265
     atom   76 type  4   force =     0.00829314    0.00525730    0.00933306
     atom   77 type  4   force =     0.00704799   -0.00272781    0.00157907
     atom   78 type  4   force =     0.04461736   -0.14177753   -0.00650229
     atom   79 type  4   force =     0.00186863    0.00191101    0.00141610
     atom   80 type  4   force =    -0.00003880    0.00291424   -0.00166775
     atom   81 type  4   force =     0.06795024    0.00048542   -0.00650995
     atom   82 type  4   force =    -0.00009333    0.00072446   -0.00151640
     atom   83 type  4   force =    -0.03917974    0.13484415    0.00269138
     atom   84 type  4   force =    -0.00298801   -0.01099528   -0.00415517
     atom   85 type  3   force =     0.03993832   -0.12017657   -0.01825347
     atom   86 type  3   force =    -0.06403950    0.00010046    0.00872921
     atom   87 type  3   force =    -0.04513488    0.12429847    0.01711100
     atom   88 type  3   force =    -0.00170482    0.00015262    0.00260033
     atom   89 type  4   force =     0.00904478   -0.01521552    0.00384470
     atom   90 type  4   force =    -0.00484080    0.00144903   -0.00003301
     atom   91 type  4   force =    -0.00894114    0.00822110   -0.00583670
     atom   92 type  4   force =     0.00007206    0.00016557   -0.00068424
     atom   93 type  4   force =    -0.00171988   -0.00832489    0.00746790
     atom   94 type  4   force =    -0.00409073    0.00023313    0.00117510
     atom   95 type  4   force =    -0.00373314    0.01406281    0.00666401
     atom   96 type  4   force =     0.00409990    0.00521311    0.00972503
     atom   97 type  4   force =    -0.00003690    0.00026225    0.00069084
     atom   98 type  4   force =     0.04025309   -0.14075772   -0.00493408
     atom   99 type  4   force =    -0.06662276   -0.00000653    0.00635789
     atom  100 type  4   force =    -0.00172557    0.00404440   -0.00243073
     atom  101 type  4   force =     0.00022102    0.00070747   -0.00081603
     atom  102 type  4   force =    -0.00629936    0.00380643   -0.00141143
     atom  103 type  4   force =    -0.04022195    0.13342510    0.00433377
     atom  104 type  4   force =    -0.00703141   -0.00986325   -0.00518789
     atom  105 type  2   force =     0.00414349   -0.00661023   -0.01806843
     atom  106 type  1   force =     0.02795150    0.01413664    0.01165621
     atom  107 type  1   force =     0.00874114   -0.00607609   -0.01404695
     atom  108 type  1   force =    -0.02821227    0.02159490    0.01869673
     atom  109 type  1   force =     0.00509184    0.01612903    0.00951322
     atom  110 type  1   force =    -0.00255948   -0.00873168   -0.00669758
     atom  111 type  1   force =    -0.00086785   -0.00954208   -0.01157983
     atom  112 type  1   force =     0.02897948    0.01738922    0.01136495
     atom  113 type  1   force =    -0.00067292   -0.00494921   -0.01389390
     atom  114 type  1   force =    -0.02946869    0.02064889    0.01849244
     atom  115 type  1   force =    -0.00723816    0.01855723    0.01223590
     atom  116 type  1   force =    -0.00554551   -0.00435022   -0.00289752
     atom  117 type  3   force =     0.01422530   -0.17391167   -0.10882061
     atom  118 type  3   force =     0.00518314   -0.00851206   -0.01261103
     atom  119 type  3   force =    -0.04466786    0.12490844   -0.00189335
     atom  120 type  3   force =     0.09507844   -0.04105980   -0.07974718
     atom  121 type  4   force =     0.00615376   -0.01703824    0.03715526
     atom  122 type  4   force =    -0.00348982    0.00369327    0.00458416
     atom  123 type  4   force =    -0.00089429    0.00254374   -0.00278132
     atom  124 type  4   force =     0.00846198    0.00222496    0.02692780
     atom  125 type  4   force =     0.00988927   -0.01688531    0.01601420
     atom  126 type  4   force =    -0.00746957    0.00095347   -0.00316579
     atom  127 type  4   force =     0.00393296    0.00966782    0.00041428
     atom  128 type  4   force =    -0.00062888   -0.00107072    0.03023553
     atom  129 type  4   force =    -0.00769609    0.02545728    0.00122946
     atom  130 type  4   force =     0.04335211   -0.14583642   -0.00191947
     atom  131 type  4   force =    -0.01735543   -0.00039427    0.00289756
     atom  132 type  4   force =     0.00346437    0.00267101    0.00199883
     atom  133 type  4   force =     0.06960532    0.00368634   -0.00191865
     atom  134 type  4   force =     0.00098639    0.00374005    0.00270832
     atom  135 type  4   force =    -0.02753033    0.17219071    0.00609852
     atom  136 type  4   force =     0.01952904   -0.00862210    0.00405195
     atom  137 type  3   force =     0.00908654   -0.16687335   -0.09426862
     atom  138 type  3   force =    -0.06465553   -0.00209403   -0.00494214
     atom  139 type  3   force =    -0.04873546    0.11823531    0.00151640
     atom  140 type  3   force =     0.03144914   -0.04324500   -0.07371192
     atom  141 type  4   force =     0.00469127   -0.01326803    0.03208139
     atom  142 type  4   force =    -0.00540305   -0.00037783    0.00438304
     atom  143 type  4   force =    -0.00823316    0.00806962   -0.00345089
     atom  144 type  4   force =     0.00380229    0.00142218    0.02752802
     atom  145 type  4   force =     0.00690824   -0.01299414    0.03239955
     atom  146 type  4   force =    -0.00870987   -0.00181382   -0.00311393
     atom  147 type  4   force =     0.00028112    0.00987300    0.00261614
     atom  148 type  4   force =    -0.00792161    0.00123842    0.02914727
     atom  149 type  4   force =    -0.01320489    0.02937019    0.00053977
     atom  150 type  4   force =     0.03976950   -0.13825790   -0.00141065
     atom  151 type  4   force =    -0.08610804   -0.00173397    0.00919248
     atom  152 type  4   force =     0.00127219    0.00390776    0.00142657
     atom  153 type  4   force =    -0.00361799    0.00085225    0.00295953
     atom  154 type  4   force =    -0.00585546    0.00608162    0.00130770
     atom  155 type  4   force =    -0.02794750    0.16640346    0.00487952
     atom  156 type  4   force =     0.01050670   -0.00973084   -0.00134044
     atom  157 type  4   force =    -0.00220008   -0.00031614    0.00132543
     atom  158 type  5   force =     0.00241307    0.00140982   -0.00165152

     Total force =     0.670639     Total SCF correction =     0.003295
 
     init_run     :      6.78s CPU      7.40s WALL (       1 calls)
     electrons    :    939.92s CPU    981.18s WALL (       1 calls)
     forces       :      3.85s CPU      4.26s WALL (       1 calls)
     force_london :      0.09s CPU      0.09s WALL (       1 calls)

     Called by init_run:
     wfcinit      :      3.88s CPU      4.03s WALL (       1 calls)
     potinit      :      0.63s CPU      0.78s WALL (       1 calls)
     hinit0       :      1.30s CPU      1.40s WALL (       1 calls)

     Called by electrons:
     c_bands      :    723.08s CPU    743.64s WALL (      84 calls)
     sum_band     :    138.99s CPU    150.13s WALL (      84 calls)
     v_of_rho     :     14.51s CPU     15.44s WALL (      85 calls)
     newd         :     42.94s CPU     51.65s WALL (      85 calls)
     mix_rho      :     19.73s CPU     19.84s WALL (      84 calls)
     energy_londo :      0.08s CPU      0.08s WALL (       1 calls)

     Called by c_bands:
     init_us_2    :      1.78s CPU      1.84s WALL (     340 calls)
     init_us_2:cp :      1.78s CPU      1.84s WALL (     340 calls)
     regterg      :    705.86s CPU    726.17s WALL (     168 calls)

     Called by *egterg:
     rdiaghg      :    173.84s CPU    183.75s WALL (     557 calls)
     h_psi        :    282.61s CPU    287.31s WALL (     559 calls)
     s_psi        :     49.36s CPU     49.38s WALL (     559 calls)
     g_psi        :      0.36s CPU      0.36s WALL (     389 calls)

     Called by h_psi:
     h_psi:calbec :     79.60s CPU     83.72s WALL (     559 calls)
     vloc_psi     :    152.41s CPU    152.89s WALL (     559 calls)
     add_vuspsi   :     50.12s CPU     50.19s WALL (     559 calls)

     General routines
     calbec       :    118.81s CPU    125.08s WALL (     735 calls)
     fft          :     26.22s CPU     27.45s WALL (    1543 calls)
     ffts         :     12.68s CPU     12.71s WALL (   10463 calls)
     fftw         :    177.84s CPU    178.39s WALL (  279662 calls)
     interpolate  :      1.24s CPU      1.32s WALL (     170 calls)
 
     Parallel routines
 
     PWSCF        :  15m52.57s CPU  16m35.13s WALL

 
   This run was terminated on:  22: 3:52  19Nov2025            

=------------------------------------------------------------------------------=
   JOB DONE.
=------------------------------------------------------------------------------=
