
     Program PWSCF v.7.2 starts on 19Nov2025 at 20: 1:33 

     This program is part of the open-source Quantum ESPRESSO suite
     for quantum simulation of materials; please cite
         "P. Giannozzi et al., J. Phys.:Condens. Matter 21 395502 (2009);
         "P. Giannozzi et al., J. Phys.:Condens. Matter 29 465901 (2017);
         "P. Giannozzi et al., J. Chem. Phys. 152 154105 (2020);
          URL http://www.quantum-espresso.org", 
     in publications or presentations arising from this work. More details at
     http://www.quantum-espresso.org/quote

     Parallel version (MPI), running on    64 processors

     MPI processes distributed on     4 nodes
     384818 MiB available memory on the printing compute node when the environment starts
 
     Reading input from PWINPUT_atm157_zp

     Current dimensions of program PWSCF are:
     Max number of different atomic species (ntypx) = 10
     Max number of k-points (npk) =  40000
     Max angular momentum in pseudopotentials (lmaxx) =  4
     Presently no symmetry can be used with electric field

     file Ni.pbe-n-rrkjus_psl.1.0.0.UPF: wavefunction(s)  3D renormalized
     file Mn.pbe-spn-rrkjus_psl.0.3.1.UPF: wavefunction(s)  3D renormalized
     file O.pbe-rrkjus.UPF: wavefunction(s)  2S renormalized
     file H.pbe-rrkjus.UPF: wavefunction(s)  1S renormalized

     gamma-point specific algorithms are used
 
     R & G space division:  proc/nbgrp/npool/nimage =      64
     Subspace diagonalization in iterative solution of the eigenvalue problem:
     one sub-group per band group will be used
     custom distributed-memory algorithm (size of sub-group:  6*  6 procs)

 
     Parallelization info
     --------------------
     sticks:   dense  smooth     PW     G-vecs:    dense   smooth      PW
     Min         208      82     20                59912    15118    1876
     Max         210      84     22                59974    15196    1926
     Sum       13399    5355   1345              3836275   970529  121367
 
     Using Slab Decomposition
 


     bravais-lattice index     =            0
     lattice parameter (alat)  =      17.7004  a.u.
     unit-cell volume          =   20319.7251 (a.u.)^3
     number of atoms/cell      =          158
     number of atomic types    =            5
     number of electrons       =      1078.00
     number of Kohn-Sham states=          647
     kinetic-energy cutoff     =      50.0000  Ry
     charge density cutoff     =     500.0000  Ry
     scf convergence threshold =      1.0E-06
     mixing beta               =       0.1000
     number of iterations used =            8  local-TF  mixing
     Exchange-correlation=  SLA  PW   PBE  PBE
                           (   1   4   3   4   0   0   0)

     celldm(1)=  17.700384  celldm(2)=   0.000000  celldm(3)=   0.000000
     celldm(4)=   0.000000  celldm(5)=   0.000000  celldm(6)=   0.000000

     crystal axes: (cart. coord. in units of alat)
               a(1) = (   1.000000   0.000000   0.000000 )  
               a(2) = (   0.000000   1.075730   0.000000 )  
               a(3) = (   0.000000   0.000000   3.406172 )  

     reciprocal axes: (cart. coord. in units 2 pi/alat)
               b(1) = (  1.000000  0.000000  0.000000 )  
               b(2) = (  0.000000  0.929602  0.000000 )  
               b(3) = (  0.000000  0.000000  0.293585 )  


     PseudoPot. # 1 for Ni read from file:
     ~/PSEUDO/Ni.pbe-n-rrkjus_psl.1.0.0.UPF
     MD5 check sum: Not computed, couldn't open file
     Pseudo is Ultrasoft + core correction, Zval = 10.0
     Generated using "atomic" code by A. Dal Corso  v.5.1.2
     Using radial grid of 1195 points,  6 beta functions with: 
                l(1) =   0
                l(2) =   0
                l(3) =   1
                l(4) =   1
                l(5) =   2
                l(6) =   2
     Q(r) pseudized with 0 coefficients 


     PseudoPot. # 2 for Mn read from file:
     ~/PSEUDO/Mn.pbe-spn-rrkjus_psl.0.3.1.UPF
     MD5 check sum: Not computed, couldn't open file
     Pseudo is Ultrasoft + core correction, Zval = 15.0
     Generated using &quot;atomic&quot; code by A. Dal Corso  v.6.2.2
     Using radial grid of 1187 points,  6 beta functions with: 
                l(1) =   0
                l(2) =   0
                l(3) =   1
                l(4) =   1
                l(5) =   2
                l(6) =   2
     Q(r) pseudized with 0 coefficients 


     PseudoPot. # 3 for P  read from file:
     ~/PSEUDO/P.pbe-n-rrkjus_psl.1.0.0.UPF
     MD5 check sum: Not computed, couldn't open file
     Pseudo is Ultrasoft + core correction, Zval =  5.0
     Generated using "atomic" code by A. Dal Corso  v.5.1
     Using radial grid of 1147 points,  6 beta functions with: 
                l(1) =   0
                l(2) =   0
                l(3) =   1
                l(4) =   1
                l(5) =   2
                l(6) =   2
     Q(r) pseudized with 0 coefficients 


     PseudoPot. # 4 for O  read from file:
     ~/PSEUDO/O.pbe-rrkjus.UPF
     MD5 check sum: Not computed, couldn't open file
     Pseudo is Ultrasoft, Zval =  6.0
     Generated by new atomic code, or converted to UPF format
     Using radial grid of 1269 points,  4 beta functions with: 
                l(1) =   0
                l(2) =   0
                l(3) =   1
                l(4) =   1
     Q(r) pseudized with 0 coefficients 


     PseudoPot. # 5 for H  read from file:
     ~/PSEUDO/H.pbe-rrkjus.UPF
     MD5 check sum: Not computed, couldn't open file
     Pseudo is Ultrasoft, Zval =  1.0
     Generated by new atomic code, or converted to UPF format
     Using radial grid of 1061 points,  2 beta functions with: 
                l(1) =   0
                l(2) =   0
     Q(r) pseudized with 0 coefficients 


     atomic species   valence    mass     pseudopotential
     Ni               10.00    58.69300     Ni( 1.00)
     Mn               15.00    54.93800     Mn( 1.00)
     P                 5.00    30.97300     P ( 1.00)
     O                 6.00    15.99900     O ( 1.00)
     H                 1.00     1.00790     H ( 1.00)

     Starting magnetic structure 
     atomic species   magnetization
     Ni              1.000
     Mn              1.000
     P               1.000
     O               1.000
     H               0.000

     No symmetry found



   Cartesian axes

     site n.     atom                  positions (alat units)
         1        Mn     tau(   1) = (   0.2517087   0.8371115   1.7089200  )
         2        Ni     tau(   2) = (   0.4946298   0.7752973   1.3725824  )
         3        Ni     tau(   3) = (   0.0015481   0.2961171   1.6749872  )
         4        Ni     tau(   4) = (   0.2613521   0.2396234   1.3678359  )
         5        Ni     tau(   5) = (   0.9984933   1.0749377   1.5355607  )
         6        Ni     tau(   6) = (   0.2572590   0.5404195   1.5326386  )
         7        Ni     tau(   7) = (   0.7529013   0.8355294   1.6752854  )
         8        Ni     tau(   8) = (   0.9935933   0.7756548   1.3720141  )
         9        Ni     tau(   9) = (   0.5024742   0.2964342   1.6745479  )
        10        Ni     tau(  10) = (   0.7618978   0.2375431   1.3667264  )
        11        Ni     tau(  11) = (   0.4990156   1.0768182   1.5305295  )
        12        Ni     tau(  12) = (   0.7564696   0.5358840   1.5310064  )
        13        P      tau(  13) = (   0.2101543   0.9720156   1.3797127  )
        14        P      tau(  14) = (   0.4706542   0.6451455   1.6955617  )
        15        P      tau(  15) = (   0.2884324   0.1127271   1.6923494  )
        16        P      tau(  16) = (   0.0456337   0.4340918   1.3707912  )
        17        O      tau(  17) = (   0.1335059   0.8997101   1.5140650  )
        18        O      tau(  18) = (   0.3867827   0.7182378   1.5594019  )
        19        O      tau(  19) = (   0.3670053   0.1737862   1.5463102  )
        20        O      tau(  20) = (   0.1240237   0.3636575   1.5070371  )
        21        O      tau(  21) = (   0.1473160   0.8837944   1.2542796  )
        22        O      tau(  22) = (   0.4146853   0.7340483   1.8196848  )
        23        O      tau(  23) = (   0.3495356   0.2093518   1.8074273  )
        24        O      tau(  24) = (   0.1052584   0.3464292   1.2439881  )
        25        O      tau(  25) = (   0.1049117   0.5895470   1.3757347  )
        26        O      tau(  26) = (   0.3473708   1.0308751   1.6857652  )
        27        O      tau(  27) = (   0.3810036   0.4281764   1.3825697  )
        28        O      tau(  28) = (   0.1238775   0.1159040   1.6775620  )
        29        O      tau(  29) = (   0.1305439   0.6501957   1.6820985  )
        30        O      tau(  30) = (   0.4132477   0.4886172   1.6862595  )
        31        O      tau(  31) = (   0.1524630   0.0515712   1.3799009  )
        32        O      tau(  32) = (   0.3743678   0.9633656   1.3849747  )
        33        P      tau(  33) = (   0.7103643   0.9714602   1.3712571  )
        34        P      tau(  34) = (   0.9649208   0.6440558   1.6927385  )
        35        P      tau(  35) = (   0.7871885   0.1098825   1.6920406  )
        36        P      tau(  36) = (   0.5450176   0.4335131   1.3702334  )
        37        O      tau(  37) = (   0.6319749   0.9002438   1.5073571  )
        38        O      tau(  38) = (   0.8891581   0.7073457   1.5481759  )
        39        O      tau(  39) = (   0.8662231   0.1700413   1.5462886  )
        40        O      tau(  40) = (   0.6235591   0.3611085   1.5054814  )
        41        O      tau(  41) = (   0.6491843   0.8831538   1.2455076  )
        42        O      tau(  42) = (   0.9034437   0.7399336   1.8095699  )
        43        O      tau(  43) = (   0.8478548   0.2077401   1.8063738  )
        44        O      tau(  44) = (   0.6060435   0.3462002   1.2436710  )
        45        O      tau(  45) = (   0.6035774   0.5890693   1.3768175  )
        46        O      tau(  46) = (   0.8421571   1.0273722   1.6917632  )
        47        O      tau(  47) = (   0.8816644   0.4266506   1.3828449  )
        48        O      tau(  48) = (   0.6221997   0.1135664   1.6772983  )
        49        O      tau(  49) = (   0.6347776   0.6499156   1.6770748  )
        50        O      tau(  50) = (   0.9100442   0.4869846   1.6900532  )
        51        O      tau(  51) = (   0.6512513   0.0508446   1.3744142  )
        52        O      tau(  52) = (   0.8740844   0.9637479   1.3848135  )
        53        Mn     tau(  53) = (   0.2404744   0.8246335   1.0701417  )
        54        Ni     tau(  54) = (   0.4968126   0.7601755   0.7454373  )
        55        Ni     tau(  55) = (   0.0066150   0.2811828   1.0628866  )
        56        Ni     tau(  56) = (   0.2585722   0.2230943   0.7421070  )
        57        Ni     tau(  57) = (   0.9987350   1.0571496   0.9014992  )
        58        Ni     tau(  58) = (   0.2517397   0.5205596   0.9040596  )
        59        Ni     tau(  59) = (   0.7451645   0.8212628   1.0648168  )
        60        Ni     tau(  60) = (   0.9939181   0.7613889   0.7462324  )
        61        Ni     tau(  61) = (   0.5111533   0.2799173   1.0618053  )
        62        Ni     tau(  62) = (   0.7606326   0.2194352   0.7418547  )
        63        Ni     tau(  63) = (   0.5024065   1.0563218   0.8999416  )
        64        Ni     tau(  64) = (   0.7529977   0.5192985   0.9024691  )
        65        P      tau(  65) = (   0.2092944   0.9606182   0.7524883  )
        66        P      tau(  66) = (   0.4655727   0.6234620   1.0595283  )
        67        P      tau(  67) = (   0.2910699   0.0902448   1.0573821  )
        68        P      tau(  68) = (   0.0396216   0.4163480   0.7471080  )
        69        O      tau(  69) = (   0.1294378   0.8888345   0.8859300  )
        70        O      tau(  70) = (   0.3874505   0.6929859   0.9232915  )
        71        O      tau(  71) = (   0.3702540   0.1589885   0.9209891  )
        72        O      tau(  72) = (   0.1184398   0.3458043   0.8831565  )
        73        O      tau(  73) = (   0.1451572   0.8725966   0.6282341  )
        74        O      tau(  74) = (   0.4048762   0.7120670   1.1852426  )
        75        O      tau(  75) = (   0.3523506   0.1775664   1.1834175  )
        76        O      tau(  76) = (   0.1017610   0.3285569   0.6213347  )
        77        O      tau(  77) = (   0.0975396   0.5724373   0.7511996  )
        78        O      tau(  78) = (   0.3483552   1.0190030   1.0599597  )
        79        O      tau(  79) = (   0.3784305   0.4100203   0.7560991  )
        80        O      tau(  80) = (   0.1268237   0.0943029   1.0477175  )
        81        O      tau(  81) = (   0.1212267   0.6299255   1.0507023  )
        82        O      tau(  82) = (   0.4053315   0.4684472   1.0569297  )
        83        O      tau(  83) = (   0.1536621   0.0322003   0.7496532  )
        84        O      tau(  84) = (   0.3732349   0.9506802   0.7613277  )
        85        P      tau(  85) = (   0.7119823   0.9571059   0.7496908  )
        86        P      tau(  86) = (   0.9615208   0.6238477   1.0606987  )
        87        P      tau(  87) = (   0.7927710   0.0845145   1.0577754  )
        88        P      tau(  88) = (   0.5426404   0.4144760   0.7459181  )
        89        O      tau(  89) = (   0.6326879   0.8866267   0.8856678  )
        90        O      tau(  90) = (   0.8842163   0.6958291   0.9244764  )
        91        O      tau(  91) = (   0.8716178   0.1552836   0.9216415  )
        92        O      tau(  92) = (   0.6212010   0.3433751   0.8818834  )
        93        O      tau(  93) = (   0.6507714   0.8687427   0.6238197  )
        94        O      tau(  94) = (   0.9014054   0.7139543   1.1859242  )
        95        O      tau(  95) = (   0.8548963   0.1722994   1.1834447  )
        96        O      tau(  96) = (   0.6044469   0.3253792   0.6209553  )
        97        O      tau(  97) = (   0.6024424   0.5698225   0.7490903  )
        98        O      tau(  98) = (   0.8498940   1.0129567   1.0594762  )
        99        O      tau(  99) = (   0.8798395   0.4080910   0.7564148  )
       100        O      tau( 100) = (   0.6286921   0.0909721   1.0472573  )
       101        O      tau( 101) = (   0.6294973   0.6302838   1.0497366  )
       102        O      tau( 102) = (   0.9024339   0.4685397   1.0573501  )
       103        O      tau( 103) = (   0.6547812   0.0286072   0.7473283  )
       104        O      tau( 104) = (   0.8760507   0.9507690   0.7605412  )
       105        Mn     tau( 105) = (   0.2404744   0.8121420   0.4502541  )
       106        Ni     tau( 106) = (   0.4968126   0.7476840   0.1255496  )
       107        Ni     tau( 107) = (   0.0066150   0.2686914   0.4429989  )
       108        Ni     tau( 108) = (   0.2585722   0.2106028   0.1222194  )
       109        Ni     tau( 109) = (   0.9987350   1.0446581   0.2816116  )
       110        Ni     tau( 110) = (   0.2517397   0.5080681   0.2841720  )
       111        Ni     tau( 111) = (   0.7451645   0.8087713   0.4449291  )
       112        Ni     tau( 112) = (   0.9939181   0.7488974   0.1263448  )
       113        Ni     tau( 113) = (   0.5111533   0.2674258   0.4419177  )
       114        Ni     tau( 114) = (   0.7606326   0.2069438   0.1219670  )
       115        Ni     tau( 115) = (   0.5024065   1.0438304   0.2800540  )
       116        Ni     tau( 116) = (   0.7529977   0.5068070   0.2825815  )
       117        P      tau( 117) = (   0.2092944   0.9481267   0.1326007  )
       118        P      tau( 118) = (   0.4655727   0.6109705   0.4396407  )
       119        P      tau( 119) = (   0.2910699   0.0777534   0.4374945  )
       120        P      tau( 120) = (   0.0396216   0.4038566   0.1272204  )
       121        O      tau( 121) = (   0.1294378   0.8763430   0.2660424  )
       122        O      tau( 122) = (   0.3874505   0.6804944   0.3034039  )
       123        O      tau( 123) = (   0.3702540   0.1464970   0.3011014  )
       124        O      tau( 124) = (   0.1184398   0.3333129   0.2632689  )
       125        O      tau( 125) = (   0.1451572   0.8601051   0.0083464  )
       126        O      tau( 126) = (   0.4048762   0.6995756   0.5653550  )
       127        O      tau( 127) = (   0.3523506   0.1650749   0.5635298  )
       128        O      tau( 128) = (   0.1017610   0.3160655   0.0014470  )
       129        O      tau( 129) = (   0.0975396   0.5599458   0.1313120  )
       130        O      tau( 130) = (   0.3483552   1.0065115   0.4400720  )
       131        O      tau( 131) = (   0.3784305   0.3975288   0.1362114  )
       132        O      tau( 132) = (   0.1268237   0.0818115   0.4278298  )
       133        O      tau( 133) = (   0.1212267   0.6174340   0.4308146  )
       134        O      tau( 134) = (   0.4053315   0.4559557   0.4370420  )
       135        O      tau( 135) = (   0.1536621   0.0197088   0.1297656  )
       136        O      tau( 136) = (   0.3732349   0.9381887   0.1414400  )
       137        P      tau( 137) = (   0.7119823   0.9446144   0.1298032  )
       138        P      tau( 138) = (   0.9615208   0.6113562   0.4408111  )
       139        P      tau( 139) = (   0.7927710   0.0720230   0.4378878  )
       140        P      tau( 140) = (   0.5426404   0.4019845   0.1260304  )
       141        O      tau( 141) = (   0.6326879   0.8741353   0.2657802  )
       142        O      tau( 142) = (   0.8842163   0.6833376   0.3045887  )
       143        O      tau( 143) = (   0.8716178   0.1427921   0.3017538  )
       144        O      tau( 144) = (   0.6212010   0.3308836   0.2619957  )
       145        O      tau( 145) = (   0.6507714   0.8562512   0.0039320  )
       146        O      tau( 146) = (   0.9014054   0.7014628   0.5660366  )
       147        O      tau( 147) = (   0.8548963   0.1598079   0.5635571  )
       148        O      tau( 148) = (   0.6044469   0.3128877   0.0010676  )
       149        O      tau( 149) = (   0.6024424   0.5573310   0.1292027  )
       150        O      tau( 150) = (   0.8498940   1.0004653   0.4395886  )
       151        O      tau( 151) = (   0.8798395   0.3955995   0.1365272  )
       152        O      tau( 152) = (   0.6286921   0.0784807   0.4273696  )
       153        O      tau( 153) = (   0.6294973   0.6177923   0.4298489  )
       154        O      tau( 154) = (   0.9024339   0.4560482   0.4374624  )
       155        O      tau( 155) = (   0.6547812   0.0161158   0.1274406  )
       156        O      tau( 156) = (   0.8760507   0.9382775   0.1406535  )
       157        O      tau( 157) = (   1.1426512   0.9081323   1.8455579  )
       158        H      tau( 158) = (   1.0494652   0.8581547   1.8562154  )

     -------------------------------------------------
     Parameters for Dispersion (Grimme-D2) Correction:
     -------------------------------------------------
       atom      VdW radius       C_6     

        Ni         2.952        374.666
        Mn         2.952        374.666
        P          3.222        271.980
        O          2.536         24.284
        H          1.892          4.857

     number of k points=     1  Gaussian smearing, width (Ry)=  0.0100
                       cart. coord. in units 2pi/alat
        k(    1) = (   0.0000000   0.0000000   0.0000000), wk =   1.0000000

     Dense  grid:  1918138 G-vectors     FFT dimensions: ( 125, 135, 432)

     Smooth grid:   485265 G-vectors     FFT dimensions: (  80,  90, 288)

     Estimated max dynamical RAM per process >     320.12 MB

     Estimated total dynamical RAM >      20.01 GB
     Generating pointlists ...
     new r_m :   0.0866 (alat units)  1.5324 (a.u.) for type    1
     new r_m :   0.0778 (alat units)  1.3778 (a.u.) for type    2
     new r_m :   0.0650 (alat units)  1.1499 (a.u.) for type    3
     new r_m :   0.0438 (alat units)  0.7760 (a.u.) for type    4
     new r_m :   0.0438 (alat units)  0.7760 (a.u.) for type    5

     Initial potential from superposition of free atoms

     starting charge    1077.8900, renormalised to    1078.0000

     negative rho (up, down):  1.248E-03 4.554E-04
 
     Adding external electric field

     Computed dipole along edir(3) : 
        Dipole                1.6042 Ry au,          4.0774 Debye
        Dipole field          0.0010 Ry au, 
 
        Potential amp.       -0.1077 Ry
        Total length         54.2615 bohr
 
 
     Adding external electric field

     Computed dipole along edir(3) : 
        Dipole                1.6042 Ry au,          4.0774 Debye
        Dipole field          0.0010 Ry au, 
 
        Potential amp.       -0.1077 Ry
        Total length         54.2615 bohr
 
     Starting wfcs are  812 randomized atomic wfcs

     total cpu time spent up to now is       10.3 secs

     Self-consistent Calculation

     iteration #  1     ecut=    50.00 Ry     beta= 0.10
     Davidson diagonalization with overlap
     ethr =  1.00E-02,  avg # of iterations =  6.0

     negative rho (up, down):  3.275E-01 3.587E-07
 
     Adding external electric field

     Computed dipole along edir(3) : 
        Dipole               -3.5912 Ry au,         -9.1279 Debye
        Dipole field         -0.0022 Ry au, 
 
        Potential amp.        0.2410 Ry
        Total length         54.2615 bohr
 
 
     Adding external electric field

     Computed dipole along edir(3) : 
        Dipole               -3.5912 Ry au,         -9.1279 Debye
        Dipole field         -0.0022 Ry au, 
 
        Potential amp.        0.2410 Ry
        Total length         54.2615 bohr
 

     total cpu time spent up to now is       37.4 secs

     total energy              =   -7177.54283322 Ry
     estimated scf accuracy    <     733.63816688 Ry

     total magnetization       =   216.00 Bohr mag/cell
     absolute magnetization    =   296.68 Bohr mag/cell

     iteration #  2     ecut=    50.00 Ry     beta= 0.10
     Davidson diagonalization with overlap
     ethr =  1.00E-02,  avg # of iterations =  2.0

     negative rho (up, down):  3.139E-01 1.574E-07
 
     Adding external electric field

     Computed dipole along edir(3) : 
        Dipole               -2.3286 Ry au,         -5.9187 Debye
        Dipole field         -0.0014 Ry au, 
 
        Potential amp.        0.1563 Ry
        Total length         54.2615 bohr
 
 
     Adding external electric field

     Computed dipole along edir(3) : 
        Dipole               -2.3286 Ry au,         -5.9187 Debye
        Dipole field         -0.0014 Ry au, 
 
        Potential amp.        0.1563 Ry
        Total length         54.2615 bohr
 

     total cpu time spent up to now is       53.2 secs

     total energy              =   -7261.48804306 Ry
     estimated scf accuracy    <     219.22091934 Ry

     total magnetization       =   151.92 Bohr mag/cell
     absolute magnetization    =   200.93 Bohr mag/cell

     iteration #  3     ecut=    50.00 Ry     beta= 0.10
     Davidson diagonalization with overlap
     ethr =  1.00E-02,  avg # of iterations =  1.5

     negative rho (up, down):  2.776E-01 1.260E-07
 
     Adding external electric field

     Computed dipole along edir(3) : 
        Dipole               -2.0257 Ry au,         -5.1487 Debye
        Dipole field         -0.0013 Ry au, 
 
        Potential amp.        0.1360 Ry
        Total length         54.2615 bohr
 
 
     Adding external electric field

     Computed dipole along edir(3) : 
        Dipole               -2.0257 Ry au,         -5.1487 Debye
        Dipole field         -0.0013 Ry au, 
 
        Potential amp.        0.1360 Ry
        Total length         54.2615 bohr
 

     total cpu time spent up to now is       65.6 secs

     total energy              =   -7291.52975611 Ry
     estimated scf accuracy    <      97.55043779 Ry

     total magnetization       =   126.84 Bohr mag/cell
     absolute magnetization    =   180.06 Bohr mag/cell

     iteration #  4     ecut=    50.00 Ry     beta= 0.10
     Davidson diagonalization with overlap
     ethr =  9.05E-03,  avg # of iterations =  1.5

     negative rho (up, down):  2.118E-01 3.465E-08
 
     Adding external electric field

     Computed dipole along edir(3) : 
        Dipole               -2.0092 Ry au,         -5.1068 Debye
        Dipole field         -0.0012 Ry au, 
 
        Potential amp.        0.1348 Ry
        Total length         54.2615 bohr
 
 
     Adding external electric field

     Computed dipole along edir(3) : 
        Dipole               -2.0092 Ry au,         -5.1068 Debye
        Dipole field         -0.0012 Ry au, 
 
        Potential amp.        0.1348 Ry
        Total length         54.2615 bohr
 

     total cpu time spent up to now is       77.7 secs

     total energy              =   -7324.16817607 Ry
     estimated scf accuracy    <      79.25925039 Ry

     total magnetization       =   111.56 Bohr mag/cell
     absolute magnetization    =   165.75 Bohr mag/cell

     iteration #  5     ecut=    50.00 Ry     beta= 0.10
     Davidson diagonalization with overlap
     ethr =  7.35E-03,  avg # of iterations =  1.5

     negative rho (up, down):  1.282E-02 4.442E-07
 
     Adding external electric field

     Computed dipole along edir(3) : 
        Dipole               -1.6667 Ry au,         -4.2362 Debye
        Dipole field         -0.0010 Ry au, 
 
        Potential amp.        0.1119 Ry
        Total length         54.2615 bohr
 
 
     Adding external electric field

     Computed dipole along edir(3) : 
        Dipole               -1.6667 Ry au,         -4.2362 Debye
        Dipole field         -0.0010 Ry au, 
 
        Potential amp.        0.1119 Ry
        Total length         54.2615 bohr
 

     total cpu time spent up to now is       90.2 secs

     total energy              =   -7384.13826556 Ry
     estimated scf accuracy    <      63.38860209 Ry

     total magnetization       =    88.21 Bohr mag/cell
     absolute magnetization    =   146.94 Bohr mag/cell

     iteration #  6     ecut=    50.00 Ry     beta= 0.10
     Davidson diagonalization with overlap
     ethr =  5.88E-03,  avg # of iterations =  1.5

     negative rho (up, down):  5.812E-04 9.549E-04
 
     Adding external electric field

     Computed dipole along edir(3) : 
        Dipole               -1.3845 Ry au,         -3.5190 Debye
        Dipole field         -0.0009 Ry au, 
 
        Potential amp.        0.0929 Ry
        Total length         54.2615 bohr
 
 
     Adding external electric field

     Computed dipole along edir(3) : 
        Dipole               -1.3845 Ry au,         -3.5190 Debye
        Dipole field         -0.0009 Ry au, 
 
        Potential amp.        0.0929 Ry
        Total length         54.2615 bohr
 

     total cpu time spent up to now is      102.2 secs

     total energy              =   -7395.15950688 Ry
     estimated scf accuracy    <      12.00456519 Ry

     total magnetization       =    81.94 Bohr mag/cell
     absolute magnetization    =   117.33 Bohr mag/cell

     iteration #  7     ecut=    50.00 Ry     beta= 0.10
     Davidson diagonalization with overlap
     ethr =  1.11E-03,  avg # of iterations =  4.5

     negative rho (up, down):  5.501E-04 8.735E-04
 
     Adding external electric field

     Computed dipole along edir(3) : 
        Dipole               -1.3652 Ry au,         -3.4700 Debye
        Dipole field         -0.0008 Ry au, 
 
        Potential amp.        0.0916 Ry
        Total length         54.2615 bohr
 
 
     Adding external electric field

     Computed dipole along edir(3) : 
        Dipole               -1.3652 Ry au,         -3.4700 Debye
        Dipole field         -0.0008 Ry au, 
 
        Potential amp.        0.0916 Ry
        Total length         54.2615 bohr
 

     total cpu time spent up to now is      121.7 secs

     total energy              =   -7397.77438570 Ry
     estimated scf accuracy    <      18.64901526 Ry

     total magnetization       =    66.83 Bohr mag/cell
     absolute magnetization    =    84.73 Bohr mag/cell

     iteration #  8     ecut=    50.00 Ry     beta= 0.10
     Davidson diagonalization with overlap
     ethr =  1.11E-03,  avg # of iterations =  1.0

     negative rho (up, down):  3.855E-04 6.238E-04
 
     Adding external electric field

     Computed dipole along edir(3) : 
        Dipole               -1.2559 Ry au,         -3.1922 Debye
        Dipole field         -0.0008 Ry au, 
 
        Potential amp.        0.0843 Ry
        Total length         54.2615 bohr
 
 
     Adding external electric field

     Computed dipole along edir(3) : 
        Dipole               -1.2559 Ry au,         -3.1922 Debye
        Dipole field         -0.0008 Ry au, 
 
        Potential amp.        0.0843 Ry
        Total length         54.2615 bohr
 

     total cpu time spent up to now is      133.8 secs

     total energy              =   -7397.69182964 Ry
     estimated scf accuracy    <      16.99850269 Ry

     total magnetization       =    67.63 Bohr mag/cell
     absolute magnetization    =    85.14 Bohr mag/cell

     iteration #  9     ecut=    50.00 Ry     beta= 0.10
     Davidson diagonalization with overlap
     ethr =  1.11E-03,  avg # of iterations =  1.0

     negative rho (up, down):  1.269E-04 3.022E-04
 
     Adding external electric field

     Computed dipole along edir(3) : 
        Dipole               -0.9694 Ry au,         -2.4640 Debye
        Dipole field         -0.0006 Ry au, 
 
        Potential amp.        0.0651 Ry
        Total length         54.2615 bohr
 
 
     Adding external electric field

     Computed dipole along edir(3) : 
        Dipole               -0.9694 Ry au,         -2.4640 Debye
        Dipole field         -0.0006 Ry au, 
 
        Potential amp.        0.0651 Ry
        Total length         54.2615 bohr
 

     total cpu time spent up to now is      145.6 secs

     total energy              =   -7397.50252384 Ry
     estimated scf accuracy    <      13.01646434 Ry

     total magnetization       =    68.76 Bohr mag/cell
     absolute magnetization    =    85.23 Bohr mag/cell

     iteration # 10     ecut=    50.00 Ry     beta= 0.10
     Davidson diagonalization with overlap
     ethr =  1.11E-03,  avg # of iterations =  1.5

     negative rho (up, down):  1.411E-04 3.277E-04
 
     Adding external electric field

     Computed dipole along edir(3) : 
        Dipole               -1.0681 Ry au,         -2.7148 Debye
        Dipole field         -0.0007 Ry au, 
 
        Potential amp.        0.0717 Ry
        Total length         54.2615 bohr
 
 
     Adding external electric field

     Computed dipole along edir(3) : 
        Dipole               -1.0681 Ry au,         -2.7148 Debye
        Dipole field         -0.0007 Ry au, 
 
        Potential amp.        0.0717 Ry
        Total length         54.2615 bohr
 

     total cpu time spent up to now is      157.2 secs

     total energy              =   -7397.60711984 Ry
     estimated scf accuracy    <       5.51685744 Ry

     total magnetization       =    72.27 Bohr mag/cell
     absolute magnetization    =    85.95 Bohr mag/cell

     iteration # 11     ecut=    50.00 Ry     beta= 0.10
     Davidson diagonalization with overlap
     ethr =  5.12E-04,  avg # of iterations =  2.0

     negative rho (up, down):  8.265E-05 2.216E-04
 
     Adding external electric field

     Computed dipole along edir(3) : 
        Dipole               -1.0391 Ry au,         -2.6412 Debye
        Dipole field         -0.0006 Ry au, 
 
        Potential amp.        0.0697 Ry
        Total length         54.2615 bohr
 
 
     Adding external electric field

     Computed dipole along edir(3) : 
        Dipole               -1.0391 Ry au,         -2.6412 Debye
        Dipole field         -0.0006 Ry au, 
 
        Potential amp.        0.0697 Ry
        Total length         54.2615 bohr
 

     total cpu time spent up to now is      169.5 secs

     total energy              =   -7397.59805573 Ry
     estimated scf accuracy    <       4.36049049 Ry

     total magnetization       =    72.31 Bohr mag/cell
     absolute magnetization    =    85.58 Bohr mag/cell

     iteration # 12     ecut=    50.00 Ry     beta= 0.10
     Davidson diagonalization with overlap
     ethr =  4.04E-04,  avg # of iterations =  3.5

     negative rho (up, down):  2.820E-05 1.380E-04
 
     Adding external electric field

     Computed dipole along edir(3) : 
        Dipole               -0.9440 Ry au,         -2.3993 Debye
        Dipole field         -0.0006 Ry au, 
 
        Potential amp.        0.0634 Ry
        Total length         54.2615 bohr
 
 
     Adding external electric field

     Computed dipole along edir(3) : 
        Dipole               -0.9440 Ry au,         -2.3993 Debye
        Dipole field         -0.0006 Ry au, 
 
        Potential amp.        0.0634 Ry
        Total length         54.2615 bohr
 

     total cpu time spent up to now is      182.3 secs

     total energy              =   -7397.76780795 Ry
     estimated scf accuracy    <       0.65463927 Ry

     total magnetization       =    78.51 Bohr mag/cell
     absolute magnetization    =    89.42 Bohr mag/cell

     iteration # 13     ecut=    50.00 Ry     beta= 0.10
     Davidson diagonalization with overlap
     ethr =  6.07E-05,  avg # of iterations = 15.5

     negative rho (up, down):  6.584E-07 8.367E-06
 
     Adding external electric field

     Computed dipole along edir(3) : 
        Dipole               -0.7113 Ry au,         -1.8079 Debye
        Dipole field         -0.0004 Ry au, 
 
        Potential amp.        0.0477 Ry
        Total length         54.2615 bohr
 
 
     Adding external electric field

     Computed dipole along edir(3) : 
        Dipole               -0.7113 Ry au,         -1.8079 Debye
        Dipole field         -0.0004 Ry au, 
 
        Potential amp.        0.0477 Ry
        Total length         54.2615 bohr
 

     total cpu time spent up to now is      209.6 secs

     total energy              =   -7397.96604107 Ry
     estimated scf accuracy    <       0.59553839 Ry

     total magnetization       =    79.80 Bohr mag/cell
     absolute magnetization    =    88.04 Bohr mag/cell

     iteration # 14     ecut=    50.00 Ry     beta= 0.10
     Davidson diagonalization with overlap
     ethr =  5.52E-05,  avg # of iterations =  1.5

     negative rho (up, down):  3.216E-08 1.308E-07
 
     Adding external electric field

     Computed dipole along edir(3) : 
        Dipole               -0.4556 Ry au,         -1.1581 Debye
        Dipole field         -0.0003 Ry au, 
 
        Potential amp.        0.0306 Ry
        Total length         54.2615 bohr
 
 
     Adding external electric field

     Computed dipole along edir(3) : 
        Dipole               -0.4556 Ry au,         -1.1581 Debye
        Dipole field         -0.0003 Ry au, 
 
        Potential amp.        0.0306 Ry
        Total length         54.2615 bohr
 

     total cpu time spent up to now is      221.3 secs

     total energy              =   -7398.07274633 Ry
     estimated scf accuracy    <       0.54992050 Ry

     total magnetization       =    79.74 Bohr mag/cell
     absolute magnetization    =    85.31 Bohr mag/cell

     iteration # 15     ecut=    50.00 Ry     beta= 0.10
     Davidson diagonalization with overlap
     ethr =  5.10E-05,  avg # of iterations =  1.5

     negative rho (up, down):  8.495E-09 1.416E-08
 
     Adding external electric field

     Computed dipole along edir(3) : 
        Dipole               -0.5204 Ry au,         -1.3228 Debye
        Dipole field         -0.0003 Ry au, 
 
        Potential amp.        0.0349 Ry
        Total length         54.2615 bohr
 
 
     Adding external electric field

     Computed dipole along edir(3) : 
        Dipole               -0.5204 Ry au,         -1.3228 Debye
        Dipole field         -0.0003 Ry au, 
 
        Potential amp.        0.0349 Ry
        Total length         54.2615 bohr
 

     total cpu time spent up to now is      233.3 secs

     total energy              =   -7398.07709258 Ry
     estimated scf accuracy    <       0.83952185 Ry

     total magnetization       =    78.97 Bohr mag/cell
     absolute magnetization    =    81.95 Bohr mag/cell

     iteration # 16     ecut=    50.00 Ry     beta= 0.10
     Davidson diagonalization with overlap
     ethr =  5.10E-05,  avg # of iterations =  1.0
 
     Adding external electric field

     Computed dipole along edir(3) : 
        Dipole               -0.4758 Ry au,         -1.2094 Debye
        Dipole field         -0.0003 Ry au, 
 
        Potential amp.        0.0319 Ry
        Total length         54.2615 bohr
 
 
     Adding external electric field

     Computed dipole along edir(3) : 
        Dipole               -0.4758 Ry au,         -1.2094 Debye
        Dipole field         -0.0003 Ry au, 
 
        Potential amp.        0.0319 Ry
        Total length         54.2615 bohr
 

     total cpu time spent up to now is      244.2 secs

     total energy              =   -7398.08277407 Ry
     estimated scf accuracy    <       0.34966359 Ry

     total magnetization       =    79.25 Bohr mag/cell
     absolute magnetization    =    82.37 Bohr mag/cell

     iteration # 17     ecut=    50.00 Ry     beta= 0.10
     Davidson diagonalization with overlap
     ethr =  3.24E-05,  avg # of iterations =  1.0
 
     Adding external electric field

     Computed dipole along edir(3) : 
        Dipole               -0.4850 Ry au,         -1.2327 Debye
        Dipole field         -0.0003 Ry au, 
 
        Potential amp.        0.0325 Ry
        Total length         54.2615 bohr
 
 
     Adding external electric field

     Computed dipole along edir(3) : 
        Dipole               -0.4850 Ry au,         -1.2327 Debye
        Dipole field         -0.0003 Ry au, 
 
        Potential amp.        0.0325 Ry
        Total length         54.2615 bohr
 

     total cpu time spent up to now is      255.1 secs

     total energy              =   -7398.08915566 Ry
     estimated scf accuracy    <       0.43505780 Ry

     total magnetization       =    78.66 Bohr mag/cell
     absolute magnetization    =    81.14 Bohr mag/cell

     iteration # 18     ecut=    50.00 Ry     beta= 0.10
     Davidson diagonalization with overlap
     ethr =  3.24E-05,  avg # of iterations =  1.0
 
     Adding external electric field

     Computed dipole along edir(3) : 
        Dipole               -0.5651 Ry au,         -1.4364 Debye
        Dipole field         -0.0003 Ry au, 
 
        Potential amp.        0.0379 Ry
        Total length         54.2615 bohr
 
 
     Adding external electric field

     Computed dipole along edir(3) : 
        Dipole               -0.5651 Ry au,         -1.4364 Debye
        Dipole field         -0.0003 Ry au, 
 
        Potential amp.        0.0379 Ry
        Total length         54.2615 bohr
 

     total cpu time spent up to now is      265.9 secs

     total energy              =   -7398.07864387 Ry
     estimated scf accuracy    <       0.35813185 Ry

     total magnetization       =    78.80 Bohr mag/cell
     absolute magnetization    =    81.20 Bohr mag/cell

     iteration # 19     ecut=    50.00 Ry     beta= 0.10
     Davidson diagonalization with overlap
     ethr =  3.24E-05,  avg # of iterations =  1.0
 
     Adding external electric field

     Computed dipole along edir(3) : 
        Dipole               -0.5668 Ry au,         -1.4407 Debye
        Dipole field         -0.0004 Ry au, 
 
        Potential amp.        0.0380 Ry
        Total length         54.2615 bohr
 
 
     Adding external electric field

     Computed dipole along edir(3) : 
        Dipole               -0.5668 Ry au,         -1.4407 Debye
        Dipole field         -0.0004 Ry au, 
 
        Potential amp.        0.0380 Ry
        Total length         54.2615 bohr
 

     total cpu time spent up to now is      277.9 secs

     total energy              =   -7398.08413350 Ry
     estimated scf accuracy    <       0.10617804 Ry

     total magnetization       =    78.67 Bohr mag/cell
     absolute magnetization    =    80.83 Bohr mag/cell

     iteration # 20     ecut=    50.00 Ry     beta= 0.10
     Davidson diagonalization with overlap
     ethr =  9.85E-06,  avg # of iterations =  2.0

     negative rho (up, down):  8.526E-06 2.095E-07
 
     Adding external electric field

     Computed dipole along edir(3) : 
        Dipole               -0.5474 Ry au,         -1.3914 Debye
        Dipole field         -0.0003 Ry au, 
 
        Potential amp.        0.0367 Ry
        Total length         54.2615 bohr
 
 
     Adding external electric field

     Computed dipole along edir(3) : 
        Dipole               -0.5474 Ry au,         -1.3914 Debye
        Dipole field         -0.0003 Ry au, 
 
        Potential amp.        0.0367 Ry
        Total length         54.2615 bohr
 

     total cpu time spent up to now is      291.2 secs

     total energy              =   -7398.08099079 Ry
     estimated scf accuracy    <       0.11484800 Ry

     total magnetization       =    78.55 Bohr mag/cell
     absolute magnetization    =    80.68 Bohr mag/cell

     iteration # 21     ecut=    50.00 Ry     beta= 0.10
     Davidson diagonalization with overlap
     ethr =  9.85E-06,  avg # of iterations =  1.5

     negative rho (up, down):  2.036E-04 2.419E-05
 
     Adding external electric field

     Computed dipole along edir(3) : 
        Dipole               -0.5351 Ry au,         -1.3600 Debye
        Dipole field         -0.0003 Ry au, 
 
        Potential amp.        0.0359 Ry
        Total length         54.2615 bohr
 
 
     Adding external electric field

     Computed dipole along edir(3) : 
        Dipole               -0.5351 Ry au,         -1.3600 Debye
        Dipole field         -0.0003 Ry au, 
 
        Potential amp.        0.0359 Ry
        Total length         54.2615 bohr
 

     total cpu time spent up to now is      303.6 secs

     total energy              =   -7398.07595461 Ry
     estimated scf accuracy    <       0.07638896 Ry

     total magnetization       =    78.84 Bohr mag/cell
     absolute magnetization    =    80.64 Bohr mag/cell

     iteration # 22     ecut=    50.00 Ry     beta= 0.10
     Davidson diagonalization with overlap
     ethr =  7.09E-06,  avg # of iterations =  2.0

     negative rho (up, down):  1.502E-04 6.743E-06
 
     Adding external electric field

     Computed dipole along edir(3) : 
        Dipole               -0.5392 Ry au,         -1.3705 Debye
        Dipole field         -0.0003 Ry au, 
 
        Potential amp.        0.0362 Ry
        Total length         54.2615 bohr
 
 
     Adding external electric field

     Computed dipole along edir(3) : 
        Dipole               -0.5392 Ry au,         -1.3705 Debye
        Dipole field         -0.0003 Ry au, 
 
        Potential amp.        0.0362 Ry
        Total length         54.2615 bohr
 

     total cpu time spent up to now is      315.7 secs

     total energy              =   -7398.07449411 Ry
     estimated scf accuracy    <       0.05080893 Ry

     total magnetization       =    79.20 Bohr mag/cell
     absolute magnetization    =    80.82 Bohr mag/cell

     iteration # 23     ecut=    50.00 Ry     beta= 0.10
     Davidson diagonalization with overlap
     c_bands:  1 eigenvalues not converged
     ethr =  4.71E-06,  avg # of iterations = 21.0

     negative rho (up, down):  9.156E-05 1.107E-06
 
     Adding external electric field

     Computed dipole along edir(3) : 
        Dipole               -0.5190 Ry au,         -1.3192 Debye
        Dipole field         -0.0003 Ry au, 
 
        Potential amp.        0.0348 Ry
        Total length         54.2615 bohr
 
 
     Adding external electric field

     Computed dipole along edir(3) : 
        Dipole               -0.5190 Ry au,         -1.3192 Debye
        Dipole field         -0.0003 Ry au, 
 
        Potential amp.        0.0348 Ry
        Total length         54.2615 bohr
 

     total cpu time spent up to now is      342.8 secs

     total energy              =   -7398.07523271 Ry
     estimated scf accuracy    <       0.04733843 Ry

     total magnetization       =    78.78 Bohr mag/cell
     absolute magnetization    =    80.55 Bohr mag/cell

     iteration # 24     ecut=    50.00 Ry     beta= 0.10
     Davidson diagonalization with overlap
     c_bands:  1 eigenvalues not converged
     ethr =  4.39E-06,  avg # of iterations = 11.0

     negative rho (up, down):  2.769E-04 6.768E-05
 
     Adding external electric field

     Computed dipole along edir(3) : 
        Dipole               -0.4809 Ry au,         -1.2223 Debye
        Dipole field         -0.0003 Ry au, 
 
        Potential amp.        0.0323 Ry
        Total length         54.2615 bohr
 
 
     Adding external electric field

     Computed dipole along edir(3) : 
        Dipole               -0.4809 Ry au,         -1.2223 Debye
        Dipole field         -0.0003 Ry au, 
 
        Potential amp.        0.0323 Ry
        Total length         54.2615 bohr
 

     total cpu time spent up to now is      359.4 secs

     total energy              =   -7398.07729283 Ry
     estimated scf accuracy    <       0.07466402 Ry

     total magnetization       =    78.45 Bohr mag/cell
     absolute magnetization    =    80.33 Bohr mag/cell

     iteration # 25     ecut=    50.00 Ry     beta= 0.10
     Davidson diagonalization with overlap
     ethr =  4.39E-06,  avg # of iterations =  6.0

     negative rho (up, down):  3.625E-04 2.406E-04
 
     Adding external electric field

     Computed dipole along edir(3) : 
        Dipole               -0.4160 Ry au,         -1.0573 Debye
        Dipole field         -0.0003 Ry au, 
 
        Potential amp.        0.0279 Ry
        Total length         54.2615 bohr
 
 
     Adding external electric field

     Computed dipole along edir(3) : 
        Dipole               -0.4160 Ry au,         -1.0573 Debye
        Dipole field         -0.0003 Ry au, 
 
        Potential amp.        0.0279 Ry
        Total length         54.2615 bohr
 

     total cpu time spent up to now is      373.3 secs

     total energy              =   -7398.08048690 Ry
     estimated scf accuracy    <       0.04714162 Ry

     total magnetization       =    78.83 Bohr mag/cell
     absolute magnetization    =    80.59 Bohr mag/cell

     iteration # 26     ecut=    50.00 Ry     beta= 0.10
     Davidson diagonalization with overlap
     ethr =  4.37E-06,  avg # of iterations =  1.5

     negative rho (up, down):  3.833E-04 2.944E-04
 
     Adding external electric field

     Computed dipole along edir(3) : 
        Dipole               -0.4766 Ry au,         -1.2113 Debye
        Dipole field         -0.0003 Ry au, 
 
        Potential amp.        0.0320 Ry
        Total length         54.2615 bohr
 
 
     Adding external electric field

     Computed dipole along edir(3) : 
        Dipole               -0.4766 Ry au,         -1.2113 Debye
        Dipole field         -0.0003 Ry au, 
 
        Potential amp.        0.0320 Ry
        Total length         54.2615 bohr
 

     total cpu time spent up to now is      384.8 secs

     total energy              =   -7398.07865070 Ry
     estimated scf accuracy    <       0.13370236 Ry

     total magnetization       =    78.03 Bohr mag/cell
     absolute magnetization    =    79.82 Bohr mag/cell

     iteration # 27     ecut=    50.00 Ry     beta= 0.10
     Davidson diagonalization with overlap
     ethr =  4.37E-06,  avg # of iterations =  2.0

     negative rho (up, down):  7.001E-05 6.289E-05
 
     Adding external electric field

     Computed dipole along edir(3) : 
        Dipole               -0.4500 Ry au,         -1.1438 Debye
        Dipole field         -0.0003 Ry au, 
 
        Potential amp.        0.0302 Ry
        Total length         54.2615 bohr
 
 
     Adding external electric field

     Computed dipole along edir(3) : 
        Dipole               -0.4500 Ry au,         -1.1438 Debye
        Dipole field         -0.0003 Ry au, 
 
        Potential amp.        0.0302 Ry
        Total length         54.2615 bohr
 

     total cpu time spent up to now is      396.7 secs

     total energy              =   -7398.08144938 Ry
     estimated scf accuracy    <       0.02410470 Ry

     total magnetization       =    78.70 Bohr mag/cell
     absolute magnetization    =    80.36 Bohr mag/cell

     iteration # 28     ecut=    50.00 Ry     beta= 0.10
     Davidson diagonalization with overlap
     ethr =  2.24E-06,  avg # of iterations =  2.0

     negative rho (up, down):  1.388E-04 1.770E-04
 
     Adding external electric field

     Computed dipole along edir(3) : 
        Dipole               -0.4263 Ry au,         -1.0836 Debye
        Dipole field         -0.0003 Ry au, 
 
        Potential amp.        0.0286 Ry
        Total length         54.2615 bohr
 
 
     Adding external electric field

     Computed dipole along edir(3) : 
        Dipole               -0.4263 Ry au,         -1.0836 Debye
        Dipole field         -0.0003 Ry au, 
 
        Potential amp.        0.0286 Ry
        Total length         54.2615 bohr
 

     total cpu time spent up to now is      409.0 secs

     total energy              =   -7398.08165587 Ry
     estimated scf accuracy    <       0.03833914 Ry

     total magnetization       =    78.92 Bohr mag/cell
     absolute magnetization    =    80.55 Bohr mag/cell

     iteration # 29     ecut=    50.00 Ry     beta= 0.10
     Davidson diagonalization with overlap
     ethr =  2.24E-06,  avg # of iterations =  2.0

     negative rho (up, down):  1.263E-04 1.608E-04
 
     Adding external electric field

     Computed dipole along edir(3) : 
        Dipole               -0.4172 Ry au,         -1.0604 Debye
        Dipole field         -0.0003 Ry au, 
 
        Potential amp.        0.0280 Ry
        Total length         54.2615 bohr
 
 
     Adding external electric field

     Computed dipole along edir(3) : 
        Dipole               -0.4172 Ry au,         -1.0604 Debye
        Dipole field         -0.0003 Ry au, 
 
        Potential amp.        0.0280 Ry
        Total length         54.2615 bohr
 

     total cpu time spent up to now is      421.3 secs

     total energy              =   -7398.08167093 Ry
     estimated scf accuracy    <       0.03159555 Ry

     total magnetization       =    78.92 Bohr mag/cell
     absolute magnetization    =    80.52 Bohr mag/cell

     iteration # 30     ecut=    50.00 Ry     beta= 0.10
     Davidson diagonalization with overlap
     ethr =  2.24E-06,  avg # of iterations =  1.5

     negative rho (up, down):  4.378E-05 2.998E-05
 
     Adding external electric field

     Computed dipole along edir(3) : 
        Dipole               -0.3503 Ry au,         -0.8904 Debye
        Dipole field         -0.0002 Ry au, 
 
        Potential amp.        0.0235 Ry
        Total length         54.2615 bohr
 
 
     Adding external electric field

     Computed dipole along edir(3) : 
        Dipole               -0.3503 Ry au,         -0.8904 Debye
        Dipole field         -0.0002 Ry au, 
 
        Potential amp.        0.0235 Ry
        Total length         54.2615 bohr
 

     total cpu time spent up to now is      432.7 secs

     total energy              =   -7398.08073192 Ry
     estimated scf accuracy    <       0.03383124 Ry

     total magnetization       =    78.93 Bohr mag/cell
     absolute magnetization    =    80.51 Bohr mag/cell

     iteration # 31     ecut=    50.00 Ry     beta= 0.10
     Davidson diagonalization with overlap
     ethr =  2.24E-06,  avg # of iterations =  2.0

     negative rho (up, down):  1.949E-04 2.251E-04
 
     Adding external electric field

     Computed dipole along edir(3) : 
        Dipole               -0.2377 Ry au,         -0.6042 Debye
        Dipole field         -0.0001 Ry au, 
 
        Potential amp.        0.0160 Ry
        Total length         54.2615 bohr
 
 
     Adding external electric field

     Computed dipole along edir(3) : 
        Dipole               -0.2377 Ry au,         -0.6042 Debye
        Dipole field         -0.0001 Ry au, 
 
        Potential amp.        0.0160 Ry
        Total length         54.2615 bohr
 

     total cpu time spent up to now is      445.1 secs

     total energy              =   -7398.07974860 Ry
     estimated scf accuracy    <       0.04597579 Ry

     total magnetization       =    78.98 Bohr mag/cell
     absolute magnetization    =    80.48 Bohr mag/cell

     iteration # 32     ecut=    50.00 Ry     beta= 0.10
     Davidson diagonalization with overlap
     ethr =  2.24E-06,  avg # of iterations = 14.5

     negative rho (up, down):  3.707E-04 4.556E-04
 
     Adding external electric field

     Computed dipole along edir(3) : 
        Dipole               -0.2154 Ry au,         -0.5474 Debye
        Dipole field         -0.0001 Ry au, 
 
        Potential amp.        0.0145 Ry
        Total length         54.2615 bohr
 
 
     Adding external electric field

     Computed dipole along edir(3) : 
        Dipole               -0.2154 Ry au,         -0.5474 Debye
        Dipole field         -0.0001 Ry au, 
 
        Potential amp.        0.0145 Ry
        Total length         54.2615 bohr
 

     total cpu time spent up to now is      468.6 secs

     total energy              =   -7398.08009370 Ry
     estimated scf accuracy    <       0.03606347 Ry

     total magnetization       =    78.69 Bohr mag/cell
     absolute magnetization    =    80.26 Bohr mag/cell

     iteration # 33     ecut=    50.00 Ry     beta= 0.10
     Davidson diagonalization with overlap
     ethr =  2.24E-06,  avg # of iterations =  1.5

     negative rho (up, down):  3.194E-04 4.075E-04
 
     Adding external electric field

     Computed dipole along edir(3) : 
        Dipole               -0.1796 Ry au,         -0.4566 Debye
        Dipole field         -0.0001 Ry au, 
 
        Potential amp.        0.0121 Ry
        Total length         54.2615 bohr
 
 
     Adding external electric field

     Computed dipole along edir(3) : 
        Dipole               -0.1796 Ry au,         -0.4566 Debye
        Dipole field         -0.0001 Ry au, 
 
        Potential amp.        0.0121 Ry
        Total length         54.2615 bohr
 

     total cpu time spent up to now is      480.4 secs

     total energy              =   -7398.07986465 Ry
     estimated scf accuracy    <       0.02167898 Ry

     total magnetization       =    78.65 Bohr mag/cell
     absolute magnetization    =    80.26 Bohr mag/cell

     iteration # 34     ecut=    50.00 Ry     beta= 0.10
     Davidson diagonalization with overlap
     ethr =  2.01E-06,  avg # of iterations =  2.0

     negative rho (up, down):  5.621E-04 6.685E-04
 
     Adding external electric field

     Computed dipole along edir(3) : 
        Dipole               -0.1687 Ry au,         -0.4287 Debye
        Dipole field         -0.0001 Ry au, 
 
        Potential amp.        0.0113 Ry
        Total length         54.2615 bohr
 
 
     Adding external electric field

     Computed dipole along edir(3) : 
        Dipole               -0.1687 Ry au,         -0.4287 Debye
        Dipole field         -0.0001 Ry au, 
 
        Potential amp.        0.0113 Ry
        Total length         54.2615 bohr
 

     total cpu time spent up to now is      493.0 secs

     total energy              =   -7398.07991396 Ry
     estimated scf accuracy    <       0.02514191 Ry

     total magnetization       =    78.75 Bohr mag/cell
     absolute magnetization    =    80.34 Bohr mag/cell

     iteration # 35     ecut=    50.00 Ry     beta= 0.10
     Davidson diagonalization with overlap
     ethr =  2.01E-06,  avg # of iterations =  2.0

     negative rho (up, down):  8.473E-04 7.939E-04
 
     Adding external electric field

     Computed dipole along edir(3) : 
        Dipole               -0.1089 Ry au,         -0.2769 Debye
        Dipole field         -0.0001 Ry au, 
 
        Potential amp.        0.0073 Ry
        Total length         54.2615 bohr
 
 
     Adding external electric field

     Computed dipole along edir(3) : 
        Dipole               -0.1089 Ry au,         -0.2769 Debye
        Dipole field         -0.0001 Ry au, 
 
        Potential amp.        0.0073 Ry
        Total length         54.2615 bohr
 

     total cpu time spent up to now is      505.3 secs

     total energy              =   -7398.07932914 Ry
     estimated scf accuracy    <       0.01722153 Ry

     total magnetization       =    78.67 Bohr mag/cell
     absolute magnetization    =    80.31 Bohr mag/cell

     iteration # 36     ecut=    50.00 Ry     beta= 0.10
     Davidson diagonalization with overlap
     ethr =  1.60E-06,  avg # of iterations =  2.0

     negative rho (up, down):  1.971E-03 1.782E-03
 
     Adding external electric field

     Computed dipole along edir(3) : 
        Dipole               -0.0085 Ry au,         -0.0215 Debye
        Dipole field         -0.0000 Ry au, 
 
        Potential amp.        0.0006 Ry
        Total length         54.2615 bohr
 
 
     Adding external electric field

     Computed dipole along edir(3) : 
        Dipole               -0.0085 Ry au,         -0.0215 Debye
        Dipole field         -0.0000 Ry au, 
 
        Potential amp.        0.0006 Ry
        Total length         54.2615 bohr
 

     total cpu time spent up to now is      517.6 secs

     total energy              =   -7398.07876754 Ry
     estimated scf accuracy    <       0.01241512 Ry

     total magnetization       =    78.72 Bohr mag/cell
     absolute magnetization    =    80.39 Bohr mag/cell

     iteration # 37     ecut=    50.00 Ry     beta= 0.10
     Davidson diagonalization with overlap
     ethr =  1.15E-06,  avg # of iterations =  2.0

     negative rho (up, down):  5.692E-04 4.998E-04
 
     Adding external electric field

     Computed dipole along edir(3) : 
        Dipole               -0.0150 Ry au,         -0.0383 Debye
        Dipole field         -0.0000 Ry au, 
 
        Potential amp.        0.0010 Ry
        Total length         54.2615 bohr
 
 
     Adding external electric field

     Computed dipole along edir(3) : 
        Dipole               -0.0150 Ry au,         -0.0383 Debye
        Dipole field         -0.0000 Ry au, 
 
        Potential amp.        0.0010 Ry
        Total length         54.2615 bohr
 

     total cpu time spent up to now is      530.1 secs

     total energy              =   -7398.07851501 Ry
     estimated scf accuracy    <       0.00822292 Ry

     total magnetization       =    78.67 Bohr mag/cell
     absolute magnetization    =    80.37 Bohr mag/cell

     iteration # 38     ecut=    50.00 Ry     beta= 0.10
     Davidson diagonalization with overlap
     c_bands:  1 eigenvalues not converged
     ethr =  7.63E-07,  avg # of iterations = 21.0

     negative rho (up, down):  4.166E-04 3.740E-04
 
     Adding external electric field

     Computed dipole along edir(3) : 
        Dipole               -0.0527 Ry au,         -0.1338 Debye
        Dipole field         -0.0000 Ry au, 
 
        Potential amp.        0.0035 Ry
        Total length         54.2615 bohr
 
 
     Adding external electric field

     Computed dipole along edir(3) : 
        Dipole               -0.0527 Ry au,         -0.1338 Debye
        Dipole field         -0.0000 Ry au, 
 
        Potential amp.        0.0035 Ry
        Total length         54.2615 bohr
 

     total cpu time spent up to now is      556.9 secs

     total energy              =   -7398.07817907 Ry
     estimated scf accuracy    <       0.00775552 Ry

     total magnetization       =    78.82 Bohr mag/cell
     absolute magnetization    =    80.49 Bohr mag/cell

     iteration # 39     ecut=    50.00 Ry     beta= 0.10
     Davidson diagonalization with overlap
     ethr =  7.19E-07,  avg # of iterations =  3.0

     negative rho (up, down):  3.210E-04 3.183E-04
 
     Adding external electric field

     Computed dipole along edir(3) : 
        Dipole               -0.0480 Ry au,         -0.1220 Debye
        Dipole field         -0.0000 Ry au, 
 
        Potential amp.        0.0032 Ry
        Total length         54.2615 bohr
 
 
     Adding external electric field

     Computed dipole along edir(3) : 
        Dipole               -0.0480 Ry au,         -0.1220 Debye
        Dipole field         -0.0000 Ry au, 
 
        Potential amp.        0.0032 Ry
        Total length         54.2615 bohr
 

     total cpu time spent up to now is      569.7 secs

     total energy              =   -7398.07849931 Ry
     estimated scf accuracy    <       0.00627148 Ry

     total magnetization       =    78.68 Bohr mag/cell
     absolute magnetization    =    80.41 Bohr mag/cell

     iteration # 40     ecut=    50.00 Ry     beta= 0.10
     Davidson diagonalization with overlap
     ethr =  5.82E-07,  avg # of iterations =  2.0

     negative rho (up, down):  1.678E-04 2.070E-04
 
     Adding external electric field

     Computed dipole along edir(3) : 
        Dipole               -0.0465 Ry au,         -0.1182 Debye
        Dipole field         -0.0000 Ry au, 
 
        Potential amp.        0.0031 Ry
        Total length         54.2615 bohr
 
 
     Adding external electric field

     Computed dipole along edir(3) : 
        Dipole               -0.0465 Ry au,         -0.1182 Debye
        Dipole field         -0.0000 Ry au, 
 
        Potential amp.        0.0031 Ry
        Total length         54.2615 bohr
 

     total cpu time spent up to now is      582.1 secs

     total energy              =   -7398.07841117 Ry
     estimated scf accuracy    <       0.00377064 Ry

     total magnetization       =    78.73 Bohr mag/cell
     absolute magnetization    =    80.45 Bohr mag/cell

     iteration # 41     ecut=    50.00 Ry     beta= 0.10
     Davidson diagonalization with overlap
     ethr =  3.50E-07,  avg # of iterations =  2.0

     negative rho (up, down):  1.862E-05 2.521E-05
 
     Adding external electric field

     Computed dipole along edir(3) : 
        Dipole               -0.0670 Ry au,         -0.1703 Debye
        Dipole field         -0.0000 Ry au, 
 
        Potential amp.        0.0045 Ry
        Total length         54.2615 bohr
 
 
     Adding external electric field

     Computed dipole along edir(3) : 
        Dipole               -0.0670 Ry au,         -0.1703 Debye
        Dipole field         -0.0000 Ry au, 
 
        Potential amp.        0.0045 Ry
        Total length         54.2615 bohr
 

     total cpu time spent up to now is      594.5 secs

     total energy              =   -7398.07835775 Ry
     estimated scf accuracy    <       0.00267272 Ry

     total magnetization       =    78.74 Bohr mag/cell
     absolute magnetization    =    80.44 Bohr mag/cell

     iteration # 42     ecut=    50.00 Ry     beta= 0.10
     Davidson diagonalization with overlap
     ethr =  2.48E-07,  avg # of iterations =  2.0

     negative rho (up, down):  2.718E-06 2.263E-06
 
     Adding external electric field

     Computed dipole along edir(3) : 
        Dipole               -0.0328 Ry au,         -0.0833 Debye
        Dipole field         -0.0000 Ry au, 
 
        Potential amp.        0.0022 Ry
        Total length         54.2615 bohr
 
 
     Adding external electric field

     Computed dipole along edir(3) : 
        Dipole               -0.0328 Ry au,         -0.0833 Debye
        Dipole field         -0.0000 Ry au, 
 
        Potential amp.        0.0022 Ry
        Total length         54.2615 bohr
 

     total cpu time spent up to now is      607.0 secs

     total energy              =   -7398.07843552 Ry
     estimated scf accuracy    <       0.00252100 Ry

     total magnetization       =    78.78 Bohr mag/cell
     absolute magnetization    =    80.44 Bohr mag/cell

     iteration # 43     ecut=    50.00 Ry     beta= 0.10
     Davidson diagonalization with overlap
     ethr =  2.34E-07,  avg # of iterations =  2.0

     negative rho (up, down):  1.898E-05 1.696E-05
 
     Adding external electric field

     Computed dipole along edir(3) : 
        Dipole                0.0253 Ry au,          0.0642 Debye
        Dipole field          0.0000 Ry au, 
 
        Potential amp.       -0.0017 Ry
        Total length         54.2615 bohr
 
 
     Adding external electric field

     Computed dipole along edir(3) : 
        Dipole                0.0253 Ry au,          0.0642 Debye
        Dipole field          0.0000 Ry au, 
 
        Potential amp.       -0.0017 Ry
        Total length         54.2615 bohr
 

     total cpu time spent up to now is      619.6 secs

     total energy              =   -7398.07862267 Ry
     estimated scf accuracy    <       0.00155160 Ry

     total magnetization       =    78.72 Bohr mag/cell
     absolute magnetization    =    80.38 Bohr mag/cell

     iteration # 44     ecut=    50.00 Ry     beta= 0.10
     Davidson diagonalization with overlap
     ethr =  1.44E-07,  avg # of iterations =  2.0

     negative rho (up, down):  8.920E-06 6.491E-06
 
     Adding external electric field

     Computed dipole along edir(3) : 
        Dipole                0.0380 Ry au,          0.0965 Debye
        Dipole field          0.0000 Ry au, 
 
        Potential amp.       -0.0025 Ry
        Total length         54.2615 bohr
 
 
     Adding external electric field

     Computed dipole along edir(3) : 
        Dipole                0.0380 Ry au,          0.0965 Debye
        Dipole field          0.0000 Ry au, 
 
        Potential amp.       -0.0025 Ry
        Total length         54.2615 bohr
 

     total cpu time spent up to now is      632.2 secs

     total energy              =   -7398.07868491 Ry
     estimated scf accuracy    <       0.00095444 Ry

     total magnetization       =    78.76 Bohr mag/cell
     absolute magnetization    =    80.43 Bohr mag/cell

     iteration # 45     ecut=    50.00 Ry     beta= 0.10
     Davidson diagonalization with overlap
     ethr =  8.85E-08,  avg # of iterations =  1.5

     negative rho (up, down):  5.312E-06 2.875E-06
 
     Adding external electric field

     Computed dipole along edir(3) : 
        Dipole                0.0445 Ry au,          0.1131 Debye
        Dipole field          0.0000 Ry au, 
 
        Potential amp.       -0.0030 Ry
        Total length         54.2615 bohr
 
 
     Adding external electric field

     Computed dipole along edir(3) : 
        Dipole                0.0445 Ry au,          0.1131 Debye
        Dipole field          0.0000 Ry au, 
 
        Potential amp.       -0.0030 Ry
        Total length         54.2615 bohr
 

     total cpu time spent up to now is      644.0 secs

     total energy              =   -7398.07870588 Ry
     estimated scf accuracy    <       0.00084148 Ry

     total magnetization       =    78.78 Bohr mag/cell
     absolute magnetization    =    80.44 Bohr mag/cell

     iteration # 46     ecut=    50.00 Ry     beta= 0.10
     Davidson diagonalization with overlap
     ethr =  7.81E-08,  avg # of iterations =  2.0

     negative rho (up, down):  1.028E-05 3.731E-06
 
     Adding external electric field

     Computed dipole along edir(3) : 
        Dipole                0.0558 Ry au,          0.1418 Debye
        Dipole field          0.0000 Ry au, 
 
        Potential amp.       -0.0037 Ry
        Total length         54.2615 bohr
 
 
     Adding external electric field

     Computed dipole along edir(3) : 
        Dipole                0.0558 Ry au,          0.1418 Debye
        Dipole field          0.0000 Ry au, 
 
        Potential amp.       -0.0037 Ry
        Total length         54.2615 bohr
 

     total cpu time spent up to now is      656.6 secs

     total energy              =   -7398.07874430 Ry
     estimated scf accuracy    <       0.00079041 Ry

     total magnetization       =    78.77 Bohr mag/cell
     absolute magnetization    =    80.44 Bohr mag/cell

     iteration # 47     ecut=    50.00 Ry     beta= 0.10
     Davidson diagonalization with overlap
     ethr =  7.33E-08,  avg # of iterations =  1.5

     negative rho (up, down):  7.944E-05 1.971E-05
 
     Adding external electric field

     Computed dipole along edir(3) : 
        Dipole                0.0715 Ry au,          0.1816 Debye
        Dipole field          0.0000 Ry au, 
 
        Potential amp.       -0.0048 Ry
        Total length         54.2615 bohr
 
 
     Adding external electric field

     Computed dipole along edir(3) : 
        Dipole                0.0715 Ry au,          0.1816 Debye
        Dipole field          0.0000 Ry au, 
 
        Potential amp.       -0.0048 Ry
        Total length         54.2615 bohr
 

     total cpu time spent up to now is      668.3 secs

     total energy              =   -7398.07879143 Ry
     estimated scf accuracy    <       0.00069650 Ry

     total magnetization       =    78.78 Bohr mag/cell
     absolute magnetization    =    80.44 Bohr mag/cell

     iteration # 48     ecut=    50.00 Ry     beta= 0.10
     Davidson diagonalization with overlap
     ethr =  6.46E-08,  avg # of iterations =  2.0

     negative rho (up, down):  1.295E-04 2.916E-05
 
     Adding external electric field

     Computed dipole along edir(3) : 
        Dipole                0.0708 Ry au,          0.1801 Debye
        Dipole field          0.0000 Ry au, 
 
        Potential amp.       -0.0048 Ry
        Total length         54.2615 bohr
 
 
     Adding external electric field

     Computed dipole along edir(3) : 
        Dipole                0.0708 Ry au,          0.1801 Debye
        Dipole field          0.0000 Ry au, 
 
        Potential amp.       -0.0048 Ry
        Total length         54.2615 bohr
 

     total cpu time spent up to now is      680.6 secs

     total energy              =   -7398.07878863 Ry
     estimated scf accuracy    <       0.00049409 Ry

     total magnetization       =    78.79 Bohr mag/cell
     absolute magnetization    =    80.45 Bohr mag/cell

     iteration # 49     ecut=    50.00 Ry     beta= 0.10
     Davidson diagonalization with overlap
     ethr =  4.58E-08,  avg # of iterations =  2.0

     negative rho (up, down):  4.283E-04 2.205E-04
 
     Adding external electric field

     Computed dipole along edir(3) : 
        Dipole                0.0741 Ry au,          0.1884 Debye
        Dipole field          0.0000 Ry au, 
 
        Potential amp.       -0.0050 Ry
        Total length         54.2615 bohr
 
 
     Adding external electric field

     Computed dipole along edir(3) : 
        Dipole                0.0741 Ry au,          0.1884 Debye
        Dipole field          0.0000 Ry au, 
 
        Potential amp.       -0.0050 Ry
        Total length         54.2615 bohr
 

     total cpu time spent up to now is      693.9 secs

     total energy              =   -7398.07876944 Ry
     estimated scf accuracy    <       0.00030998 Ry

     total magnetization       =    78.79 Bohr mag/cell
     absolute magnetization    =    80.44 Bohr mag/cell

     iteration # 50     ecut=    50.00 Ry     beta= 0.10
     Davidson diagonalization with overlap
     ethr =  2.88E-08,  avg # of iterations =  2.0

     negative rho (up, down):  9.305E-04 6.811E-04
 
     Adding external electric field

     Computed dipole along edir(3) : 
        Dipole                0.0798 Ry au,          0.2030 Debye
        Dipole field          0.0000 Ry au, 
 
        Potential amp.       -0.0054 Ry
        Total length         54.2615 bohr
 
 
     Adding external electric field

     Computed dipole along edir(3) : 
        Dipole                0.0798 Ry au,          0.2030 Debye
        Dipole field          0.0000 Ry au, 
 
        Potential amp.       -0.0054 Ry
        Total length         54.2615 bohr
 

     total cpu time spent up to now is      707.3 secs

     total energy              =   -7398.07878139 Ry
     estimated scf accuracy    <       0.00017664 Ry

     total magnetization       =    78.79 Bohr mag/cell
     absolute magnetization    =    80.43 Bohr mag/cell

     iteration # 51     ecut=    50.00 Ry     beta= 0.10
     Davidson diagonalization with overlap
     ethr =  1.64E-08,  avg # of iterations =  1.5

     negative rho (up, down):  1.058E-03 7.867E-04
 
     Adding external electric field

     Computed dipole along edir(3) : 
        Dipole                0.0880 Ry au,          0.2238 Debye
        Dipole field          0.0001 Ry au, 
 
        Potential amp.       -0.0059 Ry
        Total length         54.2615 bohr
 
 
     Adding external electric field

     Computed dipole along edir(3) : 
        Dipole                0.0880 Ry au,          0.2238 Debye
        Dipole field          0.0001 Ry au, 
 
        Potential amp.       -0.0059 Ry
        Total length         54.2615 bohr
 

     total cpu time spent up to now is      720.5 secs

     total energy              =   -7398.07878284 Ry
     estimated scf accuracy    <       0.00014407 Ry

     total magnetization       =    78.79 Bohr mag/cell
     absolute magnetization    =    80.43 Bohr mag/cell

     iteration # 52     ecut=    50.00 Ry     beta= 0.10
     Davidson diagonalization with overlap
     ethr =  1.34E-08,  avg # of iterations =  2.0

     negative rho (up, down):  8.744E-04 6.321E-04
 
     Adding external electric field

     Computed dipole along edir(3) : 
        Dipole                0.0808 Ry au,          0.2053 Debye
        Dipole field          0.0000 Ry au, 
 
        Potential amp.       -0.0054 Ry
        Total length         54.2615 bohr
 
 
     Adding external electric field

     Computed dipole along edir(3) : 
        Dipole                0.0808 Ry au,          0.2053 Debye
        Dipole field          0.0000 Ry au, 
 
        Potential amp.       -0.0054 Ry
        Total length         54.2615 bohr
 

     total cpu time spent up to now is      733.5 secs

     total energy              =   -7398.07877925 Ry
     estimated scf accuracy    <       0.00016954 Ry

     total magnetization       =    78.79 Bohr mag/cell
     absolute magnetization    =    80.44 Bohr mag/cell

     iteration # 53     ecut=    50.00 Ry     beta= 0.10
     Davidson diagonalization with overlap
     ethr =  1.34E-08,  avg # of iterations =  1.5

     negative rho (up, down):  9.388E-04 7.060E-04
 
     Adding external electric field

     Computed dipole along edir(3) : 
        Dipole                0.0799 Ry au,          0.2031 Debye
        Dipole field          0.0000 Ry au, 
 
        Potential amp.       -0.0054 Ry
        Total length         54.2615 bohr
 
 
     Adding external electric field

     Computed dipole along edir(3) : 
        Dipole                0.0799 Ry au,          0.2031 Debye
        Dipole field          0.0000 Ry au, 
 
        Potential amp.       -0.0054 Ry
        Total length         54.2615 bohr
 

     total cpu time spent up to now is      745.8 secs

     total energy              =   -7398.07877996 Ry
     estimated scf accuracy    <       0.00015359 Ry

     total magnetization       =    78.79 Bohr mag/cell
     absolute magnetization    =    80.44 Bohr mag/cell

     iteration # 54     ecut=    50.00 Ry     beta= 0.10
     Davidson diagonalization with overlap
     ethr =  1.34E-08,  avg # of iterations =  1.0

     negative rho (up, down):  9.565E-04 7.283E-04
 
     Adding external electric field

     Computed dipole along edir(3) : 
        Dipole                0.0805 Ry au,          0.2046 Debye
        Dipole field          0.0000 Ry au, 
 
        Potential amp.       -0.0054 Ry
        Total length         54.2615 bohr
 
 
     Adding external electric field

     Computed dipole along edir(3) : 
        Dipole                0.0805 Ry au,          0.2046 Debye
        Dipole field          0.0000 Ry au, 
 
        Potential amp.       -0.0054 Ry
        Total length         54.2615 bohr
 

     total cpu time spent up to now is      757.5 secs

     total energy              =   -7398.07878154 Ry
     estimated scf accuracy    <       0.00013386 Ry

     total magnetization       =    78.79 Bohr mag/cell
     absolute magnetization    =    80.44 Bohr mag/cell

     iteration # 55     ecut=    50.00 Ry     beta= 0.10
     Davidson diagonalization with overlap
     ethr =  1.24E-08,  avg # of iterations =  2.0

     negative rho (up, down):  1.368E-03 1.169E-03
 
     Adding external electric field

     Computed dipole along edir(3) : 
        Dipole                0.1018 Ry au,          0.2588 Debye
        Dipole field          0.0001 Ry au, 
 
        Potential amp.       -0.0068 Ry
        Total length         54.2615 bohr
 
 
     Adding external electric field

     Computed dipole along edir(3) : 
        Dipole                0.1018 Ry au,          0.2588 Debye
        Dipole field          0.0001 Ry au, 
 
        Potential amp.       -0.0068 Ry
        Total length         54.2615 bohr
 

     total cpu time spent up to now is      771.0 secs

     total energy              =   -7398.07879251 Ry
     estimated scf accuracy    <       0.00012267 Ry

     total magnetization       =    78.78 Bohr mag/cell
     absolute magnetization    =    80.44 Bohr mag/cell

     iteration # 56     ecut=    50.00 Ry     beta= 0.10
     Davidson diagonalization with overlap
     ethr =  1.14E-08,  avg # of iterations =  2.0

     negative rho (up, down):  1.457E-03 1.279E-03
 
     Adding external electric field

     Computed dipole along edir(3) : 
        Dipole                0.1044 Ry au,          0.2655 Debye
        Dipole field          0.0001 Ry au, 
 
        Potential amp.       -0.0070 Ry
        Total length         54.2615 bohr
 
 
     Adding external electric field

     Computed dipole along edir(3) : 
        Dipole                0.1044 Ry au,          0.2655 Debye
        Dipole field          0.0001 Ry au, 
 
        Potential amp.       -0.0070 Ry
        Total length         54.2615 bohr
 

     total cpu time spent up to now is      784.8 secs

     total energy              =   -7398.07879797 Ry
     estimated scf accuracy    <       0.00007629 Ry

     total magnetization       =    78.78 Bohr mag/cell
     absolute magnetization    =    80.44 Bohr mag/cell

     iteration # 57     ecut=    50.00 Ry     beta= 0.10
     Davidson diagonalization with overlap
     ethr =  7.08E-09,  avg # of iterations =  2.0

     negative rho (up, down):  1.393E-03 1.210E-03
 
     Adding external electric field

     Computed dipole along edir(3) : 
        Dipole                0.1040 Ry au,          0.2643 Debye
        Dipole field          0.0001 Ry au, 
 
        Potential amp.       -0.0070 Ry
        Total length         54.2615 bohr
 
 
     Adding external electric field

     Computed dipole along edir(3) : 
        Dipole                0.1040 Ry au,          0.2643 Debye
        Dipole field          0.0001 Ry au, 
 
        Potential amp.       -0.0070 Ry
        Total length         54.2615 bohr
 

     total cpu time spent up to now is      798.9 secs

     total energy              =   -7398.07879754 Ry
     estimated scf accuracy    <       0.00007483 Ry

     total magnetization       =    78.78 Bohr mag/cell
     absolute magnetization    =    80.44 Bohr mag/cell

     iteration # 58     ecut=    50.00 Ry     beta= 0.10
     Davidson diagonalization with overlap
     ethr =  6.94E-09,  avg # of iterations =  1.0

     negative rho (up, down):  1.404E-03 1.227E-03
 
     Adding external electric field

     Computed dipole along edir(3) : 
        Dipole                0.1038 Ry au,          0.2639 Debye
        Dipole field          0.0001 Ry au, 
 
        Potential amp.       -0.0070 Ry
        Total length         54.2615 bohr
 
 
     Adding external electric field

     Computed dipole along edir(3) : 
        Dipole                0.1038 Ry au,          0.2639 Debye
[...]
    -6.0069  -5.9878  -5.9749  -5.9617  -5.9517  -5.9041  -5.8638  -5.8562
    -5.8314  -5.8248  -5.8043  -5.7843  -5.7738  -5.7415  -5.7178  -5.7008
    -5.6984  -5.6780  -5.6620  -5.6575  -5.6332  -5.6155  -5.5774  -5.5393
    -5.5118  -5.4778  -5.4486  -5.4284  -5.4194  -5.3968  -5.3663  -5.2983
    -5.2797  -5.2587  -5.2476  -5.2371  -5.1541  -5.1267  -5.1015  -5.0791
    -5.0492  -5.0085  -4.9870  -4.9716  -4.9389  -4.9266  -4.8984  -4.8741
    -4.8226  -4.8010  -4.7481  -4.7410  -4.7082  -4.7031  -4.6705  -4.5957
    -4.5439  -4.5314  -4.5249  -4.4972  -4.4903  -4.4656  -4.4109  -4.3909
    -4.3806  -4.3194  -4.2639  -4.2311  -4.1972  -4.1846  -4.1550  -4.1437
    -4.0932  -4.0642  -4.0381  -4.0244  -3.9949  -3.9649  -3.9479  -3.9301
    -3.9267  -3.8870  -3.8492  -3.8313  -3.8206  -3.7726  -3.7504  -3.7460
    -3.7292  -3.7022  -3.6852  -3.6796  -3.6703  -3.6440  -3.6426  -3.6214
    -3.5723  -3.5512  -3.5447  -3.5213  -3.5149  -3.5105  -3.4770  -3.4714
    -3.4598  -3.4197  -3.3995  -3.3823  -3.3581  -3.3504  -3.3058  -3.2880
    -3.2797  -3.2503  -3.2252  -3.2109  -3.2015  -3.1847  -3.1728  -3.1635
    -3.1285  -3.1179  -3.0828  -3.0531  -3.0474  -3.0259  -3.0184  -2.9708
    -2.9620  -2.9386  -2.9327  -2.9048  -2.8767  -2.8601  -2.8416  -2.8182
    -2.8060  -2.7922  -2.7910  -2.7824  -2.7764  -2.7651  -2.7564  -2.7418
    -2.7191  -2.7023  -2.6810  -2.6750  -2.6500  -2.6438  -2.6194  -2.6048
    -2.5854  -2.5767  -2.5448  -2.5261  -2.5099  -2.5088  -2.4871  -2.4712
    -2.4373  -2.4368  -2.4144  -2.4118  -2.3685  -2.3586  -2.3254  -2.3235
    -2.2990  -2.2697  -2.2567  -2.2381  -2.2151  -2.2082  -2.1816  -2.1542
    -2.1506  -2.1309  -2.1040  -2.0899  -2.0739  -2.0662  -2.0381  -2.0094
    -2.0085  -1.9985  -1.9871  -1.9695  -1.9384  -1.9279  -1.9126  -1.8894
    -1.8671  -1.8484  -1.8153  -1.8110  -1.8071  -1.7762  -1.7547  -1.7368
    -1.7184  -1.6910  -1.6835  -1.6631  -1.6467  -1.6190  -1.5733  -1.5646
    -1.5604  -1.5462  -1.5134  -1.5069  -1.4842  -1.4603  -1.4498  -1.4328
    -1.4312  -1.3982  -1.3658  -1.3349  -1.3199  -1.3032  -1.2873  -1.2524
    -1.2076  -1.1869  -1.1199  -1.0940  -1.0091  -0.9914  -0.9057  -0.8625
    -0.8483  -0.8081  -0.7121  -0.5576  -0.4870  -0.4155  -0.3450  -0.2404
     0.0828   0.1063   0.1328   0.1731   0.2039   0.2120   0.2235   0.2289
     0.2533   0.2674   0.2794   0.2884   0.2955   0.2972   0.3204   0.3273
     0.3311   0.3400   0.3472   0.3571   0.3618   0.3761   0.3795   0.3865
     0.3951   0.3985   0.4027   0.4081   0.4205   0.4255   0.4277   0.4353
     0.4424   0.4587   0.4632   0.4669   0.4700   0.4770   0.4801   0.4863
     0.5032   0.5125   0.5164   0.5185   0.5240   0.5334   0.5379   0.5487
     0.5579   0.5694   0.5810   0.5831   0.5943   0.5956   0.6045   0.6132
     0.6190   0.6241   0.6304   0.6351   0.6473   0.6497   0.6563   0.6618
     0.6708   0.6768   0.6972   0.7035   0.7124   0.7216   0.7224   0.7233
     0.7262   0.7417   0.7452   0.7682   0.7769   0.7864   0.7945   0.8058
     0.8064   0.8187   0.8191   0.8330   0.8403   0.8458   0.8545   0.8687
     0.8704   0.8908   0.8932   0.9150   0.9174   0.9387   0.9540   0.9752
     0.9894   1.0995   1.1333   1.6487   1.6563   1.6616   1.6903   1.6913
     1.7113   1.7142   1.8040   1.8264   1.8554   1.8748   1.9164   1.9216
     1.9415   1.9707   1.9913   1.9953   2.0230   2.0412   2.0479   2.0794
     2.1013   2.1090   2.1437   2.1607   2.1710   2.1837   2.2119   2.2171
     2.2216   2.2371   2.2404   2.2615   2.2726   2.2799   2.2981   2.3094
     2.3172   2.3265   2.3319   2.3562   2.3659   2.3870   2.4017   2.4139
     2.4391   2.4401   2.4665   2.4731   2.4965   2.5022   2.5153   2.5457
     2.5585   2.5678   2.5856   2.6230   2.6529   2.6955   2.7122   2.7704
     2.7757   2.7886   2.8238   2.8473   2.8870   3.2545   3.4479   3.6848
     3.7643   3.8412   3.9096   3.9760   4.0006   4.0667   4.3162   4.4016
     4.6128   4.7404   4.8565   4.8859   4.9273   5.0185   5.3753   6.2827
     6.3280   6.4773   6.5566   6.6467   6.7055   6.8004   6.8088   6.8539
     6.9974   7.0262   7.0880   7.1075   7.2822   7.3329   7.3394   7.3705
     7.4964   7.5787   7.6300   7.6567   7.6893   7.6930   7.7783   7.8104
     7.8612   7.9041   7.9297   7.9445   7.9781   7.9907   8.0442   8.0718
     8.0904   8.1116   8.1462   8.1911   8.2306   8.2462   8.2674   8.2963
     8.3092   8.3404   8.3811   8.4296   8.4516   8.4615   8.4929   8.5128
     8.5316   8.5400   8.5482   8.5729   8.6045   8.6256   8.6312   8.6595
     8.6905   8.7106   8.7293   8.7816   8.8099   8.8309   8.8863

     the Fermi energy is     1.5465 ev

!    total energy              =   -7398.07879264 Ry
     estimated scf accuracy    <       0.00000096 Ry
     smearing contrib. (-TS)   =      -0.01374514 Ry
     internal energy E=F+TS    =   -7398.06504750 Ry

     The total energy is F=E-TS. E is the sum of the following terms:
     one-electron contribution =  -91721.15588488 Ry
     hartree contribution      =   46507.20930954 Ry
     xc contribution           =   -2260.23301998 Ry
     ewald contribution        =   40077.94742440 Ry
     Dispersion Correction     =      -1.83288483 Ry
     electric field correction =       0.00000825 Ry

     total magnetization       =    78.78 Bohr mag/cell
     absolute magnetization    =    80.45 Bohr mag/cell

     convergence has been achieved in  70 iterations

     negative rho (up, down):  9.271E-04 5.556E-04

     Forces acting on atoms (cartesian axes, Ry/au):

     atom    1 type  2   force =    -0.00301366    0.00308538    0.00406027
     atom    2 type  1   force =    -0.00011143    0.00011264    0.00001607
     atom    3 type  1   force =     0.00014140   -0.00086854   -0.00035391
     atom    4 type  1   force =    -0.00013933    0.00001130    0.00042288
     atom    5 type  1   force =    -0.00006569   -0.00015288    0.00031998
     atom    6 type  1   force =    -0.00003177   -0.00057101    0.00018382
     atom    7 type  1   force =    -0.00036460   -0.00014794   -0.00012003
     atom    8 type  1   force =    -0.00026488    0.00003883   -0.00018348
     atom    9 type  1   force =    -0.00013263    0.00036682   -0.00054905
     atom   10 type  1   force =    -0.00040703    0.00018629    0.00004652
     atom   11 type  1   force =    -0.00066053    0.00035025   -0.00050356
     atom   12 type  1   force =     0.00015119    0.00008932   -0.00087698
     atom   13 type  3   force =    -0.00046166   -0.00014579   -0.00019788
     atom   14 type  3   force =    -0.00000510   -0.00002196   -0.00006903
     atom   15 type  3   force =    -0.00018320   -0.00011312   -0.00019226
     atom   16 type  3   force =     0.00000211   -0.00000208   -0.00013884
     atom   17 type  4   force =     0.00013517   -0.00016486    0.00010369
     atom   18 type  4   force =     0.00030785   -0.00005108    0.00009776
     atom   19 type  4   force =     0.00031842   -0.00048898    0.00077205
     atom   20 type  4   force =    -0.00005231    0.00040070    0.00024795
     atom   21 type  4   force =    -0.00026042    0.00023945    0.00003736
     atom   22 type  4   force =    -0.00007150    0.00017218   -0.00045201
     atom   23 type  4   force =     0.00016282   -0.00048462   -0.00090798
     atom   24 type  4   force =     0.00013295   -0.00005811    0.00017774
     atom   25 type  4   force =    -0.00021283    0.00008173    0.00013557
     atom   26 type  4   force =     0.00036055   -0.00019988    0.00013095
     atom   27 type  4   force =    -0.00004669    0.00039513    0.00003603
     atom   28 type  4   force =    -0.00009094   -0.00004170   -0.00038128
     atom   29 type  4   force =    -0.00002595   -0.00035952    0.00000339
     atom   30 type  4   force =    -0.00052675   -0.00011370   -0.00027059
     atom   31 type  4   force =    -0.00008113    0.00006535   -0.00030721
     atom   32 type  4   force =    -0.00017408    0.00019718   -0.00050744
     atom   33 type  3   force =     0.00075620    0.00006329    0.00042682
     atom   34 type  3   force =    -0.00032153    0.00046525    0.00073605
     atom   35 type  3   force =     0.00022799   -0.00013643    0.00014442
     atom   36 type  3   force =    -0.00029450   -0.00006402   -0.00028452
     atom   37 type  4   force =     0.00005735    0.00009289    0.00001585
     atom   38 type  4   force =    -0.00008935    0.00040106   -0.00006410
     atom   39 type  4   force =    -0.00010647    0.00005486    0.00014269
     atom   40 type  4   force =    -0.00024584   -0.00011459   -0.00036725
     atom   41 type  4   force =     0.00000581   -0.00015102   -0.00011175
     atom   42 type  4   force =    -0.00015924    0.00009017   -0.00033802
     atom   43 type  4   force =     0.00033704    0.00005673    0.00013700
     atom   44 type  4   force =     0.00002028   -0.00021670   -0.00010312
     atom   45 type  4   force =    -0.00018007   -0.00000724   -0.00023051
     atom   46 type  4   force =     0.00044740   -0.00010480   -0.00006812
     atom   47 type  4   force =     0.00004244   -0.00030641    0.00011875
     atom   48 type  4   force =     0.00033238    0.00049662   -0.00024343
     atom   49 type  4   force =     0.00010003   -0.00003250   -0.00042552
     atom   50 type  4   force =    -0.00023769   -0.00019847   -0.00000220
     atom   51 type  4   force =     0.00005063   -0.00024062   -0.00001577
     atom   52 type  4   force =     0.00002580   -0.00030517   -0.00013731
     atom   53 type  2   force =     0.00252971   -0.00353084    0.00535545
     atom   54 type  1   force =     0.00495277   -0.00216718    0.00381477
     atom   55 type  1   force =     0.00815673   -0.00306916    0.00269203
     atom   56 type  1   force =    -0.00192014    0.01022892    0.00598760
     atom   57 type  1   force =     0.00039951    0.02287160    0.01486457
     atom   58 type  1   force =     0.00210651   -0.00313735   -0.00139466
     atom   59 type  1   force =     0.00091049   -0.00888113    0.00122306
     atom   60 type  1   force =    -0.00513333   -0.00182219    0.00475380
     atom   61 type  1   force =    -0.00188529   -0.00050490    0.00433791
     atom   62 type  1   force =    -0.00436376    0.00824159    0.00587200
     atom   63 type  1   force =    -0.01150048    0.02567646    0.01881265
     atom   64 type  1   force =    -0.00200796    0.00127218    0.00155769
     atom   65 type  3   force =     0.04620576   -0.11393048   -0.01059585
     atom   66 type  3   force =    -0.00057754   -0.00146393    0.00422702
     atom   67 type  3   force =    -0.03975083    0.12467149    0.01504601
     atom   68 type  3   force =     0.06274313   -0.00163588   -0.00334111
     atom   69 type  4   force =     0.01383304   -0.01830073    0.00362454
     atom   70 type  4   force =    -0.00068612    0.00265227   -0.00117887
     atom   71 type  4   force =    -0.00120391    0.00359472   -0.00552021
     atom   72 type  4   force =     0.00407503    0.00180806   -0.00066482
     atom   73 type  4   force =     0.00090776   -0.01153520    0.00269048
     atom   74 type  4   force =    -0.00016171   -0.00072874   -0.00016366
     atom   75 type  4   force =     0.00137240    0.01460092    0.00516365
     atom   76 type  4   force =     0.00837149    0.00518704    0.00921172
     atom   77 type  4   force =     0.00710882   -0.00260113    0.00156759
     atom   78 type  4   force =     0.04458974   -0.14172167   -0.00647787
     atom   79 type  4   force =     0.00172605    0.00192842    0.00140996
     atom   80 type  4   force =    -0.00003364    0.00290165   -0.00162941
     atom   81 type  4   force =     0.06791218    0.00048824   -0.00647799
     atom   82 type  4   force =    -0.00009384    0.00073235   -0.00148579
     atom   83 type  4   force =    -0.03923702    0.13496029    0.00267885
     atom   84 type  4   force =    -0.00288751   -0.01099632   -0.00415128
     atom   85 type  3   force =     0.03993483   -0.12017945   -0.01828182
     atom   86 type  3   force =    -0.06404750    0.00010003    0.00871288
     atom   87 type  3   force =    -0.04513389    0.12430490    0.01709472
     atom   88 type  3   force =    -0.00169284    0.00015088    0.00257692
     atom   89 type  4   force =     0.00901551   -0.01525027    0.00392685
     atom   90 type  4   force =    -0.00487553    0.00148893   -0.00006396
     atom   91 type  4   force =    -0.00890305    0.00826027   -0.00587910
     atom   92 type  4   force =     0.00011484    0.00010422   -0.00056091
     atom   93 type  4   force =    -0.00176853   -0.00835984    0.00739801
     atom   94 type  4   force =    -0.00403894    0.00018443    0.00111174
     atom   95 type  4   force =    -0.00376512    0.01402174    0.00662678
     atom   96 type  4   force =     0.00417491    0.00514255    0.00960613
     atom   97 type  4   force =     0.00001751    0.00038826    0.00067427
     atom   98 type  4   force =     0.04024071   -0.14072174   -0.00490570
     atom   99 type  4   force =    -0.06677268    0.00000132    0.00635197
     atom  100 type  4   force =    -0.00171273    0.00403560   -0.00239535
     atom  101 type  4   force =     0.00019431    0.00070891   -0.00078631
     atom  102 type  4   force =    -0.00631020    0.00380096   -0.00137676
     atom  103 type  4   force =    -0.04027026    0.13351915    0.00431888
     atom  104 type  4   force =    -0.00694322   -0.00985798   -0.00518960
     atom  105 type  2   force =     0.00429002   -0.00668617   -0.01804011
     atom  106 type  1   force =     0.02807546    0.01423961    0.01174553
     atom  107 type  1   force =     0.00869444   -0.00615447   -0.01416249
     atom  108 type  1   force =    -0.02831705    0.02162563    0.01871627
     atom  109 type  1   force =     0.00502140    0.01612773    0.00949226
     atom  110 type  1   force =    -0.00249037   -0.00868071   -0.00670605
     atom  111 type  1   force =    -0.00087817   -0.00950461   -0.01156876
     atom  112 type  1   force =     0.02907910    0.01749149    0.01144812
     atom  113 type  1   force =    -0.00072111   -0.00500425   -0.01400476
     atom  114 type  1   force =    -0.02959746    0.02066948    0.01850847
     atom  115 type  1   force =    -0.00722499    0.01852457    0.01221919
     atom  116 type  1   force =    -0.00555076   -0.00428800   -0.00291569
     atom  117 type  3   force =     0.01422694   -0.17391325   -0.10883649
     atom  118 type  3   force =     0.00518478   -0.00851567   -0.01263187
     atom  119 type  3   force =    -0.04467022    0.12489416   -0.00190933
     atom  120 type  3   force =     0.09507963   -0.04106357   -0.07976645
     atom  121 type  4   force =     0.00608010   -0.01710587    0.03722231
     atom  122 type  4   force =    -0.00352263    0.00373672    0.00448804
     atom  123 type  4   force =    -0.00083969    0.00259701   -0.00286653
     atom  124 type  4   force =     0.00851931    0.00214682    0.02700891
     atom  125 type  4   force =     0.00986281   -0.01692627    0.01588030
     atom  126 type  4   force =    -0.00750356    0.00100846   -0.00305301
     atom  127 type  4   force =     0.00400566    0.00972898    0.00052204
     atom  128 type  4   force =    -0.00060899   -0.00110876    0.03011718
     atom  129 type  4   force =    -0.00764076    0.02555200    0.00119286
     atom  130 type  4   force =     0.04342363   -0.14588451   -0.00190301
     atom  131 type  4   force =    -0.01746546   -0.00038707    0.00286912
     atom  132 type  4   force =     0.00335777    0.00266124    0.00201159
     atom  133 type  4   force =     0.06970080    0.00365093   -0.00191039
     atom  134 type  4   force =     0.00093457    0.00364236    0.00272307
     atom  135 type  4   force =    -0.02758026    0.17228356    0.00606133
     atom  136 type  4   force =     0.01963154   -0.00861862    0.00401567
     atom  137 type  3   force =     0.00908551   -0.16687710   -0.09428948
     atom  138 type  3   force =    -0.06464116   -0.00209370   -0.00495882
     atom  139 type  3   force =    -0.04873842    0.11822400    0.00149909
     atom  140 type  3   force =     0.03145100   -0.04325184   -0.07373402
     atom  141 type  4   force =     0.00464388   -0.01332883    0.03215998
     atom  142 type  4   force =    -0.00545397   -0.00031431    0.00429864
     atom  143 type  4   force =    -0.00819011    0.00811731   -0.00352320
     atom  144 type  4   force =     0.00385969    0.00134230    0.02760930
     atom  145 type  4   force =     0.00688918   -0.01302451    0.03228419
     atom  146 type  4   force =    -0.00877549   -0.00174976   -0.00302171
     atom  147 type  4   force =     0.00034724    0.00992264    0.00271977
     atom  148 type  4   force =    -0.00789968    0.00120010    0.02903449
     atom  149 type  4   force =    -0.01314556    0.02946842    0.00050577
     atom  150 type  4   force =     0.03980520   -0.13832901   -0.00138744
     atom  151 type  4   force =    -0.08621913   -0.00173549    0.00915822
     atom  152 type  4   force =     0.00118319    0.00389343    0.00143833
     atom  153 type  4   force =    -0.00352350    0.00085477    0.00297662
     atom  154 type  4   force =    -0.00592063    0.00596149    0.00132730
     atom  155 type  4   force =    -0.02799004    0.16648488    0.00484423
     atom  156 type  4   force =     0.01060434   -0.00972401   -0.00136712
     atom  157 type  4   force =     0.00423707   -0.00140089   -0.00475879
     atom  158 type  5   force =    -0.00117821    0.00033922    0.00033741

     Total force =     0.670891     Total SCF correction =     0.003195
 
     init_run     :      7.38s CPU      8.07s WALL (       1 calls)
     electrons    :    901.95s CPU    946.26s WALL (       1 calls)
     forces       :      4.06s CPU      4.46s WALL (       1 calls)
     force_london :      0.09s CPU      0.09s WALL (       1 calls)

     Called by init_run:
     wfcinit      :      4.32s CPU      4.50s WALL (       1 calls)
     potinit      :      0.59s CPU      0.80s WALL (       1 calls)
     hinit0       :      1.28s CPU      1.37s WALL (       1 calls)

     Called by electrons:
     c_bands      :    708.51s CPU    731.09s WALL (      70 calls)
     sum_band     :    123.46s CPU    135.21s WALL (      70 calls)
     v_of_rho     :     13.27s CPU     14.36s WALL (      71 calls)
     newd         :     37.73s CPU     46.71s WALL (      71 calls)
     mix_rho      :     18.47s CPU     18.60s WALL (      70 calls)
     energy_londo :      0.09s CPU      0.09s WALL (       1 calls)

     Called by c_bands:
     init_us_2    :      2.32s CPU      2.36s WALL (     284 calls)
     init_us_2:cp :      2.31s CPU      2.36s WALL (     284 calls)
     regterg      :    692.98s CPU    715.39s WALL (     143 calls)

     Called by *egterg:
     rdiaghg      :    186.15s CPU    196.82s WALL (     557 calls)
     h_psi        :    274.04s CPU    279.30s WALL (     559 calls)
     s_psi        :     53.41s CPU     53.44s WALL (     559 calls)
     g_psi        :      0.36s CPU      0.37s WALL (     414 calls)

     Called by h_psi:
     h_psi:calbec :     72.97s CPU     77.50s WALL (     559 calls)
     vloc_psi     :    145.58s CPU    146.20s WALL (     559 calls)
     add_vuspsi   :     54.79s CPU     54.86s WALL (     559 calls)

     General routines
     calbec       :    107.66s CPU    114.36s WALL (     707 calls)
     fft          :     17.64s CPU     19.11s WALL (    1291 calls)
     ffts         :     11.16s CPU     11.20s WALL (    8699 calls)
     fftw         :    165.58s CPU    166.25s WALL (  238252 calls)
     interpolate  :      1.12s CPU      1.22s WALL (     142 calls)
 
     Parallel routines
 
     PWSCF        :  15m15.40s CPU  16m 4.93s WALL

 
   This run was terminated on:  20:17:38  19Nov2025            

=------------------------------------------------------------------------------=
   JOB DONE.
=------------------------------------------------------------------------------=
