
     Program PWSCF v.7.2 starts on 20Nov2025 at  2:39:14 

     This program is part of the open-source Quantum ESPRESSO suite
     for quantum simulation of materials; please cite
         "P. Giannozzi et al., J. Phys.:Condens. Matter 21 395502 (2009);
         "P. Giannozzi et al., J. Phys.:Condens. Matter 29 465901 (2017);
         "P. Giannozzi et al., J. Chem. Phys. 152 154105 (2020);
          URL http://www.quantum-espresso.org", 
     in publications or presentations arising from this work. More details at
     http://www.quantum-espresso.org/quote

     Parallel version (MPI), running on    64 processors

     MPI processes distributed on     4 nodes
     490311 MiB available memory on the printing compute node when the environment starts
 
     Reading input from PWINPUT_atm158_xm

     Current dimensions of program PWSCF are:
     Max number of different atomic species (ntypx) = 10
     Max number of k-points (npk) =  40000
     Max angular momentum in pseudopotentials (lmaxx) =  4
     Presently no symmetry can be used with electric field

     file Ni.pbe-n-rrkjus_psl.1.0.0.UPF: wavefunction(s)  3D renormalized
     file Mn.pbe-spn-rrkjus_psl.0.3.1.UPF: wavefunction(s)  3D renormalized
     file O.pbe-rrkjus.UPF: wavefunction(s)  2S renormalized
     file H.pbe-rrkjus.UPF: wavefunction(s)  1S renormalized

     gamma-point specific algorithms are used
 
     R & G space division:  proc/nbgrp/npool/nimage =      64
     Subspace diagonalization in iterative solution of the eigenvalue problem:
     one sub-group per band group will be used
     custom distributed-memory algorithm (size of sub-group:  6*  6 procs)

 
     Parallelization info
     --------------------
     sticks:   dense  smooth     PW     G-vecs:    dense   smooth      PW
     Min         208      82     20                59912    15118    1876
     Max         210      84     22                59974    15196    1926
     Sum       13399    5355   1345              3836275   970529  121367
 
     Using Slab Decomposition
 


     bravais-lattice index     =            0
     lattice parameter (alat)  =      17.7004  a.u.
     unit-cell volume          =   20319.7251 (a.u.)^3
     number of atoms/cell      =          158
     number of atomic types    =            5
     number of electrons       =      1078.00
     number of Kohn-Sham states=          647
     kinetic-energy cutoff     =      50.0000  Ry
     charge density cutoff     =     500.0000  Ry
     scf convergence threshold =      1.0E-06
     mixing beta               =       0.1000
     number of iterations used =            8  local-TF  mixing
     Exchange-correlation=  SLA  PW   PBE  PBE
                           (   1   4   3   4   0   0   0)

     celldm(1)=  17.700384  celldm(2)=   0.000000  celldm(3)=   0.000000
     celldm(4)=   0.000000  celldm(5)=   0.000000  celldm(6)=   0.000000

     crystal axes: (cart. coord. in units of alat)
               a(1) = (   1.000000   0.000000   0.000000 )  
               a(2) = (   0.000000   1.075730   0.000000 )  
               a(3) = (   0.000000   0.000000   3.406172 )  

     reciprocal axes: (cart. coord. in units 2 pi/alat)
               b(1) = (  1.000000  0.000000  0.000000 )  
               b(2) = (  0.000000  0.929602  0.000000 )  
               b(3) = (  0.000000  0.000000  0.293585 )  


     PseudoPot. # 1 for Ni read from file:
     ~/PSEUDO/Ni.pbe-n-rrkjus_psl.1.0.0.UPF
     MD5 check sum: Not computed, couldn't open file
     Pseudo is Ultrasoft + core correction, Zval = 10.0
     Generated using "atomic" code by A. Dal Corso  v.5.1.2
     Using radial grid of 1195 points,  6 beta functions with: 
                l(1) =   0
                l(2) =   0
                l(3) =   1
                l(4) =   1
                l(5) =   2
                l(6) =   2
     Q(r) pseudized with 0 coefficients 


     PseudoPot. # 2 for Mn read from file:
     ~/PSEUDO/Mn.pbe-spn-rrkjus_psl.0.3.1.UPF
     MD5 check sum: Not computed, couldn't open file
     Pseudo is Ultrasoft + core correction, Zval = 15.0
     Generated using &quot;atomic&quot; code by A. Dal Corso  v.6.2.2
     Using radial grid of 1187 points,  6 beta functions with: 
                l(1) =   0
                l(2) =   0
                l(3) =   1
                l(4) =   1
                l(5) =   2
                l(6) =   2
     Q(r) pseudized with 0 coefficients 


     PseudoPot. # 3 for P  read from file:
     ~/PSEUDO/P.pbe-n-rrkjus_psl.1.0.0.UPF
     MD5 check sum: Not computed, couldn't open file
     Pseudo is Ultrasoft + core correction, Zval =  5.0
     Generated using "atomic" code by A. Dal Corso  v.5.1
     Using radial grid of 1147 points,  6 beta functions with: 
                l(1) =   0
                l(2) =   0
                l(3) =   1
                l(4) =   1
                l(5) =   2
                l(6) =   2
     Q(r) pseudized with 0 coefficients 


     PseudoPot. # 4 for O  read from file:
     ~/PSEUDO/O.pbe-rrkjus.UPF
     MD5 check sum: Not computed, couldn't open file
     Pseudo is Ultrasoft, Zval =  6.0
     Generated by new atomic code, or converted to UPF format
     Using radial grid of 1269 points,  4 beta functions with: 
                l(1) =   0
                l(2) =   0
                l(3) =   1
                l(4) =   1
     Q(r) pseudized with 0 coefficients 


     PseudoPot. # 5 for H  read from file:
     ~/PSEUDO/H.pbe-rrkjus.UPF
     MD5 check sum: Not computed, couldn't open file
     Pseudo is Ultrasoft, Zval =  1.0
     Generated by new atomic code, or converted to UPF format
     Using radial grid of 1061 points,  2 beta functions with: 
                l(1) =   0
                l(2) =   0
     Q(r) pseudized with 0 coefficients 


     atomic species   valence    mass     pseudopotential
     Ni               10.00    58.69300     Ni( 1.00)
     Mn               15.00    54.93800     Mn( 1.00)
     P                 5.00    30.97300     P ( 1.00)
     O                 6.00    15.99900     O ( 1.00)
     H                 1.00     1.00790     H ( 1.00)

     Starting magnetic structure 
     atomic species   magnetization
     Ni              1.000
     Mn              1.000
     P               1.000
     O               1.000
     H               0.000

     No symmetry found



   Cartesian axes

     site n.     atom                  positions (alat units)
         1        Mn     tau(   1) = (   0.2404744   0.8371250   0.1168501  )
         2        Ni     tau(   2) = (   0.4968126   0.7726670   0.4415546  )
         3        Ni     tau(   3) = (   0.0066150   0.2936743   0.1241053  )
         4        Ni     tau(   4) = (   0.2585722   0.2355858   0.4448848  )
         5        Ni     tau(   5) = (   0.9987350   1.0696411   0.2854926  )
         6        Ni     tau(   6) = (   0.2517397   0.5330511   0.2829322  )
         7        Ni     tau(   7) = (   0.7451645   0.8337543   0.1221751  )
         8        Ni     tau(   8) = (   0.9939181   0.7738804   0.4407595  )
         9        Ni     tau(   9) = (   0.5111533   0.2924088   0.1251865  )
        10        Ni     tau(  10) = (   0.7606326   0.2319267   0.4451372  )
        11        Ni     tau(  11) = (   0.5024065   1.0688133   0.2870502  )
        12        Ni     tau(  12) = (   0.7529977   0.5317900   0.2845227  )
        13        P      tau(  13) = (   0.2092944   0.9731097   0.4345035  )
        14        P      tau(  14) = (   0.4655727   0.6359535   0.1274635  )
        15        P      tau(  15) = (   0.2910699   0.1027363   0.1296098  )
        16        P      tau(  16) = (   0.0396216   0.4288395   0.4398838  )
        17        O      tau(  17) = (   0.1294378   0.9013260   0.3010618  )
        18        O      tau(  18) = (   0.3874505   0.7054774   0.2637003  )
        19        O      tau(  19) = (   0.3702540   0.1714799   0.2660028  )
        20        O      tau(  20) = (   0.1184398   0.3582958   0.3038353  )
        21        O      tau(  21) = (   0.1451572   0.8850881   0.5587578  )
        22        O      tau(  22) = (   0.4048762   0.7245585   0.0017492  )
        23        O      tau(  23) = (   0.3523506   0.1900579   0.0035744  )
        24        O      tau(  24) = (   0.1017610   0.3410484   0.5656572  )
        25        O      tau(  25) = (   0.0975396   0.5849288   0.4357922  )
        26        O      tau(  26) = (   0.3483552   1.0314945   0.1270322  )
        27        O      tau(  27) = (   0.3784305   0.4225118   0.4308928  )
        28        O      tau(  28) = (   0.1268237   0.1067944   0.1392744  )
        29        O      tau(  29) = (   0.1212267   0.6424170   0.1362896  )
        30        O      tau(  30) = (   0.4053315   0.4809387   0.1300622  )
        31        O      tau(  31) = (   0.1536621   0.0446918   0.4373386  )
        32        O      tau(  32) = (   0.3732349   0.9631717   0.4256642  )
        33        P      tau(  33) = (   0.7119823   0.9695974   0.4373010  )
        34        P      tau(  34) = (   0.9615208   0.6363392   0.1262932  )
        35        P      tau(  35) = (   0.7927710   0.0970060   0.1292164  )
        36        P      tau(  36) = (   0.5426404   0.4269675   0.4410738  )
        37        O      tau(  37) = (   0.6326879   0.8991182   0.3013240  )
        38        O      tau(  38) = (   0.8842163   0.7083206   0.2625155  )
        39        O      tau(  39) = (   0.8716178   0.1677751   0.2653504  )
        40        O      tau(  40) = (   0.6212010   0.3558666   0.3051085  )
        41        O      tau(  41) = (   0.6507714   0.8812342   0.5631722  )
        42        O      tau(  42) = (   0.9014054   0.7264458   0.0010676  )
        43        O      tau(  43) = (   0.8548963   0.1847909   0.0035471  )
        44        O      tau(  44) = (   0.6044469   0.3378706   0.5660366  )
        45        O      tau(  45) = (   0.6024424   0.5823140   0.4379016  )
        46        O      tau(  46) = (   0.8498940   1.0254482   0.1275156  )
        47        O      tau(  47) = (   0.8798395   0.4205825   0.4305771  )
        48        O      tau(  48) = (   0.6286921   0.1034636   0.1397346  )
        49        O      tau(  49) = (   0.6294973   0.6427753   0.1372553  )
        50        O      tau(  50) = (   0.9024339   0.4810312   0.1296418  )
        51        O      tau(  51) = (   0.6547812   0.0410987   0.4396636  )
        52        O      tau(  52) = (   0.8760507   0.9632605   0.4264507  )
        53        Mn     tau(  53) = (   0.2404744   0.8246335   0.7367378  )
        54        Ni     tau(  54) = (   0.4968126   0.7601755   1.0614423  )
        55        Ni     tau(  55) = (   0.0066150   0.2811828   0.7439929  )
        56        Ni     tau(  56) = (   0.2585722   0.2230943   1.0647725  )
        57        Ni     tau(  57) = (   0.9987350   1.0571496   0.9053803  )
        58        Ni     tau(  58) = (   0.2517397   0.5205596   0.9028199  )
        59        Ni     tau(  59) = (   0.7451645   0.8212628   0.7420628  )
        60        Ni     tau(  60) = (   0.9939181   0.7613889   1.0606471  )
        61        Ni     tau(  61) = (   0.5111533   0.2799173   0.7450742  )
        62        Ni     tau(  62) = (   0.7606326   0.2194352   1.0650249  )
        63        Ni     tau(  63) = (   0.5024065   1.0563218   0.9069379  )
        64        Ni     tau(  64) = (   0.7529977   0.5192985   0.9044104  )
        65        P      tau(  65) = (   0.2092944   0.9606182   1.0543912  )
        66        P      tau(  66) = (   0.4655727   0.6234620   0.7473512  )
        67        P      tau(  67) = (   0.2910699   0.0902448   0.7494974  )
        68        P      tau(  68) = (   0.0396216   0.4163480   1.0597715  )
        69        O      tau(  69) = (   0.1294378   0.8888345   0.9209495  )
        70        O      tau(  70) = (   0.3874505   0.6929859   0.8835880  )
        71        O      tau(  71) = (   0.3702540   0.1589885   0.8858904  )
        72        O      tau(  72) = (   0.1184398   0.3458043   0.9237230  )
        73        O      tau(  73) = (   0.1451572   0.8725966   1.1786454  )
        74        O      tau(  74) = (   0.4048762   0.7120670   0.6216369  )
        75        O      tau(  75) = (   0.3523506   0.1775664   0.6234620  )
        76        O      tau(  76) = (   0.1017610   0.3285569   1.1855448  )
        77        O      tau(  77) = (   0.0975396   0.5724373   1.0556799  )
        78        O      tau(  78) = (   0.3483552   1.0190030   0.7469198  )
        79        O      tau(  79) = (   0.3784305   0.4100203   1.0507804  )
        80        O      tau(  80) = (   0.1268237   0.0943029   0.7591620  )
        81        O      tau(  81) = (   0.1212267   0.6299255   0.7561772  )
        82        O      tau(  82) = (   0.4053315   0.4684472   0.7499499  )
        83        O      tau(  83) = (   0.1536621   0.0322003   1.0572263  )
        84        O      tau(  84) = (   0.3732349   0.9506802   1.0455518  )
        85        P      tau(  85) = (   0.7119823   0.9571059   1.0571887  )
        86        P      tau(  86) = (   0.9615208   0.6238477   0.7461808  )
        87        P      tau(  87) = (   0.7927710   0.0845145   0.7491041  )
        88        P      tau(  88) = (   0.5426404   0.4144760   1.0609615  )
        89        O      tau(  89) = (   0.6326879   0.8866267   0.9212117  )
        90        O      tau(  90) = (   0.8842163   0.6958291   0.8824032  )
        91        O      tau(  91) = (   0.8716178   0.1552836   0.8852381  )
        92        O      tau(  92) = (   0.6212010   0.3433751   0.9249961  )
        93        O      tau(  93) = (   0.6507714   0.8687427   1.1830599  )
        94        O      tau(  94) = (   0.9014054   0.7139543   0.6209553  )
        95        O      tau(  95) = (   0.8548963   0.1722994   0.6234348  )
        96        O      tau(  96) = (   0.6044469   0.3253792   1.1859242  )
        97        O      tau(  97) = (   0.6024424   0.5698225   1.0577892  )
        98        O      tau(  98) = (   0.8498940   1.0129567   0.7474033  )
        99        O      tau(  99) = (   0.8798395   0.4080910   1.0504647  )
       100        O      tau( 100) = (   0.6286921   0.0909721   0.7596222  )
       101        O      tau( 101) = (   0.6294973   0.6302838   0.7571429  )
       102        O      tau( 102) = (   0.9024339   0.4685397   0.7495295  )
       103        O      tau( 103) = (   0.6547812   0.0286072   1.0595512  )
       104        O      tau( 104) = (   0.8760507   0.9507690   1.0463383  )
       105        Mn     tau( 105) = (   0.2341048   0.8108197   1.3663252  )
       106        Ni     tau( 106) = (   0.5024816   0.7464085   1.6757065  )
       107        Ni     tau( 107) = (   0.0091392   0.2672722   1.3697207  )
       108        Ni     tau( 108) = (   0.2495058   0.2078228   1.6755278  )
       109        Ni     tau( 109) = (   1.0032102   1.0416246   1.5364023  )
       110        Ni     tau( 110) = (   0.2485262   0.5048332   1.5297062  )
       111        Ni     tau( 111) = (   0.7430018   0.8054177   1.3686003  )
       112        Ni     tau( 112) = (   0.9925501   0.7393218   1.7090217  )
       113        Ni     tau( 113) = (   0.5113084   0.2670413   1.3698693  )
       114        Ni     tau( 114) = (   0.7494949   0.2101352   1.6749472  )
       115        Ni     tau( 115) = (   0.5047951   1.0439869   1.5324480  )
       116        Ni     tau( 116) = (   0.7496602   0.5077338   1.5350320  )
       117        P      tau( 117) = (   0.2153380   0.9328497   1.6938933  )
       118        P      tau( 118) = (   0.4622660   0.6087634   1.3707994  )
       119        P      tau( 119) = (   0.2922378   0.0736206   1.3716559  )
       120        P      tau( 120) = (   0.0382110   0.3940295   1.6909775  )
       121        O      tau( 121) = (   0.1372270   0.8700926   1.5520458  )
       122        O      tau( 122) = (   0.3847694   0.6779168   1.5071938  )
       123        O      tau( 123) = (   0.3710441   0.1421445   1.5079797  )
       124        O      tau( 124) = (   0.1173137   0.3316825   1.5448012  )
       125        O      tau( 125) = (   0.1566604   0.8378692   1.8121477  )
       126        O      tau( 126) = (   0.4018852   0.6988502   1.2455572  )
       127        O      tau( 127) = (   0.3539928   0.1600748   1.2455128  )
       128        O      tau( 128) = (   0.0976531   0.2945871   1.8050993  )
       129        O      tau( 129) = (   0.0985428   0.5494999   1.6854361  )
       130        O      tau( 130) = (   0.3504453   0.9928363   1.3746257  )
       131        O      tau( 131) = (   0.3718735   0.3910438   1.6761776  )
       132        O      tau( 132) = (   0.1285520   0.0774354   1.3834063  )
       133        O      tau( 133) = (   0.1228761   0.6199323   1.3811417  )
       134        O      tau( 134) = (   0.4020429   0.4538468   1.3720019  )
       135        O      tau( 135) = (   0.1599454   0.0153847   1.6910302  )
       136        O      tau( 136) = (   0.3804554   0.9291162   1.6779826  )
       137        P      tau( 137) = (   0.7133756   0.9380637   1.6935653  )
       138        P      tau( 138) = (   0.9577904   0.6122334   1.3726531  )
       139        P      tau( 139) = (   0.7939846   0.0704840   1.3720273  )
       140        P      tau( 140) = (   0.5366371   0.3964784   1.6923699  )
       141        O      tau( 141) = (   0.6376702   0.8730140   1.5485714  )
       142        O      tau( 142) = (   0.8832272   0.6852684   1.5080352  )
       143        O      tau( 143) = (   0.8714928   0.1414651   1.5082745  )
       144        O      tau( 144) = (   0.6162606   0.3358838   1.5468185  )
       145        O      tau( 145) = (   0.6494383   0.8437087   1.8102692  )
       146        O      tau( 146) = (   0.8986022   0.6987735   1.2443575  )
       147        O      tau( 147) = (   0.8554771   0.1582509   1.2459557  )
       148        O      tau( 148) = (   0.5975308   0.2989918   1.8069624  )
       149        O      tau( 149) = (   0.5919342   0.5544634   1.6914728  )
       150        O      tau( 150) = (   0.8532566   0.9911851   1.3761764  )
       151        O      tau( 151) = (   0.8736693   0.3888582   1.6742141  )
       152        O      tau( 152) = (   0.6299136   0.0779356   1.3831127  )
       153        O      tau( 153) = (   0.6261583   0.6163923   1.3832484  )
       154        O      tau( 154) = (   0.9012706   0.4563430   1.3768978  )
       155        O      tau( 155) = (   0.6553133   0.0192695   1.6887296  )
       156        O      tau( 156) = (   0.8781114   0.9348774   1.6838478  )
       157        O      tau( 157) = (   0.8763292   0.6539004   1.8385640  )
       158        H      tau( 158) = (   0.7900653   0.7123594   1.8616160  )

     -------------------------------------------------
     Parameters for Dispersion (Grimme-D2) Correction:
     -------------------------------------------------
       atom      VdW radius       C_6     

        Ni         2.952        374.666
        Mn         2.952        374.666
        P          3.222        271.980
        O          2.536         24.284
        H          1.892          4.857

     number of k points=     1  Gaussian smearing, width (Ry)=  0.0100
                       cart. coord. in units 2pi/alat
        k(    1) = (   0.0000000   0.0000000   0.0000000), wk =   1.0000000

     Dense  grid:  1918138 G-vectors     FFT dimensions: ( 125, 135, 432)

     Smooth grid:   485265 G-vectors     FFT dimensions: (  80,  90, 288)

     Estimated max dynamical RAM per process >     320.12 MB

     Estimated total dynamical RAM >      20.01 GB
     Generating pointlists ...
     new r_m :   0.0800 (alat units)  1.4155 (a.u.) for type    1
     new r_m :   0.0869 (alat units)  1.5388 (a.u.) for type    2
     new r_m :   0.0650 (alat units)  1.1499 (a.u.) for type    3
     new r_m :   0.0440 (alat units)  0.7792 (a.u.) for type    4
     new r_m :   0.0440 (alat units)  0.7792 (a.u.) for type    5

     Initial potential from superposition of free atoms

     starting charge    1077.8900, renormalised to    1078.0000

     negative rho (up, down):  1.235E-03 4.570E-04
 
     Adding external electric field

     Computed dipole along edir(3) : 
        Dipole                1.6192 Ry au,          4.1155 Debye
        Dipole field          0.0010 Ry au, 
 
        Potential amp.       -0.1087 Ry
        Total length         54.2615 bohr
 
 
     Adding external electric field

     Computed dipole along edir(3) : 
        Dipole                1.6192 Ry au,          4.1155 Debye
        Dipole field          0.0010 Ry au, 
 
        Potential amp.       -0.1087 Ry
        Total length         54.2615 bohr
 
     Starting wfcs are  812 randomized atomic wfcs

     total cpu time spent up to now is       11.0 secs

     Self-consistent Calculation

     iteration #  1     ecut=    50.00 Ry     beta= 0.10
     Davidson diagonalization with overlap
     ethr =  1.00E-02,  avg # of iterations =  6.0

     negative rho (up, down):  3.314E-01 5.025E-07
 
     Adding external electric field

     Computed dipole along edir(3) : 
        Dipole               -3.5020 Ry au,         -8.9011 Debye
        Dipole field         -0.0022 Ry au, 
 
        Potential amp.        0.2350 Ry
        Total length         54.2615 bohr
 
 
     Adding external electric field

     Computed dipole along edir(3) : 
        Dipole               -3.5020 Ry au,         -8.9011 Debye
        Dipole field         -0.0022 Ry au, 
 
        Potential amp.        0.2350 Ry
        Total length         54.2615 bohr
 

     total cpu time spent up to now is       39.7 secs

     total energy              =   -7177.32804708 Ry
     estimated scf accuracy    <     752.62176922 Ry

     total magnetization       =   216.00 Bohr mag/cell
     absolute magnetization    =   297.13 Bohr mag/cell

     iteration #  2     ecut=    50.00 Ry     beta= 0.10
     Davidson diagonalization with overlap
     ethr =  1.00E-02,  avg # of iterations =  2.0

     negative rho (up, down):  3.160E-01 3.122E-07
 
     Adding external electric field

     Computed dipole along edir(3) : 
        Dipole               -2.2947 Ry au,         -5.8325 Debye
        Dipole field         -0.0014 Ry au, 
 
        Potential amp.        0.1540 Ry
        Total length         54.2615 bohr
 
 
     Adding external electric field

     Computed dipole along edir(3) : 
        Dipole               -2.2947 Ry au,         -5.8325 Debye
        Dipole field         -0.0014 Ry au, 
 
        Potential amp.        0.1540 Ry
        Total length         54.2615 bohr
 

     total cpu time spent up to now is       57.4 secs

     total energy              =   -7261.74986705 Ry
     estimated scf accuracy    <     213.36127012 Ry

     total magnetization       =   152.80 Bohr mag/cell
     absolute magnetization    =   201.80 Bohr mag/cell

     iteration #  3     ecut=    50.00 Ry     beta= 0.10
     Davidson diagonalization with overlap
     ethr =  1.00E-02,  avg # of iterations =  1.5

     negative rho (up, down):  2.802E-01 2.372E-07
 
     Adding external electric field

     Computed dipole along edir(3) : 
        Dipole               -2.0267 Ry au,         -5.1513 Debye
        Dipole field         -0.0013 Ry au, 
 
        Potential amp.        0.1360 Ry
        Total length         54.2615 bohr
 
 
     Adding external electric field

     Computed dipole along edir(3) : 
        Dipole               -2.0267 Ry au,         -5.1513 Debye
        Dipole field         -0.0013 Ry au, 
 
        Potential amp.        0.1360 Ry
        Total length         54.2615 bohr
 

     total cpu time spent up to now is       70.7 secs

     total energy              =   -7290.92314862 Ry
     estimated scf accuracy    <      96.72982102 Ry

     total magnetization       =   127.25 Bohr mag/cell
     absolute magnetization    =   180.51 Bohr mag/cell

     iteration #  4     ecut=    50.00 Ry     beta= 0.10
     Davidson diagonalization with overlap
     ethr =  8.97E-03,  avg # of iterations =  1.5

     negative rho (up, down):  2.082E-01 3.651E-08
 
     Adding external electric field

     Computed dipole along edir(3) : 
        Dipole               -1.9102 Ry au,         -4.8554 Debye
        Dipole field         -0.0012 Ry au, 
 
        Potential amp.        0.1282 Ry
        Total length         54.2615 bohr
 
 
     Adding external electric field

     Computed dipole along edir(3) : 
        Dipole               -1.9102 Ry au,         -4.8554 Debye
        Dipole field         -0.0012 Ry au, 
 
        Potential amp.        0.1282 Ry
        Total length         54.2615 bohr
 

     total cpu time spent up to now is       84.3 secs

     total energy              =   -7326.75187728 Ry
     estimated scf accuracy    <      79.52992859 Ry

     total magnetization       =   112.02 Bohr mag/cell
     absolute magnetization    =   166.27 Bohr mag/cell

     iteration #  5     ecut=    50.00 Ry     beta= 0.10
     Davidson diagonalization with overlap
     ethr =  7.38E-03,  avg # of iterations =  1.5

     negative rho (up, down):  9.775E-03 1.380E-06
 
     Adding external electric field

     Computed dipole along edir(3) : 
        Dipole               -1.4822 Ry au,         -3.7674 Debye
        Dipole field         -0.0009 Ry au, 
 
        Potential amp.        0.0995 Ry
        Total length         54.2615 bohr
 
 
     Adding external electric field

     Computed dipole along edir(3) : 
        Dipole               -1.4822 Ry au,         -3.7674 Debye
        Dipole field         -0.0009 Ry au, 
 
        Potential amp.        0.0995 Ry
        Total length         54.2615 bohr
 

     total cpu time spent up to now is       97.3 secs

     total energy              =   -7385.70052251 Ry
     estimated scf accuracy    <      61.19813357 Ry

     total magnetization       =    88.02 Bohr mag/cell
     absolute magnetization    =   146.31 Bohr mag/cell

     iteration #  6     ecut=    50.00 Ry     beta= 0.10
     Davidson diagonalization with overlap
     ethr =  5.68E-03,  avg # of iterations =  1.5

     negative rho (up, down):  4.198E-04 5.546E-04
 
     Adding external electric field

     Computed dipole along edir(3) : 
        Dipole               -1.1874 Ry au,         -3.0181 Debye
        Dipole field         -0.0007 Ry au, 
 
        Potential amp.        0.0797 Ry
        Total length         54.2615 bohr
 
 
     Adding external electric field

     Computed dipole along edir(3) : 
        Dipole               -1.1874 Ry au,         -3.0181 Debye
        Dipole field         -0.0007 Ry au, 
 
        Potential amp.        0.0797 Ry
        Total length         54.2615 bohr
 

     total cpu time spent up to now is      110.6 secs

     total energy              =   -7395.34452153 Ry
     estimated scf accuracy    <       9.98357127 Ry

     total magnetization       =    81.82 Bohr mag/cell
     absolute magnetization    =   116.06 Bohr mag/cell

     iteration #  7     ecut=    50.00 Ry     beta= 0.10
     Davidson diagonalization with overlap
     ethr =  9.26E-04,  avg # of iterations =  7.0

     negative rho (up, down):  4.075E-04 5.412E-04
 
     Adding external electric field

     Computed dipole along edir(3) : 
        Dipole               -1.1800 Ry au,         -2.9992 Debye
        Dipole field         -0.0007 Ry au, 
 
        Potential amp.        0.0792 Ry
        Total length         54.2615 bohr
 
 
     Adding external electric field

     Computed dipole along edir(3) : 
        Dipole               -1.1800 Ry au,         -2.9992 Debye
        Dipole field         -0.0007 Ry au, 
 
        Potential amp.        0.0792 Ry
        Total length         54.2615 bohr
 

     total cpu time spent up to now is      136.3 secs

     total energy              =   -7397.65241844 Ry
     estimated scf accuracy    <      12.21067437 Ry

     total magnetization       =    70.45 Bohr mag/cell
     absolute magnetization    =    87.95 Bohr mag/cell

     iteration #  8     ecut=    50.00 Ry     beta= 0.10
     Davidson diagonalization with overlap
     ethr =  9.26E-04,  avg # of iterations =  1.0

     negative rho (up, down):  3.983E-04 5.272E-04
 
     Adding external electric field

     Computed dipole along edir(3) : 
        Dipole               -1.1743 Ry au,         -2.9847 Debye
        Dipole field         -0.0007 Ry au, 
 
        Potential amp.        0.0788 Ry
        Total length         54.2615 bohr
 
 
     Adding external electric field

     Computed dipole along edir(3) : 
        Dipole               -1.1743 Ry au,         -2.9847 Debye
        Dipole field         -0.0007 Ry au, 
 
        Potential amp.        0.0788 Ry
        Total length         54.2615 bohr
 

     total cpu time spent up to now is      149.0 secs

     total energy              =   -7397.67528707 Ry
     estimated scf accuracy    <      11.81254236 Ry

     total magnetization       =    70.66 Bohr mag/cell
     absolute magnetization    =    87.76 Bohr mag/cell

     iteration #  9     ecut=    50.00 Ry     beta= 0.10
     Davidson diagonalization with overlap
     ethr =  9.26E-04,  avg # of iterations =  1.0

     negative rho (up, down):  3.247E-04 4.967E-04
 
     Adding external electric field

     Computed dipole along edir(3) : 
        Dipole               -1.1241 Ry au,         -2.8572 Debye
        Dipole field         -0.0007 Ry au, 
 
        Potential amp.        0.0754 Ry
        Total length         54.2615 bohr
 
 
     Adding external electric field

     Computed dipole along edir(3) : 
        Dipole               -1.1241 Ry au,         -2.8572 Debye
        Dipole field         -0.0007 Ry au, 
 
        Potential amp.        0.0754 Ry
        Total length         54.2615 bohr
 

     total cpu time spent up to now is      161.0 secs

     total energy              =   -7397.69476444 Ry
     estimated scf accuracy    <      11.55743539 Ry

     total magnetization       =    70.79 Bohr mag/cell
     absolute magnetization    =    87.59 Bohr mag/cell

     iteration # 10     ecut=    50.00 Ry     beta= 0.10
     Davidson diagonalization with overlap
     ethr =  9.26E-04,  avg # of iterations =  1.0

     negative rho (up, down):  8.666E-04 2.252E-03
 
     Adding external electric field

     Computed dipole along edir(3) : 
        Dipole               -0.8990 Ry au,         -2.2851 Debye
        Dipole field         -0.0006 Ry au, 
 
        Potential amp.        0.0603 Ry
        Total length         54.2615 bohr
 
 
     Adding external electric field

     Computed dipole along edir(3) : 
        Dipole               -0.8990 Ry au,         -2.2851 Debye
        Dipole field         -0.0006 Ry au, 
 
        Potential amp.        0.0603 Ry
        Total length         54.2615 bohr
 

     total cpu time spent up to now is      173.2 secs

     total energy              =   -7397.65997642 Ry
     estimated scf accuracy    <      10.03642898 Ry

     total magnetization       =    71.33 Bohr mag/cell
     absolute magnetization    =    87.16 Bohr mag/cell

     iteration # 11     ecut=    50.00 Ry     beta= 0.10
     Davidson diagonalization with overlap
     ethr =  9.26E-04,  avg # of iterations =  1.0

     negative rho (up, down):  3.108E-04 1.505E-03
 
     Adding external electric field

     Computed dipole along edir(3) : 
        Dipole               -0.9220 Ry au,         -2.3435 Debye
        Dipole field         -0.0006 Ry au, 
 
        Potential amp.        0.0619 Ry
        Total length         54.2615 bohr
 
 
     Adding external electric field

     Computed dipole along edir(3) : 
        Dipole               -0.9220 Ry au,         -2.3435 Debye
        Dipole field         -0.0006 Ry au, 
 
        Potential amp.        0.0619 Ry
        Total length         54.2615 bohr
 

     total cpu time spent up to now is      185.1 secs

     total energy              =   -7397.75703818 Ry
     estimated scf accuracy    <       7.80159207 Ry

     total magnetization       =    74.00 Bohr mag/cell
     absolute magnetization    =    85.17 Bohr mag/cell

     iteration # 12     ecut=    50.00 Ry     beta= 0.10
     Davidson diagonalization with overlap
     ethr =  7.24E-04,  avg # of iterations =  1.0

     negative rho (up, down):  1.548E-03 4.972E-03
 
     Adding external electric field

     Computed dipole along edir(3) : 
        Dipole               -0.7584 Ry au,         -1.9278 Debye
        Dipole field         -0.0005 Ry au, 
 
        Potential amp.        0.0509 Ry
        Total length         54.2615 bohr
 
 
     Adding external electric field

     Computed dipole along edir(3) : 
        Dipole               -0.7584 Ry au,         -1.9278 Debye
        Dipole field         -0.0005 Ry au, 
 
        Potential amp.        0.0509 Ry
        Total length         54.2615 bohr
 

     total cpu time spent up to now is      196.9 secs

     total energy              =   -7397.87313118 Ry
     estimated scf accuracy    <       7.85591633 Ry

     total magnetization       =    72.58 Bohr mag/cell
     absolute magnetization    =    84.23 Bohr mag/cell

     iteration # 13     ecut=    50.00 Ry     beta= 0.10
     Davidson diagonalization with overlap
     ethr =  7.24E-04,  avg # of iterations =  1.0

     negative rho (up, down):  2.321E-03 6.565E-03
 
     Adding external electric field

     Computed dipole along edir(3) : 
        Dipole               -0.7683 Ry au,         -1.9529 Debye
        Dipole field         -0.0005 Ry au, 
 
        Potential amp.        0.0516 Ry
        Total length         54.2615 bohr
 
 
     Adding external electric field

     Computed dipole along edir(3) : 
        Dipole               -0.7683 Ry au,         -1.9529 Debye
        Dipole field         -0.0005 Ry au, 
 
        Potential amp.        0.0516 Ry
        Total length         54.2615 bohr
 

     total cpu time spent up to now is      211.3 secs

     total energy              =   -7397.92273907 Ry
     estimated scf accuracy    <       9.10426040 Ry

     total magnetization       =    73.88 Bohr mag/cell
     absolute magnetization    =    83.68 Bohr mag/cell

     iteration # 14     ecut=    50.00 Ry     beta= 0.10
     Davidson diagonalization with overlap
     ethr =  7.24E-04,  avg # of iterations =  1.0

     negative rho (up, down):  2.003E-02 2.619E-02
 
     Adding external electric field

     Computed dipole along edir(3) : 
        Dipole               -0.8453 Ry au,         -2.1486 Debye
        Dipole field         -0.0005 Ry au, 
 
        Potential amp.        0.0567 Ry
        Total length         54.2615 bohr
 
 
     Adding external electric field

     Computed dipole along edir(3) : 
        Dipole               -0.8453 Ry au,         -2.1486 Debye
        Dipole field         -0.0005 Ry au, 
 
        Potential amp.        0.0567 Ry
        Total length         54.2615 bohr
 

     total cpu time spent up to now is      224.1 secs

     total energy              =   -7397.79137515 Ry
     estimated scf accuracy    <       8.59300752 Ry

     total magnetization       =    73.94 Bohr mag/cell
     absolute magnetization    =    83.11 Bohr mag/cell

     iteration # 15     ecut=    50.00 Ry     beta= 0.10
     Davidson diagonalization with overlap
     ethr =  7.24E-04,  avg # of iterations =  1.5

     negative rho (up, down):  1.391E-02 2.137E-02
 
     Adding external electric field

     Computed dipole along edir(3) : 
        Dipole               -0.8593 Ry au,         -2.1842 Debye
        Dipole field         -0.0005 Ry au, 
 
        Potential amp.        0.0577 Ry
        Total length         54.2615 bohr
 
 
     Adding external electric field

     Computed dipole along edir(3) : 
        Dipole               -0.8593 Ry au,         -2.1842 Debye
        Dipole field         -0.0005 Ry au, 
 
        Potential amp.        0.0577 Ry
        Total length         54.2615 bohr
 

     total cpu time spent up to now is      237.1 secs

     total energy              =   -7397.92925810 Ry
     estimated scf accuracy    <       1.31228880 Ry

     total magnetization       =    79.68 Bohr mag/cell
     absolute magnetization    =    84.77 Bohr mag/cell

     iteration # 16     ecut=    50.00 Ry     beta= 0.10
     Davidson diagonalization with overlap
     c_bands:  2 eigenvalues not converged
     ethr =  1.22E-04,  avg # of iterations = 11.0

     negative rho (up, down):  1.335E-02 2.108E-02
 
     Adding external electric field

     Computed dipole along edir(3) : 
        Dipole               -0.8467 Ry au,         -2.1522 Debye
        Dipole field         -0.0005 Ry au, 
 
        Potential amp.        0.0568 Ry
        Total length         54.2615 bohr
 
 
     Adding external electric field

     Computed dipole along edir(3) : 
        Dipole               -0.8467 Ry au,         -2.1522 Debye
        Dipole field         -0.0005 Ry au, 
 
        Potential amp.        0.0568 Ry
        Total length         54.2615 bohr
 

     total cpu time spent up to now is      257.3 secs

     total energy              =   -7397.93745303 Ry
     estimated scf accuracy    <       1.09407822 Ry

     total magnetization       =    79.45 Bohr mag/cell
     absolute magnetization    =    84.36 Bohr mag/cell

     iteration # 17     ecut=    50.00 Ry     beta= 0.10
     Davidson diagonalization with overlap
     ethr =  1.01E-04,  avg # of iterations =  1.0

     negative rho (up, down):  1.208E-02 2.017E-02
 
     Adding external electric field

     Computed dipole along edir(3) : 
        Dipole               -0.8125 Ry au,         -2.0651 Debye
        Dipole field         -0.0005 Ry au, 
 
        Potential amp.        0.0545 Ry
        Total length         54.2615 bohr
 
 
     Adding external electric field

     Computed dipole along edir(3) : 
        Dipole               -0.8125 Ry au,         -2.0651 Debye
        Dipole field         -0.0005 Ry au, 
 
        Potential amp.        0.0545 Ry
        Total length         54.2615 bohr
 

     total cpu time spent up to now is      269.0 secs

     total energy              =   -7397.93066548 Ry
     estimated scf accuracy    <       1.18894409 Ry

     total magnetization       =    79.23 Bohr mag/cell
     absolute magnetization    =    84.03 Bohr mag/cell

     iteration # 18     ecut=    50.00 Ry     beta= 0.10
     Davidson diagonalization with overlap
     ethr =  1.01E-04,  avg # of iterations =  1.0

     negative rho (up, down):  1.306E-03 5.415E-03
 
     Adding external electric field

     Computed dipole along edir(3) : 
        Dipole               -0.9718 Ry au,         -2.4701 Debye
        Dipole field         -0.0006 Ry au, 
 
        Potential amp.        0.0652 Ry
        Total length         54.2615 bohr
 
 
     Adding external electric field

     Computed dipole along edir(3) : 
        Dipole               -0.9718 Ry au,         -2.4701 Debye
        Dipole field         -0.0006 Ry au, 
 
        Potential amp.        0.0652 Ry
        Total length         54.2615 bohr
 

     total cpu time spent up to now is      281.1 secs

     total energy              =   -7397.73450176 Ry
     estimated scf accuracy    <       1.62202663 Ry

     total magnetization       =    78.60 Bohr mag/cell
     absolute magnetization    =    83.50 Bohr mag/cell

     iteration # 19     ecut=    50.00 Ry     beta= 0.10
     Davidson diagonalization with overlap
     ethr =  1.01E-04,  avg # of iterations =  3.0

     negative rho (up, down):  7.212E-04 4.549E-03
 
     Adding external electric field

     Computed dipole along edir(3) : 
        Dipole               -0.8813 Ry au,         -2.2400 Debye
        Dipole field         -0.0005 Ry au, 
 
        Potential amp.        0.0591 Ry
        Total length         54.2615 bohr
 
 
     Adding external electric field

     Computed dipole along edir(3) : 
        Dipole               -0.8813 Ry au,         -2.2400 Debye
        Dipole field         -0.0005 Ry au, 
 
        Potential amp.        0.0591 Ry
        Total length         54.2615 bohr
 

     total cpu time spent up to now is      295.1 secs

     total energy              =   -7397.93247671 Ry
     estimated scf accuracy    <       3.72356110 Ry

     total magnetization       =    75.82 Bohr mag/cell
     absolute magnetization    =    81.46 Bohr mag/cell

     iteration # 20     ecut=    50.00 Ry     beta= 0.10
     Davidson diagonalization with overlap
     ethr =  1.01E-04,  avg # of iterations =  1.0

     negative rho (up, down):  2.216E-03 4.612E-03
 
     Adding external electric field

     Computed dipole along edir(3) : 
        Dipole               -0.6890 Ry au,         -1.7513 Debye
        Dipole field         -0.0004 Ry au, 
 
        Potential amp.        0.0462 Ry
        Total length         54.2615 bohr
 
 
     Adding external electric field

     Computed dipole along edir(3) : 
        Dipole               -0.6890 Ry au,         -1.7513 Debye
        Dipole field         -0.0004 Ry au, 
 
        Potential amp.        0.0462 Ry
        Total length         54.2615 bohr
 

     total cpu time spent up to now is      307.0 secs

     total energy              =   -7397.92711436 Ry
     estimated scf accuracy    <       3.71745010 Ry

     total magnetization       =    75.75 Bohr mag/cell
     absolute magnetization    =    81.31 Bohr mag/cell

     iteration # 21     ecut=    50.00 Ry     beta= 0.10
     Davidson diagonalization with overlap
     ethr =  1.01E-04,  avg # of iterations =  1.5

     negative rho (up, down):  1.506E-03 2.851E-03
 
     Adding external electric field

     Computed dipole along edir(3) : 
        Dipole               -0.6151 Ry au,         -1.5633 Debye
        Dipole field         -0.0004 Ry au, 
 
        Potential amp.        0.0413 Ry
        Total length         54.2615 bohr
 
 
     Adding external electric field

     Computed dipole along edir(3) : 
        Dipole               -0.6151 Ry au,         -1.5633 Debye
        Dipole field         -0.0004 Ry au, 
 
        Potential amp.        0.0413 Ry
        Total length         54.2615 bohr
 

     total cpu time spent up to now is      319.4 secs

     total energy              =   -7398.01490738 Ry
     estimated scf accuracy    <       1.63642196 Ry

     total magnetization       =    79.09 Bohr mag/cell
     absolute magnetization    =    82.46 Bohr mag/cell

     iteration # 22     ecut=    50.00 Ry     beta= 0.10
     Davidson diagonalization with overlap
     ethr =  1.01E-04,  avg # of iterations =  1.0

     negative rho (up, down):  9.376E-04 1.674E-03
 
     Adding external electric field

     Computed dipole along edir(3) : 
        Dipole               -0.5423 Ry au,         -1.3784 Debye
        Dipole field         -0.0003 Ry au, 
 
        Potential amp.        0.0364 Ry
        Total length         54.2615 bohr
 
 
     Adding external electric field

     Computed dipole along edir(3) : 
        Dipole               -0.5423 Ry au,         -1.3784 Debye
        Dipole field         -0.0003 Ry au, 
 
        Potential amp.        0.0364 Ry
        Total length         54.2615 bohr
 

     total cpu time spent up to now is      331.1 secs

     total energy              =   -7398.02698408 Ry
     estimated scf accuracy    <       1.12722147 Ry

     total magnetization       =    79.67 Bohr mag/cell
     absolute magnetization    =    82.80 Bohr mag/cell

     iteration # 23     ecut=    50.00 Ry     beta= 0.10
     Davidson diagonalization with overlap
     ethr =  1.01E-04,  avg # of iterations =  1.0

     negative rho (up, down):  2.739E-04 6.721E-04
 
     Adding external electric field

     Computed dipole along edir(3) : 
        Dipole               -0.6003 Ry au,         -1.5257 Debye
        Dipole field         -0.0004 Ry au, 
 
        Potential amp.        0.0403 Ry
        Total length         54.2615 bohr
 
 
     Adding external electric field

     Computed dipole along edir(3) : 
        Dipole               -0.6003 Ry au,         -1.5257 Debye
        Dipole field         -0.0004 Ry au, 
 
        Potential amp.        0.0403 Ry
        Total length         54.2615 bohr
 

     total cpu time spent up to now is      343.1 secs

     total energy              =   -7398.01470413 Ry
     estimated scf accuracy    <       0.92991320 Ry

     total magnetization       =    80.50 Bohr mag/cell
     absolute magnetization    =    83.27 Bohr mag/cell

     iteration # 24     ecut=    50.00 Ry     beta= 0.10
     Davidson diagonalization with overlap
     ethr =  8.63E-05,  avg # of iterations =  1.0

     negative rho (up, down):  9.591E-05 2.679E-04
 
     Adding external electric field

     Computed dipole along edir(3) : 
        Dipole               -0.6281 Ry au,         -1.5965 Debye
        Dipole field         -0.0004 Ry au, 
 
        Potential amp.        0.0422 Ry
        Total length         54.2615 bohr
 
 
     Adding external electric field

     Computed dipole along edir(3) : 
        Dipole               -0.6281 Ry au,         -1.5965 Debye
        Dipole field         -0.0004 Ry au, 
 
        Potential amp.        0.0422 Ry
        Total length         54.2615 bohr
 

     total cpu time spent up to now is      354.3 secs

     total energy              =   -7398.02737539 Ry
     estimated scf accuracy    <       0.44418151 Ry

     total magnetization       =    79.87 Bohr mag/cell
     absolute magnetization    =    82.86 Bohr mag/cell

     iteration # 25     ecut=    50.00 Ry     beta= 0.10
     Davidson diagonalization with overlap
     ethr =  4.12E-05,  avg # of iterations =  1.0

     negative rho (up, down):  1.372E-04 2.204E-04
 
     Adding external electric field

     Computed dipole along edir(3) : 
        Dipole               -0.6131 Ry au,         -1.5582 Debye
        Dipole field         -0.0004 Ry au, 
 
        Potential amp.        0.0411 Ry
        Total length         54.2615 bohr
 
 
     Adding external electric field

     Computed dipole along edir(3) : 
        Dipole               -0.6131 Ry au,         -1.5582 Debye
        Dipole field         -0.0004 Ry au, 
 
        Potential amp.        0.0411 Ry
        Total length         54.2615 bohr
 

     total cpu time spent up to now is      366.3 secs

     total energy              =   -7398.03640748 Ry
     estimated scf accuracy    <       0.20873941 Ry

     total magnetization       =    79.92 Bohr mag/cell
     absolute magnetization    =    82.67 Bohr mag/cell

     iteration # 26     ecut=    50.00 Ry     beta= 0.10
     Davidson diagonalization with overlap
     ethr =  1.94E-05,  avg # of iterations =  1.5

     negative rho (up, down):  5.556E-05 7.060E-05
 
     Adding external electric field

     Computed dipole along edir(3) : 
        Dipole               -0.6538 Ry au,         -1.6618 Debye
        Dipole field         -0.0004 Ry au, 
 
        Potential amp.        0.0439 Ry
        Total length         54.2615 bohr
 
 
     Adding external electric field

     Computed dipole along edir(3) : 
        Dipole               -0.6538 Ry au,         -1.6618 Debye
        Dipole field         -0.0004 Ry au, 
 
        Potential amp.        0.0439 Ry
        Total length         54.2615 bohr
 

     total cpu time spent up to now is      378.7 secs

     total energy              =   -7398.03796976 Ry
     estimated scf accuracy    <       0.19923676 Ry

     total magnetization       =    80.30 Bohr mag/cell
     absolute magnetization    =    82.67 Bohr mag/cell

     iteration # 27     ecut=    50.00 Ry     beta= 0.10
     Davidson diagonalization with overlap
     ethr =  1.85E-05,  avg # of iterations =  1.5

     negative rho (up, down):  1.075E-04 9.358E-05
 
     Adding external electric field

     Computed dipole along edir(3) : 
        Dipole               -0.6649 Ry au,         -1.6901 Debye
        Dipole field         -0.0004 Ry au, 
 
        Potential amp.        0.0446 Ry
        Total length         54.2615 bohr
 
 
     Adding external electric field

     Computed dipole along edir(3) : 
        Dipole               -0.6649 Ry au,         -1.6901 Debye
        Dipole field         -0.0004 Ry au, 
 
        Potential amp.        0.0446 Ry
        Total length         54.2615 bohr
 

     total cpu time spent up to now is      390.9 secs

     total energy              =   -7398.04024264 Ry
     estimated scf accuracy    <       0.08035502 Ry

     total magnetization       =    80.38 Bohr mag/cell
     absolute magnetization    =    82.50 Bohr mag/cell

     iteration # 28     ecut=    50.00 Ry     beta= 0.10
     Davidson diagonalization with overlap
     ethr =  7.45E-06,  avg # of iterations = 12.5

     negative rho (up, down):  6.429E-04 4.211E-04
 
     Adding external electric field

     Computed dipole along edir(3) : 
        Dipole               -0.6427 Ry au,         -1.6337 Debye
        Dipole field         -0.0004 Ry au, 
 
        Potential amp.        0.0431 Ry
        Total length         54.2615 bohr
 
 
     Adding external electric field

     Computed dipole along edir(3) : 
        Dipole               -0.6427 Ry au,         -1.6337 Debye
        Dipole field         -0.0004 Ry au, 
 
        Potential amp.        0.0431 Ry
        Total length         54.2615 bohr
 

     total cpu time spent up to now is      415.6 secs

     total energy              =   -7398.03570743 Ry
     estimated scf accuracy    <       0.05623625 Ry

     total magnetization       =    80.23 Bohr mag/cell
     absolute magnetization    =    82.08 Bohr mag/cell

     iteration # 29     ecut=    50.00 Ry     beta= 0.10
     Davidson diagonalization with overlap
     ethr =  5.22E-06,  avg # of iterations =  2.0

     negative rho (up, down):  6.613E-04 4.324E-04
 
     Adding external electric field

     Computed dipole along edir(3) : 
        Dipole               -0.6448 Ry au,         -1.6389 Debye
        Dipole field         -0.0004 Ry au, 
 
        Potential amp.        0.0433 Ry
        Total length         54.2615 bohr
 
 
     Adding external electric field

     Computed dipole along edir(3) : 
        Dipole               -0.6448 Ry au,         -1.6389 Debye
        Dipole field         -0.0004 Ry au, 
 
        Potential amp.        0.0433 Ry
        Total length         54.2615 bohr
 

     total cpu time spent up to now is      428.5 secs

     total energy              =   -7398.03704417 Ry
     estimated scf accuracy    <       0.03930454 Ry

     total magnetization       =    80.64 Bohr mag/cell
     absolute magnetization    =    82.13 Bohr mag/cell

     iteration # 30     ecut=    50.00 Ry     beta= 0.10
     Davidson diagonalization with overlap
     ethr =  3.65E-06,  avg # of iterations =  2.0

     negative rho (up, down):  3.399E-04 1.400E-04
 
     Adding external electric field

     Computed dipole along edir(3) : 
        Dipole               -0.5941 Ry au,         -1.5100 Debye
        Dipole field         -0.0004 Ry au, 
 
        Potential amp.        0.0399 Ry
        Total length         54.2615 bohr
 
 
     Adding external electric field

     Computed dipole along edir(3) : 
        Dipole               -0.5941 Ry au,         -1.5100 Debye
        Dipole field         -0.0004 Ry au, 
 
        Potential amp.        0.0399 Ry
        Total length         54.2615 bohr
 

     total cpu time spent up to now is      442.6 secs

     total energy              =   -7398.03434094 Ry
     estimated scf accuracy    <       0.02702926 Ry

     total magnetization       =    80.49 Bohr mag/cell
     absolute magnetization    =    81.96 Bohr mag/cell

     iteration # 31     ecut=    50.00 Ry     beta= 0.10
     Davidson diagonalization with overlap
     c_bands:  2 eigenvalues not converged
     c_bands:  3 eigenvalues not converged
     ethr =  2.51E-06,  avg # of iterations = 30.0

     negative rho (up, down):  9.440E-04 5.889E-04
 
     Adding external electric field

     Computed dipole along edir(3) : 
        Dipole               -0.6080 Ry au,         -1.5454 Debye
        Dipole field         -0.0004 Ry au, 
 
        Potential amp.        0.0408 Ry
        Total length         54.2615 bohr
 
 
     Adding external electric field

     Computed dipole along edir(3) : 
        Dipole               -0.6080 Ry au,         -1.5454 Debye
        Dipole field         -0.0004 Ry au, 
 
        Potential amp.        0.0408 Ry
        Total length         54.2615 bohr
 

     total cpu time spent up to now is      479.6 secs

     total energy              =   -7398.03420836 Ry
     estimated scf accuracy    <       0.03282956 Ry

     total magnetization       =    80.59 Bohr mag/cell
     absolute magnetization    =    81.94 Bohr mag/cell

     iteration # 32     ecut=    50.00 Ry     beta= 0.10
     Davidson diagonalization with overlap
     ethr =  2.51E-06,  avg # of iterations =  5.0

     negative rho (up, down):  1.012E-03 6.261E-04
 
     Adding external electric field

     Computed dipole along edir(3) : 
        Dipole               -0.6088 Ry au,         -1.5475 Debye
        Dipole field         -0.0004 Ry au, 
 
        Potential amp.        0.0409 Ry
        Total length         54.2615 bohr
 
 
     Adding external electric field

     Computed dipole along edir(3) : 
        Dipole               -0.6088 Ry au,         -1.5475 Debye
        Dipole field         -0.0004 Ry au, 
 
        Potential amp.        0.0409 Ry
        Total length         54.2615 bohr
 

     total cpu time spent up to now is      494.7 secs

     total energy              =   -7398.03392947 Ry
     estimated scf accuracy    <       0.02390888 Ry

     total magnetization       =    80.37 Bohr mag/cell
     absolute magnetization    =    81.73 Bohr mag/cell

     iteration # 33     ecut=    50.00 Ry     beta= 0.10
     Davidson diagonalization with overlap
     ethr =  2.22E-06,  avg # of iterations =  2.0

     negative rho (up, down):  9.525E-06 5.116E-06
 
     Adding external electric field

     Computed dipole along edir(3) : 
        Dipole               -0.5522 Ry au,         -1.4035 Debye
        Dipole field         -0.0003 Ry au, 
 
        Potential amp.        0.0371 Ry
        Total length         54.2615 bohr
 
 
     Adding external electric field

     Computed dipole along edir(3) : 
        Dipole               -0.5522 Ry au,         -1.4035 Debye
        Dipole field         -0.0003 Ry au, 
 
        Potential amp.        0.0371 Ry
        Total length         54.2615 bohr
 

     total cpu time spent up to now is      507.8 secs

     total energy              =   -7398.03794388 Ry
     estimated scf accuracy    <       0.01795741 Ry

     total magnetization       =    80.43 Bohr mag/cell
     absolute magnetization    =    81.78 Bohr mag/cell

     iteration # 34     ecut=    50.00 Ry     beta= 0.10
     Davidson diagonalization with overlap
     ethr =  1.67E-06,  avg # of iterations =  3.0

     negative rho (up, down):  1.104E-05 6.268E-06
 
     Adding external electric field

     Computed dipole along edir(3) : 
        Dipole               -0.5492 Ry au,         -1.3959 Debye
        Dipole field         -0.0003 Ry au, 
 
        Potential amp.        0.0369 Ry
        Total length         54.2615 bohr
 
 
     Adding external electric field

     Computed dipole along edir(3) : 
        Dipole               -0.5492 Ry au,         -1.3959 Debye
        Dipole field         -0.0003 Ry au, 
 
        Potential amp.        0.0369 Ry
        Total length         54.2615 bohr
 

     total cpu time spent up to now is      522.2 secs

     total energy              =   -7398.03974969 Ry
     estimated scf accuracy    <       0.04098149 Ry

     total magnetization       =    80.37 Bohr mag/cell
     absolute magnetization    =    81.79 Bohr mag/cell

     iteration # 35     ecut=    50.00 Ry     beta= 0.10
     Davidson diagonalization with overlap
     ethr =  1.67E-06,  avg # of iterations =  1.5

     negative rho (up, down):  3.730E-05 3.186E-05
 
     Adding external electric field

     Computed dipole along edir(3) : 
        Dipole               -0.5575 Ry au,         -1.4170 Debye
        Dipole field         -0.0003 Ry au, 
 
        Potential amp.        0.0374 Ry
        Total length         54.2615 bohr
 
 
     Adding external electric field

     Computed dipole along edir(3) : 
        Dipole               -0.5575 Ry au,         -1.4170 Debye
        Dipole field         -0.0003 Ry au, 
 
        Potential amp.        0.0374 Ry
        Total length         54.2615 bohr
 

     total cpu time spent up to now is      534.8 secs

     total energy              =   -7398.04005893 Ry
     estimated scf accuracy    <       0.04012755 Ry

     total magnetization       =    80.36 Bohr mag/cell
     absolute magnetization    =    81.78 Bohr mag/cell

     iteration # 36     ecut=    50.00 Ry     beta= 0.10
     Davidson diagonalization with overlap
     ethr =  1.67E-06,  avg # of iterations =  2.0

     negative rho (up, down):  3.691E-04 2.133E-04
 
     Adding external electric field

     Computed dipole along edir(3) : 
        Dipole               -0.5483 Ry au,         -1.3937 Debye
        Dipole field         -0.0003 Ry au, 
 
        Potential amp.        0.0368 Ry
        Total length         54.2615 bohr
 
 
     Adding external electric field

     Computed dipole along edir(3) : 
        Dipole               -0.5483 Ry au,         -1.3937 Debye
        Dipole field         -0.0003 Ry au, 
 
        Potential amp.        0.0368 Ry
        Total length         54.2615 bohr
 

     total cpu time spent up to now is      548.3 secs

     total energy              =   -7398.03664010 Ry
     estimated scf accuracy    <       0.04714834 Ry

     total magnetization       =    80.41 Bohr mag/cell
     absolute magnetization    =    81.88 Bohr mag/cell

     iteration # 37     ecut=    50.00 Ry     beta= 0.10
     Davidson diagonalization with overlap
     ethr =  1.67E-06,  avg # of iterations =  2.0

     negative rho (up, down):  3.418E-06 2.025E-06
 
     Adding external electric field

     Computed dipole along edir(3) : 
        Dipole               -0.5525 Ry au,         -1.4043 Debye
        Dipole field         -0.0003 Ry au, 
 
        Potential amp.        0.0371 Ry
        Total length         54.2615 bohr
 
 
     Adding external electric field

     Computed dipole along edir(3) : 
        Dipole               -0.5525 Ry au,         -1.4043 Debye
        Dipole field         -0.0003 Ry au, 
 
        Potential amp.        0.0371 Ry
        Total length         54.2615 bohr
 

     total cpu time spent up to now is      561.8 secs

     total energy              =   -7398.03941079 Ry
     estimated scf accuracy    <       0.02645874 Ry

     total magnetization       =    80.41 Bohr mag/cell
     absolute magnetization    =    81.78 Bohr mag/cell

     iteration # 38     ecut=    50.00 Ry     beta= 0.10
     Davidson diagonalization with overlap
     ethr =  1.67E-06,  avg # of iterations =  1.5

     negative rho (up, down):  1.586E-06 7.315E-07
 
     Adding external electric field

     Computed dipole along edir(3) : 
        Dipole               -0.5483 Ry au,         -1.3936 Debye
        Dipole field         -0.0003 Ry au, 
 
        Potential amp.        0.0368 Ry
        Total length         54.2615 bohr
 
 
     Adding external electric field

     Computed dipole along edir(3) : 
        Dipole               -0.5483 Ry au,         -1.3936 Debye
        Dipole field         -0.0003 Ry au, 
 
        Potential amp.        0.0368 Ry
        Total length         54.2615 bohr
 

     total cpu time spent up to now is      576.7 secs

     total energy              =   -7398.03950802 Ry
     estimated scf accuracy    <       0.03767765 Ry

     total magnetization       =    80.41 Bohr mag/cell
     absolute magnetization    =    81.80 Bohr mag/cell

     iteration # 39     ecut=    50.00 Ry     beta= 0.10
     Davidson diagonalization with overlap
     ethr =  1.67E-06,  avg # of iterations =  1.0

     negative rho (up, down):  7.892E-06 3.909E-06
 
     Adding external electric field

     Computed dipole along edir(3) : 
        Dipole               -0.5944 Ry au,         -1.5109 Debye
        Dipole field         -0.0004 Ry au, 
 
        Potential amp.        0.0399 Ry
        Total length         54.2615 bohr
 
 
     Adding external electric field

     Computed dipole along edir(3) : 
        Dipole               -0.5944 Ry au,         -1.5109 Debye
        Dipole field         -0.0004 Ry au, 
 
        Potential amp.        0.0399 Ry
        Total length         54.2615 bohr
 

     total cpu time spent up to now is      590.2 secs

     total energy              =   -7398.03973756 Ry
     estimated scf accuracy    <       0.03797659 Ry

     total magnetization       =    80.41 Bohr mag/cell
     absolute magnetization    =    81.81 Bohr mag/cell

     iteration # 40     ecut=    50.00 Ry     beta= 0.10
     Davidson diagonalization with overlap
     ethr =  1.67E-06,  avg # of iterations =  2.0

     negative rho (up, down):  6.685E-05 6.223E-05
 
     Adding external electric field

     Computed dipole along edir(3) : 
        Dipole               -0.4312 Ry au,         -1.0960 Debye
        Dipole field         -0.0003 Ry au, 
 
        Potential amp.        0.0289 Ry
        Total length         54.2615 bohr
 
 
     Adding external electric field

     Computed dipole along edir(3) : 
        Dipole               -0.4312 Ry au,         -1.0960 Debye
        Dipole field         -0.0003 Ry au, 
 
        Potential amp.        0.0289 Ry
        Total length         54.2615 bohr
 

     total cpu time spent up to now is      604.0 secs

     total energy              =   -7398.03842082 Ry
     estimated scf accuracy    <       0.03338262 Ry

     total magnetization       =    80.44 Bohr mag/cell
     absolute magnetization    =    81.82 Bohr mag/cell

     iteration # 41     ecut=    50.00 Ry     beta= 0.10
     Davidson diagonalization with overlap
     ethr =  1.67E-06,  avg # of iterations =  3.5

     negative rho (up, down):  8.383E-04 6.778E-04
 
     Adding external electric field

     Computed dipole along edir(3) : 
        Dipole               -0.4645 Ry au,         -1.1808 Debye
        Dipole field         -0.0003 Ry au, 
 
        Potential amp.        0.0312 Ry
        Total length         54.2615 bohr
 
 
     Adding external electric field

     Computed dipole along edir(3) : 
        Dipole               -0.4645 Ry au,         -1.1808 Debye
        Dipole field         -0.0003 Ry au, 
 
        Potential amp.        0.0312 Ry
        Total length         54.2615 bohr
 

     total cpu time spent up to now is      618.1 secs

     total energy              =   -7398.03655816 Ry
     estimated scf accuracy    <       0.04393051 Ry

     total magnetization       =    80.47 Bohr mag/cell
     absolute magnetization    =    81.88 Bohr mag/cell

     iteration # 42     ecut=    50.00 Ry     beta= 0.10
     Davidson diagonalization with overlap
     ethr =  1.67E-06,  avg # of iterations =  2.0

     negative rho (up, down):  4.633E-04 3.517E-04
 
     Adding external electric field

     Computed dipole along edir(3) : 
        Dipole               -0.4740 Ry au,         -1.2048 Debye
        Dipole field         -0.0003 Ry au, 
 
        Potential amp.        0.0318 Ry
        Total length         54.2615 bohr
 
 
     Adding external electric field

     Computed dipole along edir(3) : 
        Dipole               -0.4740 Ry au,         -1.2048 Debye
        Dipole field         -0.0003 Ry au, 
 
        Potential amp.        0.0318 Ry
        Total length         54.2615 bohr
 

     total cpu time spent up to now is      631.3 secs

     total energy              =   -7398.03709560 Ry
     estimated scf accuracy    <       0.01519327 Ry

     total magnetization       =    80.41 Bohr mag/cell
     absolute magnetization    =    81.76 Bohr mag/cell

     iteration # 43     ecut=    50.00 Ry     beta= 0.10
     Davidson diagonalization with overlap
     ethr =  1.41E-06,  avg # of iterations =  2.0

     negative rho (up, down):  5.319E-04 5.051E-04
 
     Adding external electric field

     Computed dipole along edir(3) : 
        Dipole               -0.4171 Ry au,         -1.0601 Debye
        Dipole field         -0.0003 Ry au, 
 
        Potential amp.        0.0280 Ry
        Total length         54.2615 bohr
 
 
     Adding external electric field

     Computed dipole along edir(3) : 
        Dipole               -0.4171 Ry au,         -1.0601 Debye
        Dipole field         -0.0003 Ry au, 
 
        Potential amp.        0.0280 Ry
        Total length         54.2615 bohr
 

     total cpu time spent up to now is      644.1 secs

     total energy              =   -7398.03719947 Ry
     estimated scf accuracy    <       0.01349494 Ry

     total magnetization       =    80.42 Bohr mag/cell
     absolute magnetization    =    81.75 Bohr mag/cell

     iteration # 44     ecut=    50.00 Ry     beta= 0.10
     Davidson diagonalization with overlap
     ethr =  1.25E-06,  avg # of iterations =  2.0

     negative rho (up, down):  7.664E-04 7.574E-04
 
     Adding external electric field

     Computed dipole along edir(3) : 
        Dipole               -0.3310 Ry au,         -0.8413 Debye
        Dipole field         -0.0002 Ry au, 
 
        Potential amp.        0.0222 Ry
        Total length         54.2615 bohr
 
 
     Adding external electric field

     Computed dipole along edir(3) : 
        Dipole               -0.3310 Ry au,         -0.8413 Debye
        Dipole field         -0.0002 Ry au, 
 
        Potential amp.        0.0222 Ry
        Total length         54.2615 bohr
 

     total cpu time spent up to now is      657.9 secs

     total energy              =   -7398.03734668 Ry
     estimated scf accuracy    <       0.00899339 Ry

     total magnetization       =    80.34 Bohr mag/cell
     absolute magnetization    =    81.80 Bohr mag/cell

     iteration # 45     ecut=    50.00 Ry     beta= 0.10
     Davidson diagonalization with overlap
     ethr =  8.34E-07,  avg # of iterations =  3.0

     negative rho (up, down):  7.208E-04 7.223E-04
 
     Adding external electric field

     Computed dipole along edir(3) : 
        Dipole               -0.3246 Ry au,         -0.8251 Debye
        Dipole field         -0.0002 Ry au, 
 
        Potential amp.        0.0218 Ry
        Total length         54.2615 bohr
 
 
     Adding external electric field

     Computed dipole along edir(3) : 
        Dipole               -0.3246 Ry au,         -0.8251 Debye
        Dipole field         -0.0002 Ry au, 
 
        Potential amp.        0.0218 Ry
        Total length         54.2615 bohr
 

     total cpu time spent up to now is      672.2 secs

     total energy              =   -7398.03754606 Ry
     estimated scf accuracy    <       0.00801130 Ry

     total magnetization       =    80.37 Bohr mag/cell
     absolute magnetization    =    81.88 Bohr mag/cell

     iteration # 46     ecut=    50.00 Ry     beta= 0.10
     Davidson diagonalization with overlap
     ethr =  7.43E-07,  avg # of iterations =  2.0

     negative rho (up, down):  4.820E-05 8.008E-05
 
     Adding external electric field

     Computed dipole along edir(3) : 
        Dipole               -0.2553 Ry au,         -0.6489 Debye
        Dipole field         -0.0002 Ry au, 
 
        Potential amp.        0.0171 Ry
        Total length         54.2615 bohr
 
 
     Adding external electric field

     Computed dipole along edir(3) : 
        Dipole               -0.2553 Ry au,         -0.6489 Debye
        Dipole field         -0.0002 Ry au, 
 
        Potential amp.        0.0171 Ry
        Total length         54.2615 bohr
 

     total cpu time spent up to now is      685.9 secs

     total energy              =   -7398.03670299 Ry
     estimated scf accuracy    <       0.00618394 Ry

     total magnetization       =    80.36 Bohr mag/cell
     absolute magnetization    =    81.86 Bohr mag/cell

     iteration # 47     ecut=    50.00 Ry     beta= 0.10
     Davidson diagonalization with overlap
     ethr =  5.74E-07,  avg # of iterations =  3.0

     negative rho (up, down):  3.939E-04 4.777E-04
 
     Adding external electric field

     Computed dipole along edir(3) : 
        Dipole               -0.2376 Ry au,         -0.6039 Debye
        Dipole field         -0.0001 Ry au, 
 
        Potential amp.        0.0159 Ry
        Total length         54.2615 bohr
 
 
     Adding external electric field

     Computed dipole along edir(3) : 
        Dipole               -0.2376 Ry au,         -0.6039 Debye
        Dipole field         -0.0001 Ry au, 
 
        Potential amp.        0.0159 Ry
        Total length         54.2615 bohr
 

     total cpu time spent up to now is      699.6 secs

     total energy              =   -7398.03681638 Ry
     estimated scf accuracy    <       0.02423550 Ry

     total magnetization       =    80.43 Bohr mag/cell
     absolute magnetization    =    81.95 Bohr mag/cell

     iteration # 48     ecut=    50.00 Ry     beta= 0.10
     Davidson diagonalization with overlap
     ethr =  5.74E-07,  avg # of iterations =  5.0

     negative rho (up, down):  5.039E-04 4.980E-04
 
     Adding external electric field

     Computed dipole along edir(3) : 
        Dipole               -0.2326 Ry au,         -0.5912 Debye
        Dipole field         -0.0001 Ry au, 
 
        Potential amp.        0.0156 Ry
        Total length         54.2615 bohr
 
 
     Adding external electric field

     Computed dipole along edir(3) : 
        Dipole               -0.2326 Ry au,         -0.5912 Debye
        Dipole field         -0.0001 Ry au, 
 
        Potential amp.        0.0156 Ry
        Total length         54.2615 bohr
 

     total cpu time spent up to now is      715.2 secs

     total energy              =   -7398.03727174 Ry
     estimated scf accuracy    <       0.00282641 Ry

     total magnetization       =    80.34 Bohr mag/cell
     absolute magnetization    =    81.87 Bohr mag/cell

     iteration # 49     ecut=    50.00 Ry     beta= 0.10
     Davidson diagonalization with overlap
     ethr =  2.62E-07,  avg # of iterations =  2.0

     negative rho (up, down):  3.549E-04 3.182E-04
 
     Adding external electric field

     Computed dipole along edir(3) : 
        Dipole               -0.2288 Ry au,         -0.5815 Debye
        Dipole field         -0.0001 Ry au, 
 
        Potential amp.        0.0154 Ry
        Total length         54.2615 bohr
 
 
     Adding external electric field

     Computed dipole along edir(3) : 
        Dipole               -0.2288 Ry au,         -0.5815 Debye
        Dipole field         -0.0001 Ry au, 
 
        Potential amp.        0.0154 Ry
        Total length         54.2615 bohr
 

     total cpu time spent up to now is      727.7 secs

     total energy              =   -7398.03703947 Ry
     estimated scf accuracy    <       0.00204198 Ry

     total magnetization       =    80.34 Bohr mag/cell
     absolute magnetization    =    81.89 Bohr mag/cell

     iteration # 50     ecut=    50.00 Ry     beta= 0.10
     Davidson diagonalization with overlap
     ethr =  1.89E-07,  avg # of iterations =  2.0

     negative rho (up, down):  3.801E-04 3.307E-04
 
     Adding external electric field

     Computed dipole along edir(3) : 
        Dipole               -0.2259 Ry au,         -0.5742 Debye
        Dipole field         -0.0001 Ry au, 
 
        Potential amp.        0.0152 Ry
        Total length         54.2615 bohr
 
 
     Adding external electric field

     Computed dipole along edir(3) : 
        Dipole               -0.2259 Ry au,         -0.5742 Debye
        Dipole field         -0.0001 Ry au, 
 
        Potential amp.        0.0152 Ry
        Total length         54.2615 bohr
 

     total cpu time spent up to now is      740.7 secs

     total energy              =   -7398.03703606 Ry
     estimated scf accuracy    <       0.00224118 Ry

     total magnetization       =    80.39 Bohr mag/cell
     absolute magnetization    =    81.94 Bohr mag/cell

     iteration # 51     ecut=    50.00 Ry     beta= 0.10
     Davidson diagonalization with overlap
     ethr =  1.89E-07,  avg # of iterations =  2.0

     negative rho (up, down):  2.238E-04 2.029E-04
 
     Adding external electric field

     Computed dipole along edir(3) : 
        Dipole               -0.2239 Ry au,         -0.5691 Debye
        Dipole field         -0.0001 Ry au, 
 
        Potential amp.        0.0150 Ry
        Total length         54.2615 bohr
 
 
     Adding external electric field

     Computed dipole along edir(3) : 
        Dipole               -0.2239 Ry au,         -0.5691 Debye
        Dipole field         -0.0001 Ry au, 
 
        Potential amp.        0.0150 Ry
        Total length         54.2615 bohr
 

     total cpu time spent up to now is      753.6 secs

     total energy              =   -7398.03705701 Ry
     estimated scf accuracy    <       0.00134947 Ry

     total magnetization       =    80.35 Bohr mag/cell
     absolute magnetization    =    81.90 Bohr mag/cell

     iteration # 52     ecut=    50.00 Ry     beta= 0.10
     Davidson diagonalization with overlap
     ethr =  1.25E-07,  avg # of iterations =  2.0

     negative rho (up, down):  1.227E-03 1.187E-03
 
     Adding external electric field

     Computed dipole along edir(3) : 
        Dipole               -0.1812 Ry au,         -0.4607 Debye
        Dipole field         -0.0001 Ry au, 
 
        Potential amp.        0.0122 Ry
        Total length         54.2615 bohr
 
 
     Adding external electric field

     Computed dipole along edir(3) : 
        Dipole               -0.1812 Ry au,         -0.4607 Debye
        Dipole field         -0.0001 Ry au, 
 
        Potential amp.        0.0122 Ry
        Total length         54.2615 bohr
 

     total cpu time spent up to now is      767.2 secs

     total energy              =   -7398.03712394 Ry
     estimated scf accuracy    <       0.00149002 Ry

     total magnetization       =    80.36 Bohr mag/cell
     absolute magnetization    =    81.90 Bohr mag/cell

     iteration # 53     ecut=    50.00 Ry     beta= 0.10
     Davidson diagonalization with overlap
     ethr =  1.25E-07,  avg # of iterations =  2.0

     negative rho (up, down):  4.138E-04 3.623E-04
 
     Adding external electric field

     Computed dipole along edir(3) : 
        Dipole               -0.1764 Ry au,         -0.4483 Debye
        Dipole field         -0.0001 Ry au, 
 
        Potential amp.        0.0118 Ry
        Total length         54.2615 bohr
 
 
     Adding external electric field

     Computed dipole along edir(3) : 
        Dipole               -0.1764 Ry au,         -0.4483 Debye
        Dipole field         -0.0001 Ry au, 
 
        Potential amp.        0.0118 Ry
        Total length         54.2615 bohr
 

     total cpu time spent up to now is      781.6 secs

     total energy              =   -7398.03704691 Ry
     estimated scf accuracy    <       0.00491377 Ry

     total magnetization       =    80.24 Bohr mag/cell
     absolute magnetization    =    81.80 Bohr mag/cell

     iteration # 54     ecut=    50.00 Ry     beta= 0.10
     Davidson diagonalization with overlap
     ethr =  1.25E-07,  avg # of iterations =  2.0

     negative rho (up, down):  8.016E-04 7.269E-04
 
     Adding external electric field

     Computed dipole along edir(3) : 
        Dipole               -0.1702 Ry au,         -0.4327 Debye
        Dipole field         -0.0001 Ry au, 
 
        Potential amp.        0.0114 Ry
        Total length         54.2615 bohr
 
 
     Adding external electric field

     Computed dipole along edir(3) : 
        Dipole               -0.1702 Ry au,         -0.4327 Debye
        Dipole field         -0.0001 Ry au, 
 
        Potential amp.        0.0114 Ry
        Total length         54.2615 bohr
 

     total cpu time spent up to now is      795.1 secs

     total energy              =   -7398.03722142 Ry
     estimated scf accuracy    <       0.00055913 Ry

     total magnetization       =    80.32 Bohr mag/cell
     absolute magnetization    =    81.88 Bohr mag/cell

     iteration # 55     ecut=    50.00 Ry     beta= 0.10
     Davidson diagonalization with overlap
     ethr =  5.19E-08,  avg # of iterations =  2.0

     negative rho (up, down):  3.589E-05 6.121E-06
 
     Adding external electric field

     Computed dipole along edir(3) : 
        Dipole               -0.1826 Ry au,         -0.4642 Debye
        Dipole field         -0.0001 Ry au, 
 
        Potential amp.        0.0123 Ry
        Total length         54.2615 bohr
 
 
     Adding external electric field

     Computed dipole along edir(3) : 
        Dipole               -0.1826 Ry au,         -0.4642 Debye
        Dipole field         -0.0001 Ry au, 
 
        Potential amp.        0.0123 Ry
        Total length         54.2615 bohr
 

     total cpu time spent up to now is      808.1 secs

     total energy              =   -7398.03722736 Ry
     estimated scf accuracy    <       0.00037612 Ry

     total magnetization       =    80.30 Bohr mag/cell
     absolute magnetization    =    81.86 Bohr mag/cell

     iteration # 56     ecut=    50.00 Ry     beta= 0.10
     Davidson diagonalization with overlap
     ethr =  3.49E-08,  avg # of iterations =  2.0

     negative rho (up, down):  1.239E-04 3.618E-05
 
     Adding external electric field

     Computed dipole along edir(3) : 
        Dipole               -0.1753 Ry au,         -0.4457 Debye
        Dipole field         -0.0001 Ry au, 
 
        Potential amp.        0.0118 Ry
        Total length         54.2615 bohr
 
 
     Adding external electric field

     Computed dipole along edir(3) : 
        Dipole               -0.1753 Ry au,         -0.4457 Debye
        Dipole field         -0.0001 Ry au, 
 
        Potential amp.        0.0118 Ry
        Total length         54.2615 bohr
 

     total cpu time spent up to now is      821.1 secs

     total energy              =   -7398.03725291 Ry
     estimated scf accuracy    <       0.00023538 Ry

     total magnetization       =    80.32 Bohr mag/cell
     absolute magnetization    =    81.86 Bohr mag/cell

     iteration # 57     ecut=    50.00 Ry     beta= 0.10
     Davidson diagonalization with overlap
     ethr =  2.18E-08,  avg # of iterations =  1.5

     negative rho (up, down):  6.687E-04 3.975E-04
 
     Adding external electric field

     Computed dipole along edir(3) : 
        Dipole               -0.1591 Ry au,         -0.4044 Debye
        Dipole field         -0.0001 Ry au, 
 
        Potential amp.        0.0107 Ry
        Total length         54.2615 bohr
 
 
     Adding external electric field

     Computed dipole along edir(3) : 
        Dipole               -0.1591 Ry au,         -0.4044 Debye
        Dipole field         -0.0001 Ry au, 
 
        Potential amp.        0.0107 Ry
        Total length         54.2615 bohr
 

     total cpu time spent up to now is      834.0 secs

     total energy              =   -7398.03727461 Ry
     estimated scf accuracy    <       0.00016110 Ry

     total magnetization       =    80.32 Bohr mag/cell
     absolute magnetization    =    81.85 Bohr mag/cell

     iteration # 58     ecut=    50.00 Ry     beta= 0.10
     Davidson diagonalization with overlap
     ethr =  1.49E-08,  avg # of iterations =  2.0

     negative rho (up, down):  7.947E-04 4.841E-04
 
     Adding external electric field

     Computed dipole along edir(3) : 
        Dipole               -0.1542 Ry au,         -0.3919 Debye
        Dipole field         -0.0001 Ry au, 
 
        Potential amp.        0.0103 Ry
[...]
    -5.9992  -5.9754  -5.9482  -5.9390  -5.8963  -5.8955  -5.8624  -5.8557
    -5.8124  -5.7958  -5.7600  -5.7339  -5.7294  -5.7214  -5.6982  -5.6862
    -5.6776  -5.6661  -5.6453  -5.6266  -5.6202  -5.5957  -5.5512  -5.5085
    -5.4757  -5.4409  -5.4223  -5.3976  -5.3850  -5.3476  -5.3284  -5.2892
    -5.2436  -5.2172  -5.1934  -5.1824  -5.1678  -5.0823  -5.0771  -5.0562
    -4.9874  -4.9806  -4.9466  -4.9126  -4.8947  -4.8784  -4.8656  -4.8062
    -4.7777  -4.7659  -4.7414  -4.7312  -4.6452  -4.6417  -4.5743  -4.5592
    -4.5439  -4.5203  -4.4784  -4.4630  -4.4246  -4.3944  -4.3825  -4.3721
    -4.3389  -4.2948  -4.2797  -4.2224  -4.1758  -4.1531  -4.1358  -4.0881
    -4.0804  -4.0428  -4.0308  -4.0081  -3.9605  -3.9531  -3.9165  -3.9035
    -3.8967  -3.8516  -3.8328  -3.8186  -3.7962  -3.7719  -3.7438  -3.7336
    -3.7098  -3.6997  -3.6615  -3.6481  -3.6406  -3.6260  -3.6174  -3.5815
    -3.5502  -3.5284  -3.5246  -3.5214  -3.5026  -3.4847  -3.4458  -3.4370
    -3.4221  -3.4034  -3.3935  -3.3468  -3.3341  -3.3104  -3.2855  -3.2523
    -3.2417  -3.2162  -3.2051  -3.1871  -3.1734  -3.1666  -3.1564  -3.1469
    -3.1363  -3.0728  -3.0418  -3.0346  -3.0219  -3.0004  -2.9709  -2.9530
    -2.9347  -2.9119  -2.9007  -2.8722  -2.8608  -2.8500  -2.8273  -2.8173
    -2.7948  -2.7879  -2.7853  -2.7558  -2.7510  -2.7448  -2.7320  -2.6971
    -2.6879  -2.6792  -2.6550  -2.6424  -2.6316  -2.6195  -2.6016  -2.5774
    -2.5534  -2.5449  -2.5319  -2.4956  -2.4879  -2.4818  -2.4756  -2.4428
    -2.4252  -2.4038  -2.3959  -2.3695  -2.3504  -2.3222  -2.3024  -2.2887
    -2.2617  -2.2470  -2.2412  -2.2034  -2.1860  -2.1537  -2.1334  -2.1257
    -2.1068  -2.0961  -2.0792  -2.0753  -2.0661  -2.0547  -2.0093  -1.9933
    -1.9824  -1.9734  -1.9591  -1.9432  -1.9290  -1.9181  -1.8927  -1.8632
    -1.8351  -1.8166  -1.7913  -1.7701  -1.7472  -1.7362  -1.6995  -1.6960
    -1.6880  -1.6536  -1.6393  -1.6277  -1.6151  -1.6075  -1.5845  -1.5516
    -1.5411  -1.5293  -1.4924  -1.4742  -1.4479  -1.4351  -1.4289  -1.4256
    -1.4082  -1.3794  -1.3255  -1.3195  -1.2961  -1.2493  -1.2374  -1.2131
    -1.1527  -1.1033  -1.0793  -1.0496  -1.0106  -0.9233  -0.8916  -0.8731
    -0.7788  -0.6676  -0.6104  -0.5966  -0.4602  -0.3636  -0.3146  -0.2559
     0.1009   0.1216   0.1557   0.1891   0.2297   0.2424   0.2567   0.2609
     0.2750   0.2840   0.2976   0.3014   0.3082   0.3271   0.3431   0.3449
     0.3519   0.3531   0.3715   0.3778   0.3845   0.3874   0.3928   0.4033
     0.4149   0.4170   0.4242   0.4376   0.4457   0.4462   0.4562   0.4605
     0.4650   0.4735   0.4760   0.4810   0.4953   0.4984   0.5066   0.5124
     0.5152   0.5287   0.5373   0.5477   0.5528   0.5565   0.5610   0.5700
     0.5822   0.5861   0.5975   0.6022   0.6086   0.6148   0.6211   0.6323
     0.6396   0.6545   0.6654   0.6739   0.6761   0.6800   0.6848   0.6898
     0.6968   0.7057   0.7090   0.7172   0.7188   0.7395   0.7424   0.7465
     0.7502   0.7533   0.7794   0.7851   0.7899   0.7980   0.8019   0.8167
     0.8263   0.8336   0.8460   0.8507   0.8632   0.8666   0.8782   0.8814
     0.8962   0.9150   0.9226   0.9293   0.9536   0.9882   0.9897   1.0375
     1.0750   1.1389   1.5993   1.6613   1.6988   1.7038   1.7169   1.7419
     1.7510   1.8383   1.8639   1.8810   1.8922   1.9320   1.9383   1.9619
     1.9882   1.9916   2.0089   2.0222   2.0411   2.0672   2.0811   2.1261
     2.1516   2.1532   2.1739   2.1985   2.2107   2.2141   2.2229   2.2308
     2.2471   2.2545   2.2608   2.2808   2.2899   2.2992   2.3144   2.3237
     2.3340   2.3496   2.3745   2.3895   2.4002   2.4077   2.4204   2.4425
     2.4466   2.4659   2.4763   2.4935   2.5061   2.5204   2.5395   2.5478
     2.5743   2.5878   2.6090   2.6344   2.6701   2.7255   2.7323   2.7622
     2.7896   2.8218   2.8385   2.9074   2.9335   3.4736   3.5937   3.6402
     3.6682   3.7641   3.8315   3.8471   3.8651   4.0051   4.0686   4.4931
     4.6082   4.6492   4.7750   4.9260   4.9494   5.0243   5.4175   6.2966
     6.3625   6.5460   6.5832   6.7700   6.8297   6.8574   6.8696   6.9360
     6.9884   7.0692   7.1073   7.1653   7.2809   7.3250   7.3642   7.4729
     7.5023   7.5519   7.6414   7.6667   7.6920   7.7314   7.7876   7.8026
     7.8497   7.9221   7.9382   7.9937   8.0092   8.0299   8.0491   8.0672
     8.0945   8.1075   8.1567   8.2007   8.2389   8.2535   8.2958   8.3286
     8.3673   8.3952   8.4258   8.4435   8.4604   8.4751   8.4939   8.5099
     8.5413   8.5527   8.5768   8.6104   8.6160   8.6495   8.6523   8.6876
     8.7007   8.7588   8.7790   8.8045   8.8176   8.8360   8.8873

     the Fermi energy is     1.5686 ev

!    total energy              =   -7398.03729487 Ry
     estimated scf accuracy    <       0.00000068 Ry
     smearing contrib. (-TS)   =      -0.01458023 Ry
     internal energy E=F+TS    =   -7398.02271464 Ry

     The total energy is F=E-TS. E is the sum of the following terms:
     one-electron contribution =  -91731.09071244 Ry
     hartree contribution      =   46513.34929845 Ry
     xc contribution           =   -2260.25364953 Ry
     ewald contribution        =   40081.80606444 Ry
     Dispersion Correction     =      -1.83372731 Ry
     electric field correction =       0.00001174 Ry

     total magnetization       =    80.32 Bohr mag/cell
     absolute magnetization    =    81.85 Bohr mag/cell

     convergence has been achieved in  67 iterations

     negative rho (up, down):  9.277E-04 5.463E-04

     Forces acting on atoms (cartesian axes, Ry/au):

     atom    1 type  2   force =     0.03099565   -0.01968366   -0.01637056
     atom    2 type  1   force =     0.00219631   -0.00398084   -0.01068907
     atom    3 type  1   force =    -0.02157141   -0.02069297    0.01809603
     atom    4 type  1   force =     0.00139264    0.01029121   -0.01272755
     atom    5 type  1   force =    -0.00482508    0.02913731   -0.01851656
     atom    6 type  1   force =     0.00588286    0.00043867   -0.00047552
     atom    7 type  1   force =     0.02699988   -0.02103344    0.01738794
     atom    8 type  1   force =    -0.00965057   -0.00311891   -0.01099023
     atom    9 type  1   force =    -0.02980670   -0.01821382    0.01605493
     atom   10 type  1   force =    -0.00113546    0.00809437   -0.01303917
     atom   11 type  1   force =    -0.01312540    0.03046027   -0.02067715
     atom   12 type  1   force =     0.00127528    0.00654096   -0.00410965
     atom   13 type  3   force =     0.05100969   -0.11007756    0.00913608
     atom   14 type  3   force =    -0.02903161    0.03594483   -0.06522110
     atom   15 type  3   force =    -0.00919894    0.17547642   -0.08320861
     atom   16 type  3   force =     0.06068728    0.00061923   -0.00448574
     atom   17 type  4   force =     0.01516041   -0.02185164   -0.00982909
     atom   18 type  4   force =    -0.00540577    0.00482515    0.02968116
     atom   19 type  4   force =     0.00215393    0.00102564    0.03079489
     atom   20 type  4   force =     0.00514601    0.00186653    0.00239355
     atom   21 type  4   force =     0.00053649   -0.01200089    0.00001689
     atom   22 type  4   force =    -0.00092592    0.00388579    0.03242189
     atom   23 type  4   force =    -0.00606852    0.01469472    0.02736669
     atom   24 type  4   force =     0.00869257    0.00317659   -0.00420257
     atom   25 type  4   force =     0.00650194   -0.00326081    0.00157009
     atom   26 type  4   force =     0.03120761   -0.17835085    0.00721227
     atom   27 type  4   force =     0.00286171    0.00097858    0.00171012
     atom   28 type  4   force =    -0.01705870    0.00168643    0.00473595
     atom   29 type  4   force =     0.09138131    0.00312068    0.00803816
     atom   30 type  4   force =     0.01305616   -0.02516580   -0.00091714
     atom   31 type  4   force =    -0.03847943    0.13345387   -0.00016114
     atom   32 type  4   force =    -0.00545758   -0.01184834    0.00652828
     atom   33 type  3   force =     0.04156327   -0.11925007    0.00957486
     atom   34 type  3   force =    -0.10167185    0.04258732   -0.07577232
     atom   35 type  3   force =    -0.01351389    0.16598651   -0.08814895
     atom   36 type  3   force =    -0.00360355    0.00264468   -0.01054406
     atom   37 type  4   force =     0.00823391   -0.01467641   -0.00240073
     atom   38 type  4   force =    -0.00588188   -0.00169685    0.02745088
     atom   39 type  4   force =    -0.00467897    0.00725618    0.03220525
     atom   40 type  4   force =     0.00131879    0.00002743    0.00250557
     atom   41 type  4   force =    -0.00152035   -0.00961864   -0.00150347
     atom   42 type  4   force =     0.00540690   -0.00050076    0.02926955
     atom   43 type  4   force =    -0.01043986    0.01352061    0.02701236
     atom   44 type  4   force =     0.00448020    0.00342957   -0.00437658
     atom   45 type  4   force =    -0.00029640   -0.00064615    0.00202193
     atom   46 type  4   force =     0.02817188   -0.17057549    0.00538645
     atom   47 type  4   force =    -0.06553655   -0.00075753   -0.00309138
     atom   48 type  4   force =    -0.01987119    0.00391542    0.00529298
     atom   49 type  4   force =     0.01410049    0.00083885    0.00203647
     atom   50 type  4   force =     0.00793023   -0.02439805   -0.00017563
     atom   51 type  4   force =    -0.03975758    0.13341602   -0.00133797
     atom   52 type  4   force =    -0.00775290   -0.01063770    0.00876883
     atom   53 type  2   force =     0.00634277   -0.00735407    0.00562477
     atom   54 type  1   force =     0.00043604   -0.00394204    0.00841333
     atom   55 type  1   force =     0.00498066   -0.00626475    0.00649074
     atom   56 type  1   force =    -0.00063477    0.00743771   -0.00120377
     atom   57 type  1   force =     0.00062008    0.02192753   -0.01402279
     atom   58 type  1   force =     0.00127590   -0.00319238    0.00252607
     atom   59 type  1   force =     0.00249124   -0.01017589    0.00374234
     atom   60 type  1   force =    -0.00805844   -0.00429207    0.00619579
     atom   61 type  1   force =    -0.00481243   -0.00502879    0.00639233
     atom   62 type  1   force =    -0.00298824    0.00588863   -0.00107950
     atom   63 type  1   force =    -0.01106034    0.02499793   -0.01755668
     atom   64 type  1   force =    -0.00201695    0.00136467   -0.00073895
     atom   65 type  3   force =     0.04594905   -0.12120602    0.01727756
     atom   66 type  3   force =     0.00145843   -0.00419623    0.00047345
     atom   67 type  3   force =    -0.04064563    0.12348654   -0.00709381
     atom   68 type  3   force =     0.06302700    0.00000708    0.00880798
     atom   69 type  4   force =     0.01302604   -0.01672191   -0.00243994
     atom   70 type  4   force =    -0.00168769    0.00334731   -0.00056753
     atom   71 type  4   force =    -0.00184510    0.00348628    0.00535495
     atom   72 type  4   force =     0.00482742    0.00119662    0.00109995
     atom   73 type  4   force =     0.00809071   -0.01722265    0.01188840
     atom   74 type  4   force =    -0.00424484   -0.00350212    0.00932071
     atom   75 type  4   force =     0.00356982    0.00868925    0.00460783
     atom   76 type  4   force =     0.00567125    0.00022807    0.00059136
     atom   77 type  4   force =     0.00604458   -0.00220254   -0.00116835
     atom   78 type  4   force =     0.04536751   -0.14072291    0.00577183
     atom   79 type  4   force =     0.00060037    0.00019439   -0.00061087
     atom   80 type  4   force =     0.00149802    0.00191957    0.00225574
     atom   81 type  4   force =     0.06741040    0.00005404    0.00645527
     atom   82 type  4   force =     0.00022110    0.00224221    0.00132068
     atom   83 type  4   force =    -0.03931458    0.13802422   -0.00242355
     atom   84 type  4   force =    -0.00159779   -0.01025951    0.00327249
     atom   85 type  3   force =     0.03897809   -0.12509890    0.02572581
     atom   86 type  3   force =    -0.06320372   -0.00150375   -0.00369943
     atom   87 type  3   force =    -0.04613745    0.12073250   -0.01065137
     atom   88 type  3   force =    -0.00054385   -0.00007932    0.00130938
     atom   89 type  4   force =     0.00870805   -0.01513856   -0.00522887
     atom   90 type  4   force =    -0.00457556    0.00097587   -0.00092393
     atom   91 type  4   force =    -0.00951100    0.00843312    0.00564900
     atom   92 type  4   force =     0.00031489   -0.00014946    0.00061054
     atom   93 type  4   force =     0.00142557   -0.01156002    0.00033630
     atom   94 type  4   force =    -0.00904450   -0.00298359    0.00826120
     atom   95 type  4   force =    -0.00030240    0.00776868    0.00305699
     atom   96 type  4   force =    -0.00022714    0.00154465   -0.00070944
     atom   97 type  4   force =    -0.00131885    0.00156802    0.00046487
     atom   98 type  4   force =     0.04062794   -0.13912179    0.00486462
     atom   99 type  4   force =    -0.06751256   -0.00102244   -0.00535455
     atom  100 type  4   force =    -0.00049408    0.00285481    0.00293103
     atom  101 type  4   force =    -0.00112547    0.00002228    0.00148029
     atom  102 type  4   force =    -0.00692283    0.00533444    0.00157436
     atom  103 type  4   force =    -0.04001432    0.13615441   -0.00421222
     atom  104 type  4   force =    -0.00574959   -0.00974179    0.00499571
     atom  105 type  2   force =     0.00039005   -0.00045463   -0.00038744
     atom  106 type  1   force =     0.00007151   -0.00045508   -0.00010884
     atom  107 type  1   force =     0.00020992    0.00003156    0.00053090
     atom  108 type  1   force =    -0.00009861   -0.00043866   -0.00021661
     atom  109 type  1   force =     0.00012306   -0.00017803   -0.00000620
     atom  110 type  1   force =     0.00030497    0.00044287   -0.00016668
     atom  111 type  1   force =     0.00013809   -0.00038097    0.00014755
     atom  112 type  1   force =    -0.00049862   -0.00036620    0.00047669
     atom  113 type  1   force =     0.00010147    0.00019405    0.00013399
     atom  114 type  1   force =     0.00002379   -0.00054764    0.00019212
     atom  115 type  1   force =     0.00003956   -0.00028952    0.00038282
     atom  116 type  1   force =    -0.00025848   -0.00011336   -0.00006846
     atom  117 type  3   force =    -0.00020619   -0.00028866   -0.00022378
     atom  118 type  3   force =     0.00014662    0.00015535    0.00002141
     atom  119 type  3   force =    -0.00022034   -0.00040486    0.00018877
     atom  120 type  3   force =     0.00037660   -0.00017879   -0.00025937
     atom  121 type  4   force =     0.00014317    0.00057181   -0.00051765
     atom  122 type  4   force =    -0.00026738   -0.00023791    0.00014705
     atom  123 type  4   force =     0.00019190   -0.00003785   -0.00012045
     atom  124 type  4   force =    -0.00071063    0.00018464   -0.00040009
     atom  125 type  4   force =     0.00013192   -0.00001862   -0.00007190
     atom  126 type  4   force =    -0.00000952   -0.00002383    0.00020315
     atom  127 type  4   force =     0.00001918   -0.00000724   -0.00018761
     atom  128 type  4   force =    -0.00006995    0.00027309    0.00030967
     atom  129 type  4   force =    -0.00077362    0.00028112    0.00017754
     atom  130 type  4   force =    -0.00004067   -0.00010109    0.00009504
     atom  131 type  4   force =    -0.00017125   -0.00004132   -0.00001323
     atom  132 type  4   force =     0.00031842    0.00021096   -0.00005775
     atom  133 type  4   force =    -0.00024389   -0.00055044   -0.00007322
     atom  134 type  4   force =    -0.00015051    0.00006169    0.00032649
     atom  135 type  4   force =    -0.00007549   -0.00033838   -0.00015665
     atom  136 type  4   force =    -0.00003116   -0.00061329    0.00021805
     atom  137 type  3   force =    -0.00029558    0.00074649   -0.00076929
     atom  138 type  3   force =     0.00004887   -0.00026255   -0.00029860
     atom  139 type  3   force =     0.00035536   -0.00019446   -0.00013502
     atom  140 type  3   force =     0.00012143   -0.00064563    0.00005375
     atom  141 type  4   force =    -0.00012235   -0.00039339    0.00016291
     atom  142 type  4   force =    -0.00013741   -0.00049092    0.00000264
     atom  143 type  4   force =     0.00004079    0.00006029   -0.00018326
     atom  144 type  4   force =    -0.00005247   -0.00004450   -0.00009729
     atom  145 type  4   force =     0.00024325   -0.00021007   -0.00005866
     atom  146 type  4   force =     0.00010611    0.00007527   -0.00007427
     atom  147 type  4   force =    -0.00009113   -0.00014394    0.00010559
     atom  148 type  4   force =    -0.00024461    0.00018567   -0.00025060
     atom  149 type  4   force =     0.00024274   -0.00022396   -0.00009501
     atom  150 type  4   force =     0.00011759   -0.00021762   -0.00004691
     atom  151 type  4   force =     0.00041909    0.00035795   -0.00001718
     atom  152 type  4   force =    -0.00001450   -0.00022612    0.00007440
     atom  153 type  4   force =    -0.00015101   -0.00009027   -0.00018647
     atom  154 type  4   force =    -0.00018047   -0.00015516   -0.00005178
     atom  155 type  4   force =     0.00065649    0.00021200   -0.00022712
     atom  156 type  4   force =    -0.00032165   -0.00010505   -0.00006031
     atom  157 type  4   force =    -0.01041134    0.00686699    0.00330810
     atom  158 type  5   force =     0.01131672   -0.00594173   -0.00282717

     Total force =     0.665827     Total SCF correction =     0.003486
 
     init_run     :      8.25s CPU      8.94s WALL (       1 calls)
     electrons    :    923.99s CPU    960.17s WALL (       1 calls)
     forces       :      4.65s CPU      4.92s WALL (       1 calls)
     force_london :      0.08s CPU      0.08s WALL (       1 calls)

     Called by init_run:
     wfcinit      :      4.95s CPU      5.14s WALL (       1 calls)
     potinit      :      0.58s CPU      0.79s WALL (       1 calls)
     hinit0       :      1.40s CPU      1.49s WALL (       1 calls)

     Called by electrons:
     c_bands      :    705.91s CPU    725.82s WALL (      67 calls)
     sum_band     :    137.47s CPU    146.49s WALL (      67 calls)
     v_of_rho     :     13.70s CPU     14.53s WALL (      68 calls)
     newd         :     47.82s CPU     54.47s WALL (      68 calls)
     mix_rho      :     18.47s CPU     18.54s WALL (      67 calls)
     energy_londo :      0.08s CPU      0.08s WALL (       1 calls)

     Called by c_bands:
     init_us_2    :      1.73s CPU      1.76s WALL (     272 calls)
     init_us_2:cp :      1.73s CPU      1.76s WALL (     272 calls)
     regterg      :    691.62s CPU    711.38s WALL (     136 calls)

     Called by *egterg:
     rdiaghg      :    173.13s CPU    182.18s WALL (     496 calls)
     h_psi        :    257.14s CPU    262.44s WALL (     498 calls)
     s_psi        :     39.09s CPU     39.10s WALL (     498 calls)
     g_psi        :      0.28s CPU      0.29s WALL (     360 calls)

     Called by h_psi:
     h_psi:calbec :     79.15s CPU     83.63s WALL (     498 calls)
     vloc_psi     :    136.86s CPU    137.24s WALL (     498 calls)
     add_vuspsi   :     40.57s CPU     41.00s WALL (     498 calls)

     General routines
     calbec       :    117.30s CPU    123.88s WALL (     640 calls)
     fft          :     42.69s CPU     43.80s WALL (    1237 calls)
     ffts         :     10.87s CPU     10.88s WALL (    8321 calls)
     fftw         :    159.94s CPU    160.36s WALL (  227388 calls)
     interpolate  :      1.21s CPU      1.28s WALL (     136 calls)
 
     Parallel routines
 
     PWSCF        :  15m38.90s CPU  16m16.29s WALL

 
   This run was terminated on:   2:55:30  20Nov2025            

=------------------------------------------------------------------------------=
   JOB DONE.
=------------------------------------------------------------------------------=
