
     Program PWSCF v.7.2 starts on 20Nov2025 at  1:58:22 

     This program is part of the open-source Quantum ESPRESSO suite
     for quantum simulation of materials; please cite
         "P. Giannozzi et al., J. Phys.:Condens. Matter 21 395502 (2009);
         "P. Giannozzi et al., J. Phys.:Condens. Matter 29 465901 (2017);
         "P. Giannozzi et al., J. Chem. Phys. 152 154105 (2020);
          URL http://www.quantum-espresso.org", 
     in publications or presentations arising from this work. More details at
     http://www.quantum-espresso.org/quote

     Parallel version (MPI), running on    64 processors

     MPI processes distributed on     4 nodes
     489701 MiB available memory on the printing compute node when the environment starts
 
     Reading input from PWINPUT_atm157_zm

     Current dimensions of program PWSCF are:
     Max number of different atomic species (ntypx) = 10
     Max number of k-points (npk) =  40000
     Max angular momentum in pseudopotentials (lmaxx) =  4
     Presently no symmetry can be used with electric field

     file Ni.pbe-n-rrkjus_psl.1.0.0.UPF: wavefunction(s)  3D renormalized
     file Mn.pbe-spn-rrkjus_psl.0.3.1.UPF: wavefunction(s)  3D renormalized
     file O.pbe-rrkjus.UPF: wavefunction(s)  2S renormalized
     file H.pbe-rrkjus.UPF: wavefunction(s)  1S renormalized

     gamma-point specific algorithms are used
 
     R & G space division:  proc/nbgrp/npool/nimage =      64
     Subspace diagonalization in iterative solution of the eigenvalue problem:
     one sub-group per band group will be used
     custom distributed-memory algorithm (size of sub-group:  6*  6 procs)

 
     Parallelization info
     --------------------
     sticks:   dense  smooth     PW     G-vecs:    dense   smooth      PW
     Min         208      82     20                59912    15118    1876
     Max         210      84     22                59974    15196    1926
     Sum       13399    5355   1345              3836275   970529  121367
 
     Using Slab Decomposition
 


     bravais-lattice index     =            0
     lattice parameter (alat)  =      17.7004  a.u.
     unit-cell volume          =   20319.7251 (a.u.)^3
     number of atoms/cell      =          158
     number of atomic types    =            5
     number of electrons       =      1078.00
     number of Kohn-Sham states=          647
     kinetic-energy cutoff     =      50.0000  Ry
     charge density cutoff     =     500.0000  Ry
     scf convergence threshold =      1.0E-06
     mixing beta               =       0.1000
     number of iterations used =            8  local-TF  mixing
     Exchange-correlation=  SLA  PW   PBE  PBE
                           (   1   4   3   4   0   0   0)

     celldm(1)=  17.700384  celldm(2)=   0.000000  celldm(3)=   0.000000
     celldm(4)=   0.000000  celldm(5)=   0.000000  celldm(6)=   0.000000

     crystal axes: (cart. coord. in units of alat)
               a(1) = (   1.000000   0.000000   0.000000 )  
               a(2) = (   0.000000   1.075730   0.000000 )  
               a(3) = (   0.000000   0.000000   3.406172 )  

     reciprocal axes: (cart. coord. in units 2 pi/alat)
               b(1) = (  1.000000  0.000000  0.000000 )  
               b(2) = (  0.000000  0.929602  0.000000 )  
               b(3) = (  0.000000  0.000000  0.293585 )  


     PseudoPot. # 1 for Ni read from file:
     ~/PSEUDO/Ni.pbe-n-rrkjus_psl.1.0.0.UPF
     MD5 check sum: Not computed, couldn't open file
     Pseudo is Ultrasoft + core correction, Zval = 10.0
     Generated using "atomic" code by A. Dal Corso  v.5.1.2
     Using radial grid of 1195 points,  6 beta functions with: 
                l(1) =   0
                l(2) =   0
                l(3) =   1
                l(4) =   1
                l(5) =   2
                l(6) =   2
     Q(r) pseudized with 0 coefficients 


     PseudoPot. # 2 for Mn read from file:
     ~/PSEUDO/Mn.pbe-spn-rrkjus_psl.0.3.1.UPF
     MD5 check sum: Not computed, couldn't open file
     Pseudo is Ultrasoft + core correction, Zval = 15.0
     Generated using &quot;atomic&quot; code by A. Dal Corso  v.6.2.2
     Using radial grid of 1187 points,  6 beta functions with: 
                l(1) =   0
                l(2) =   0
                l(3) =   1
                l(4) =   1
                l(5) =   2
                l(6) =   2
     Q(r) pseudized with 0 coefficients 


     PseudoPot. # 3 for P  read from file:
     ~/PSEUDO/P.pbe-n-rrkjus_psl.1.0.0.UPF
     MD5 check sum: Not computed, couldn't open file
     Pseudo is Ultrasoft + core correction, Zval =  5.0
     Generated using "atomic" code by A. Dal Corso  v.5.1
     Using radial grid of 1147 points,  6 beta functions with: 
                l(1) =   0
                l(2) =   0
                l(3) =   1
                l(4) =   1
                l(5) =   2
                l(6) =   2
     Q(r) pseudized with 0 coefficients 


     PseudoPot. # 4 for O  read from file:
     ~/PSEUDO/O.pbe-rrkjus.UPF
     MD5 check sum: Not computed, couldn't open file
     Pseudo is Ultrasoft, Zval =  6.0
     Generated by new atomic code, or converted to UPF format
     Using radial grid of 1269 points,  4 beta functions with: 
                l(1) =   0
                l(2) =   0
                l(3) =   1
                l(4) =   1
     Q(r) pseudized with 0 coefficients 


     PseudoPot. # 5 for H  read from file:
     ~/PSEUDO/H.pbe-rrkjus.UPF
     MD5 check sum: Not computed, couldn't open file
     Pseudo is Ultrasoft, Zval =  1.0
     Generated by new atomic code, or converted to UPF format
     Using radial grid of 1061 points,  2 beta functions with: 
                l(1) =   0
                l(2) =   0
     Q(r) pseudized with 0 coefficients 


     atomic species   valence    mass     pseudopotential
     Ni               10.00    58.69300     Ni( 1.00)
     Mn               15.00    54.93800     Mn( 1.00)
     P                 5.00    30.97300     P ( 1.00)
     O                 6.00    15.99900     O ( 1.00)
     H                 1.00     1.00790     H ( 1.00)

     Starting magnetic structure 
     atomic species   magnetization
     Ni              1.000
     Mn              1.000
     P               1.000
     O               1.000
     H               0.000

     No symmetry found



   Cartesian axes

     site n.     atom                  positions (alat units)
         1        Mn     tau(   1) = (   0.2404744   0.8371250   0.1168501  )
         2        Ni     tau(   2) = (   0.4968126   0.7726670   0.4415546  )
         3        Ni     tau(   3) = (   0.0066150   0.2936743   0.1241053  )
         4        Ni     tau(   4) = (   0.2585722   0.2355858   0.4448848  )
         5        Ni     tau(   5) = (   0.9987350   1.0696411   0.2854926  )
         6        Ni     tau(   6) = (   0.2517397   0.5330511   0.2829322  )
         7        Ni     tau(   7) = (   0.7451645   0.8337543   0.1221751  )
         8        Ni     tau(   8) = (   0.9939181   0.7738804   0.4407595  )
         9        Ni     tau(   9) = (   0.5111533   0.2924088   0.1251865  )
        10        Ni     tau(  10) = (   0.7606326   0.2319267   0.4451372  )
        11        Ni     tau(  11) = (   0.5024065   1.0688133   0.2870502  )
        12        Ni     tau(  12) = (   0.7529977   0.5317900   0.2845227  )
        13        P      tau(  13) = (   0.2092944   0.9731097   0.4345035  )
        14        P      tau(  14) = (   0.4655727   0.6359535   0.1274635  )
        15        P      tau(  15) = (   0.2910699   0.1027363   0.1296098  )
        16        P      tau(  16) = (   0.0396216   0.4288395   0.4398838  )
        17        O      tau(  17) = (   0.1294378   0.9013260   0.3010618  )
        18        O      tau(  18) = (   0.3874505   0.7054774   0.2637003  )
        19        O      tau(  19) = (   0.3702540   0.1714799   0.2660028  )
        20        O      tau(  20) = (   0.1184398   0.3582958   0.3038353  )
        21        O      tau(  21) = (   0.1451572   0.8850881   0.5587578  )
        22        O      tau(  22) = (   0.4048762   0.7245585   0.0017492  )
        23        O      tau(  23) = (   0.3523506   0.1900579   0.0035744  )
        24        O      tau(  24) = (   0.1017610   0.3410484   0.5656572  )
        25        O      tau(  25) = (   0.0975396   0.5849288   0.4357922  )
        26        O      tau(  26) = (   0.3483552   1.0314945   0.1270322  )
        27        O      tau(  27) = (   0.3784305   0.4225118   0.4308928  )
        28        O      tau(  28) = (   0.1268237   0.1067944   0.1392744  )
        29        O      tau(  29) = (   0.1212267   0.6424170   0.1362896  )
        30        O      tau(  30) = (   0.4053315   0.4809387   0.1300622  )
        31        O      tau(  31) = (   0.1536621   0.0446918   0.4373386  )
        32        O      tau(  32) = (   0.3732349   0.9631717   0.4256642  )
        33        P      tau(  33) = (   0.7119823   0.9695974   0.4373010  )
        34        P      tau(  34) = (   0.9615208   0.6363392   0.1262932  )
        35        P      tau(  35) = (   0.7927710   0.0970060   0.1292164  )
        36        P      tau(  36) = (   0.5426404   0.4269675   0.4410738  )
        37        O      tau(  37) = (   0.6326879   0.8991182   0.3013240  )
        38        O      tau(  38) = (   0.8842163   0.7083206   0.2625155  )
        39        O      tau(  39) = (   0.8716178   0.1677751   0.2653504  )
        40        O      tau(  40) = (   0.6212010   0.3558666   0.3051085  )
        41        O      tau(  41) = (   0.6507714   0.8812342   0.5631722  )
        42        O      tau(  42) = (   0.9014054   0.7264458   0.0010676  )
        43        O      tau(  43) = (   0.8548963   0.1847909   0.0035471  )
        44        O      tau(  44) = (   0.6044469   0.3378706   0.5660366  )
        45        O      tau(  45) = (   0.6024424   0.5823140   0.4379016  )
        46        O      tau(  46) = (   0.8498940   1.0254482   0.1275156  )
        47        O      tau(  47) = (   0.8798395   0.4205825   0.4305771  )
        48        O      tau(  48) = (   0.6286921   0.1034636   0.1397346  )
        49        O      tau(  49) = (   0.6294973   0.6427753   0.1372553  )
        50        O      tau(  50) = (   0.9024339   0.4810312   0.1296418  )
        51        O      tau(  51) = (   0.6547812   0.0410987   0.4396636  )
        52        O      tau(  52) = (   0.8760507   0.9632605   0.4264507  )
        53        Mn     tau(  53) = (   0.2404744   0.8246335   0.7367378  )
        54        Ni     tau(  54) = (   0.4968126   0.7601755   1.0614423  )
        55        Ni     tau(  55) = (   0.0066150   0.2811828   0.7439929  )
        56        Ni     tau(  56) = (   0.2585722   0.2230943   1.0647725  )
        57        Ni     tau(  57) = (   0.9987350   1.0571496   0.9053803  )
        58        Ni     tau(  58) = (   0.2517397   0.5205596   0.9028199  )
        59        Ni     tau(  59) = (   0.7451645   0.8212628   0.7420628  )
        60        Ni     tau(  60) = (   0.9939181   0.7613889   1.0606471  )
        61        Ni     tau(  61) = (   0.5111533   0.2799173   0.7450742  )
        62        Ni     tau(  62) = (   0.7606326   0.2194352   1.0650249  )
        63        Ni     tau(  63) = (   0.5024065   1.0563218   0.9069379  )
        64        Ni     tau(  64) = (   0.7529977   0.5192985   0.9044104  )
        65        P      tau(  65) = (   0.2092944   0.9606182   1.0543912  )
        66        P      tau(  66) = (   0.4655727   0.6234620   0.7473512  )
        67        P      tau(  67) = (   0.2910699   0.0902448   0.7494974  )
        68        P      tau(  68) = (   0.0396216   0.4163480   1.0597715  )
        69        O      tau(  69) = (   0.1294378   0.8888345   0.9209495  )
        70        O      tau(  70) = (   0.3874505   0.6929859   0.8835880  )
        71        O      tau(  71) = (   0.3702540   0.1589885   0.8858904  )
        72        O      tau(  72) = (   0.1184398   0.3458043   0.9237230  )
        73        O      tau(  73) = (   0.1451572   0.8725966   1.1786454  )
        74        O      tau(  74) = (   0.4048762   0.7120670   0.6216369  )
        75        O      tau(  75) = (   0.3523506   0.1775664   0.6234620  )
        76        O      tau(  76) = (   0.1017610   0.3285569   1.1855448  )
        77        O      tau(  77) = (   0.0975396   0.5724373   1.0556799  )
        78        O      tau(  78) = (   0.3483552   1.0190030   0.7469198  )
        79        O      tau(  79) = (   0.3784305   0.4100203   1.0507804  )
        80        O      tau(  80) = (   0.1268237   0.0943029   0.7591620  )
        81        O      tau(  81) = (   0.1212267   0.6299255   0.7561772  )
        82        O      tau(  82) = (   0.4053315   0.4684472   0.7499499  )
        83        O      tau(  83) = (   0.1536621   0.0322003   1.0572263  )
        84        O      tau(  84) = (   0.3732349   0.9506802   1.0455518  )
        85        P      tau(  85) = (   0.7119823   0.9571059   1.0571887  )
        86        P      tau(  86) = (   0.9615208   0.6238477   0.7461808  )
        87        P      tau(  87) = (   0.7927710   0.0845145   0.7491041  )
        88        P      tau(  88) = (   0.5426404   0.4144760   1.0609615  )
        89        O      tau(  89) = (   0.6326879   0.8866267   0.9212117  )
        90        O      tau(  90) = (   0.8842163   0.6958291   0.8824032  )
        91        O      tau(  91) = (   0.8716178   0.1552836   0.8852381  )
        92        O      tau(  92) = (   0.6212010   0.3433751   0.9249961  )
        93        O      tau(  93) = (   0.6507714   0.8687427   1.1830599  )
        94        O      tau(  94) = (   0.9014054   0.7139543   0.6209553  )
        95        O      tau(  95) = (   0.8548963   0.1722994   0.6234348  )
        96        O      tau(  96) = (   0.6044469   0.3253792   1.1859242  )
        97        O      tau(  97) = (   0.6024424   0.5698225   1.0577892  )
        98        O      tau(  98) = (   0.8498940   1.0129567   0.7474033  )
        99        O      tau(  99) = (   0.8798395   0.4080910   1.0504647  )
       100        O      tau( 100) = (   0.6286921   0.0909721   0.7596222  )
       101        O      tau( 101) = (   0.6294973   0.6302838   0.7571429  )
       102        O      tau( 102) = (   0.9024339   0.4685397   0.7495295  )
       103        O      tau( 103) = (   0.6547812   0.0286072   1.0595512  )
       104        O      tau( 104) = (   0.8760507   0.9507690   1.0463383  )
       105        Mn     tau( 105) = (   0.2341048   0.8108197   1.3663252  )
       106        Ni     tau( 106) = (   0.5024816   0.7464085   1.6757065  )
       107        Ni     tau( 107) = (   0.0091392   0.2672722   1.3697207  )
       108        Ni     tau( 108) = (   0.2495058   0.2078228   1.6755278  )
       109        Ni     tau( 109) = (   1.0032102   1.0416246   1.5364023  )
       110        Ni     tau( 110) = (   0.2485262   0.5048332   1.5297062  )
       111        Ni     tau( 111) = (   0.7430018   0.8054177   1.3686003  )
       112        Ni     tau( 112) = (   0.9925501   0.7393218   1.7090217  )
       113        Ni     tau( 113) = (   0.5113084   0.2670413   1.3698693  )
       114        Ni     tau( 114) = (   0.7494949   0.2101352   1.6749472  )
       115        Ni     tau( 115) = (   0.5047951   1.0439869   1.5324480  )
       116        Ni     tau( 116) = (   0.7496602   0.5077338   1.5350320  )
       117        P      tau( 117) = (   0.2153380   0.9328497   1.6938933  )
       118        P      tau( 118) = (   0.4622660   0.6087634   1.3707994  )
       119        P      tau( 119) = (   0.2922378   0.0736206   1.3716559  )
       120        P      tau( 120) = (   0.0382110   0.3940295   1.6909775  )
       121        O      tau( 121) = (   0.1372270   0.8700926   1.5520458  )
       122        O      tau( 122) = (   0.3847694   0.6779168   1.5071938  )
       123        O      tau( 123) = (   0.3710441   0.1421445   1.5079797  )
       124        O      tau( 124) = (   0.1173137   0.3316825   1.5448012  )
       125        O      tau( 125) = (   0.1566604   0.8378692   1.8121477  )
       126        O      tau( 126) = (   0.4018852   0.6988502   1.2455572  )
       127        O      tau( 127) = (   0.3539928   0.1600748   1.2455128  )
       128        O      tau( 128) = (   0.0976531   0.2945871   1.8050993  )
       129        O      tau( 129) = (   0.0985428   0.5494999   1.6854361  )
       130        O      tau( 130) = (   0.3504453   0.9928363   1.3746257  )
       131        O      tau( 131) = (   0.3718735   0.3910438   1.6761776  )
       132        O      tau( 132) = (   0.1285520   0.0774354   1.3834063  )
       133        O      tau( 133) = (   0.1228761   0.6199323   1.3811417  )
       134        O      tau( 134) = (   0.4020429   0.4538468   1.3720019  )
       135        O      tau( 135) = (   0.1599454   0.0153847   1.6910302  )
       136        O      tau( 136) = (   0.3804554   0.9291162   1.6779826  )
       137        P      tau( 137) = (   0.7133756   0.9380637   1.6935653  )
       138        P      tau( 138) = (   0.9577904   0.6122334   1.3726531  )
       139        P      tau( 139) = (   0.7939846   0.0704840   1.3720273  )
       140        P      tau( 140) = (   0.5366371   0.3964784   1.6923699  )
       141        O      tau( 141) = (   0.6376702   0.8730140   1.5485714  )
       142        O      tau( 142) = (   0.8832272   0.6852684   1.5080352  )
       143        O      tau( 143) = (   0.8714928   0.1414651   1.5082745  )
       144        O      tau( 144) = (   0.6162606   0.3358838   1.5468185  )
       145        O      tau( 145) = (   0.6494383   0.8437087   1.8102692  )
       146        O      tau( 146) = (   0.8986022   0.6987735   1.2443575  )
       147        O      tau( 147) = (   0.8554771   0.1582509   1.2459557  )
       148        O      tau( 148) = (   0.5975308   0.2989918   1.8069624  )
       149        O      tau( 149) = (   0.5919342   0.5544634   1.6914728  )
       150        O      tau( 150) = (   0.8532566   0.9911851   1.3761764  )
       151        O      tau( 151) = (   0.8736693   0.3888582   1.6742141  )
       152        O      tau( 152) = (   0.6299136   0.0779356   1.3831127  )
       153        O      tau( 153) = (   0.6261583   0.6163923   1.3832484  )
       154        O      tau( 154) = (   0.9012706   0.4563430   1.3768978  )
       155        O      tau( 155) = (   0.6553133   0.0192695   1.6887296  )
       156        O      tau( 156) = (   0.8781114   0.9348774   1.6838478  )
       157        O      tau( 157) = (   0.8763292   0.6539004   1.8374964  )
       158        H      tau( 158) = (   0.7911329   0.7123594   1.8616160  )

     -------------------------------------------------
     Parameters for Dispersion (Grimme-D2) Correction:
     -------------------------------------------------
       atom      VdW radius       C_6     

        Ni         2.952        374.666
        Mn         2.952        374.666
        P          3.222        271.980
        O          2.536         24.284
        H          1.892          4.857

     number of k points=     1  Gaussian smearing, width (Ry)=  0.0100
                       cart. coord. in units 2pi/alat
        k(    1) = (   0.0000000   0.0000000   0.0000000), wk =   1.0000000

     Dense  grid:  1918138 G-vectors     FFT dimensions: ( 125, 135, 432)

     Smooth grid:   485265 G-vectors     FFT dimensions: (  80,  90, 288)

     Estimated max dynamical RAM per process >     320.12 MB

     Estimated total dynamical RAM >      20.01 GB
     Generating pointlists ...
     new r_m :   0.0797 (alat units)  1.4103 (a.u.) for type    1
     new r_m :   0.0869 (alat units)  1.5388 (a.u.) for type    2
     new r_m :   0.0650 (alat units)  1.1499 (a.u.) for type    3
     new r_m :   0.0438 (alat units)  0.7747 (a.u.) for type    4
     new r_m :   0.0438 (alat units)  0.7747 (a.u.) for type    5

     Initial potential from superposition of free atoms

     starting charge    1077.8900, renormalised to    1078.0000

     negative rho (up, down):  1.235E-03 4.557E-04
 
     Adding external electric field

     Computed dipole along edir(3) : 
        Dipole                1.6192 Ry au,          4.1155 Debye
        Dipole field          0.0010 Ry au, 
 
        Potential amp.       -0.1087 Ry
        Total length         54.2615 bohr
 
 
     Adding external electric field

     Computed dipole along edir(3) : 
        Dipole                1.6192 Ry au,          4.1155 Debye
        Dipole field          0.0010 Ry au, 
 
        Potential amp.       -0.1087 Ry
        Total length         54.2615 bohr
 
     Starting wfcs are  812 randomized atomic wfcs

     total cpu time spent up to now is       10.8 secs

     Self-consistent Calculation

     iteration #  1     ecut=    50.00 Ry     beta= 0.10
     Davidson diagonalization with overlap
     ethr =  1.00E-02,  avg # of iterations =  6.0

     negative rho (up, down):  3.321E-01 1.556E-06
 
     Adding external electric field

     Computed dipole along edir(3) : 
        Dipole               -3.6099 Ry au,         -9.1754 Debye
        Dipole field         -0.0022 Ry au, 
 
        Potential amp.        0.2423 Ry
        Total length         54.2615 bohr
 
 
     Adding external electric field

     Computed dipole along edir(3) : 
        Dipole               -3.6099 Ry au,         -9.1754 Debye
        Dipole field         -0.0022 Ry au, 
 
        Potential amp.        0.2423 Ry
        Total length         54.2615 bohr
 

     total cpu time spent up to now is       38.5 secs

     total energy              =   -7178.36089013 Ry
     estimated scf accuracy    <     752.83540611 Ry

     total magnetization       =   216.00 Bohr mag/cell
     absolute magnetization    =   297.08 Bohr mag/cell

     iteration #  2     ecut=    50.00 Ry     beta= 0.10
     Davidson diagonalization with overlap
     ethr =  1.00E-02,  avg # of iterations =  2.0

     negative rho (up, down):  3.161E-01 1.217E-06
 
     Adding external electric field

     Computed dipole along edir(3) : 
        Dipole               -2.3841 Ry au,         -6.0597 Debye
        Dipole field         -0.0015 Ry au, 
 
        Potential amp.        0.1600 Ry
        Total length         54.2615 bohr
 
 
     Adding external electric field

     Computed dipole along edir(3) : 
        Dipole               -2.3841 Ry au,         -6.0597 Debye
        Dipole field         -0.0015 Ry au, 
 
        Potential amp.        0.1600 Ry
        Total length         54.2615 bohr
 

     total cpu time spent up to now is       55.3 secs

     total energy              =   -7262.02612337 Ry
     estimated scf accuracy    <     211.83008470 Ry

     total magnetization       =   150.41 Bohr mag/cell
     absolute magnetization    =   200.09 Bohr mag/cell

     iteration #  3     ecut=    50.00 Ry     beta= 0.10
     Davidson diagonalization with overlap
     ethr =  1.00E-02,  avg # of iterations =  1.5

     negative rho (up, down):  2.787E-01 8.536E-07
 
     Adding external electric field

     Computed dipole along edir(3) : 
        Dipole               -2.0313 Ry au,         -5.1632 Debye
        Dipole field         -0.0013 Ry au, 
 
        Potential amp.        0.1363 Ry
        Total length         54.2615 bohr
 
 
     Adding external electric field

     Computed dipole along edir(3) : 
        Dipole               -2.0313 Ry au,         -5.1632 Debye
        Dipole field         -0.0013 Ry au, 
 
        Potential amp.        0.1363 Ry
        Total length         54.2615 bohr
 

     total cpu time spent up to now is       68.7 secs

     total energy              =   -7292.51208656 Ry
     estimated scf accuracy    <      98.15767092 Ry

     total magnetization       =   125.65 Bohr mag/cell
     absolute magnetization    =   179.41 Bohr mag/cell

     iteration #  4     ecut=    50.00 Ry     beta= 0.10
     Davidson diagonalization with overlap
     ethr =  9.11E-03,  avg # of iterations =  1.5

     negative rho (up, down):  2.078E-01 1.844E-07
 
     Adding external electric field

     Computed dipole along edir(3) : 
        Dipole               -1.9725 Ry au,         -5.0136 Debye
        Dipole field         -0.0012 Ry au, 
 
        Potential amp.        0.1324 Ry
        Total length         54.2615 bohr
 
 
     Adding external electric field

     Computed dipole along edir(3) : 
        Dipole               -1.9725 Ry au,         -5.0136 Debye
        Dipole field         -0.0012 Ry au, 
 
        Potential amp.        0.1324 Ry
        Total length         54.2615 bohr
 

     total cpu time spent up to now is       82.1 secs

     total energy              =   -7326.81665809 Ry
     estimated scf accuracy    <      78.58494029 Ry

     total magnetization       =   110.70 Bohr mag/cell
     absolute magnetization    =   165.16 Bohr mag/cell

     iteration #  5     ecut=    50.00 Ry     beta= 0.10
     Davidson diagonalization with overlap
     ethr =  7.29E-03,  avg # of iterations =  1.5

     negative rho (up, down):  9.105E-03 3.715E-07
 
     Adding external electric field

     Computed dipole along edir(3) : 
        Dipole               -1.5606 Ry au,         -3.9665 Debye
        Dipole field         -0.0010 Ry au, 
 
        Potential amp.        0.1047 Ry
        Total length         54.2615 bohr
 
 
     Adding external electric field

     Computed dipole along edir(3) : 
        Dipole               -1.5606 Ry au,         -3.9665 Debye
        Dipole field         -0.0010 Ry au, 
 
        Potential amp.        0.1047 Ry
        Total length         54.2615 bohr
 

     total cpu time spent up to now is       94.3 secs

     total energy              =   -7385.48374666 Ry
     estimated scf accuracy    <      61.10635467 Ry

     total magnetization       =    88.02 Bohr mag/cell
     absolute magnetization    =   146.21 Bohr mag/cell

     iteration #  6     ecut=    50.00 Ry     beta= 0.10
     Davidson diagonalization with overlap
     ethr =  5.67E-03,  avg # of iterations =  1.5

     negative rho (up, down):  2.752E-04 2.749E-04
 
     Adding external electric field

     Computed dipole along edir(3) : 
        Dipole               -1.2244 Ry au,         -3.1122 Debye
        Dipole field         -0.0008 Ry au, 
 
        Potential amp.        0.0822 Ry
        Total length         54.2615 bohr
 
 
     Adding external electric field

     Computed dipole along edir(3) : 
        Dipole               -1.2244 Ry au,         -3.1122 Debye
        Dipole field         -0.0008 Ry au, 
 
        Potential amp.        0.0822 Ry
        Total length         54.2615 bohr
 

     total cpu time spent up to now is      108.8 secs

     total energy              =   -7395.38639109 Ry
     estimated scf accuracy    <      10.78020458 Ry

     total magnetization       =    81.92 Bohr mag/cell
     absolute magnetization    =   116.14 Bohr mag/cell

     iteration #  7     ecut=    50.00 Ry     beta= 0.10
     Davidson diagonalization with overlap
     ethr =  1.00E-03,  avg # of iterations =  5.0

     negative rho (up, down):  2.581E-04 2.707E-04
 
     Adding external electric field

     Computed dipole along edir(3) : 
        Dipole               -1.2238 Ry au,         -3.1106 Debye
        Dipole field         -0.0008 Ry au, 
 
        Potential amp.        0.0821 Ry
        Total length         54.2615 bohr
 
 
     Adding external electric field

     Computed dipole along edir(3) : 
        Dipole               -1.2238 Ry au,         -3.1106 Debye
        Dipole field         -0.0008 Ry au, 
 
        Potential amp.        0.0821 Ry
        Total length         54.2615 bohr
 

     total cpu time spent up to now is      129.4 secs

     total energy              =   -7397.60626244 Ry
     estimated scf accuracy    <      11.19316341 Ry

     total magnetization       =    71.23 Bohr mag/cell
     absolute magnetization    =    88.84 Bohr mag/cell

     iteration #  8     ecut=    50.00 Ry     beta= 0.10
     Davidson diagonalization with overlap
     ethr =  1.00E-03,  avg # of iterations =  1.0

     negative rho (up, down):  1.989E-04 2.243E-04
 
     Adding external electric field

     Computed dipole along edir(3) : 
        Dipole               -1.2027 Ry au,         -3.0568 Debye
        Dipole field         -0.0007 Ry au, 
 
        Potential amp.        0.0807 Ry
        Total length         54.2615 bohr
 
 
     Adding external electric field

     Computed dipole along edir(3) : 
        Dipole               -1.2027 Ry au,         -3.0568 Debye
        Dipole field         -0.0007 Ry au, 
 
        Potential amp.        0.0807 Ry
        Total length         54.2615 bohr
 

     total cpu time spent up to now is      141.5 secs

     total energy              =   -7397.58187429 Ry
     estimated scf accuracy    <      10.46696780 Ry

     total magnetization       =    71.57 Bohr mag/cell
     absolute magnetization    =    88.78 Bohr mag/cell

     iteration #  9     ecut=    50.00 Ry     beta= 0.10
     Davidson diagonalization with overlap
     ethr =  9.71E-04,  avg # of iterations =  1.0

     negative rho (up, down):  8.876E-05 1.672E-04
 
     Adding external electric field

     Computed dipole along edir(3) : 
        Dipole               -1.2127 Ry au,         -3.0823 Debye
        Dipole field         -0.0007 Ry au, 
 
        Potential amp.        0.0814 Ry
        Total length         54.2615 bohr
 
 
     Adding external electric field

     Computed dipole along edir(3) : 
        Dipole               -1.2127 Ry au,         -3.0823 Debye
        Dipole field         -0.0007 Ry au, 
 
        Potential amp.        0.0814 Ry
        Total length         54.2615 bohr
 

     total cpu time spent up to now is      153.8 secs

     total energy              =   -7397.46444133 Ry
     estimated scf accuracy    <       8.77846242 Ry

     total magnetization       =    71.99 Bohr mag/cell
     absolute magnetization    =    88.31 Bohr mag/cell

     iteration # 10     ecut=    50.00 Ry     beta= 0.10
     Davidson diagonalization with overlap
     ethr =  8.14E-04,  avg # of iterations =  1.5

     negative rho (up, down):  6.482E-05 2.024E-04
 
     Adding external electric field

     Computed dipole along edir(3) : 
        Dipole               -1.2102 Ry au,         -3.0759 Debye
        Dipole field         -0.0007 Ry au, 
 
        Potential amp.        0.0812 Ry
        Total length         54.2615 bohr
 
 
     Adding external electric field

     Computed dipole along edir(3) : 
        Dipole               -1.2102 Ry au,         -3.0759 Debye
        Dipole field         -0.0007 Ry au, 
 
        Potential amp.        0.0812 Ry
        Total length         54.2615 bohr
 

     total cpu time spent up to now is      165.7 secs

     total energy              =   -7397.61280369 Ry
     estimated scf accuracy    <       2.80881821 Ry

     total magnetization       =    77.09 Bohr mag/cell
     absolute magnetization    =    89.93 Bohr mag/cell

     iteration # 11     ecut=    50.00 Ry     beta= 0.10
     Davidson diagonalization with overlap
     ethr =  2.61E-04,  avg # of iterations =  2.0

     negative rho (up, down):  4.845E-05 2.302E-04
 
     Adding external electric field

     Computed dipole along edir(3) : 
        Dipole               -1.2284 Ry au,         -3.1224 Debye
        Dipole field         -0.0008 Ry au, 
 
        Potential amp.        0.0824 Ry
        Total length         54.2615 bohr
 
 
     Adding external electric field

     Computed dipole along edir(3) : 
        Dipole               -1.2284 Ry au,         -3.1224 Debye
        Dipole field         -0.0008 Ry au, 
 
        Potential amp.        0.0824 Ry
        Total length         54.2615 bohr
 

     total cpu time spent up to now is      178.4 secs

     total energy              =   -7397.65231775 Ry
     estimated scf accuracy    <       2.11411651 Ry

     total magnetization       =    77.65 Bohr mag/cell
     absolute magnetization    =    89.27 Bohr mag/cell

     iteration # 12     ecut=    50.00 Ry     beta= 0.10
     Davidson diagonalization with overlap
     ethr =  1.96E-04,  avg # of iterations = 10.5

     negative rho (up, down):  1.627E-04 5.123E-04
 
     Adding external electric field

     Computed dipole along edir(3) : 
        Dipole               -1.2511 Ry au,         -3.1801 Debye
        Dipole field         -0.0008 Ry au, 
 
        Potential amp.        0.0840 Ry
        Total length         54.2615 bohr
 
 
     Adding external electric field

     Computed dipole along edir(3) : 
        Dipole               -1.2511 Ry au,         -3.1801 Debye
        Dipole field         -0.0008 Ry au, 
 
        Potential amp.        0.0840 Ry
        Total length         54.2615 bohr
 

     total cpu time spent up to now is      196.4 secs

     total energy              =   -7397.85319116 Ry
     estimated scf accuracy    <       0.58043374 Ry

     total magnetization       =    78.96 Bohr mag/cell
     absolute magnetization    =    88.20 Bohr mag/cell

     iteration # 13     ecut=    50.00 Ry     beta= 0.10
     Davidson diagonalization with overlap
     ethr =  5.38E-05,  avg # of iterations = 16.0

     negative rho (up, down):  1.542E-04 4.770E-04
 
     Adding external electric field

     Computed dipole along edir(3) : 
        Dipole               -1.2146 Ry au,         -3.0872 Debye
        Dipole field         -0.0008 Ry au, 
 
        Potential amp.        0.0815 Ry
        Total length         54.2615 bohr
 
 
     Adding external electric field

     Computed dipole along edir(3) : 
        Dipole               -1.2146 Ry au,         -3.0872 Debye
        Dipole field         -0.0008 Ry au, 
 
        Potential amp.        0.0815 Ry
        Total length         54.2615 bohr
 

     total cpu time spent up to now is      227.3 secs

     total energy              =   -7397.95824698 Ry
     estimated scf accuracy    <       0.66228598 Ry

     total magnetization       =    80.70 Bohr mag/cell
     absolute magnetization    =    86.23 Bohr mag/cell

     iteration # 14     ecut=    50.00 Ry     beta= 0.10
     Davidson diagonalization with overlap
     ethr =  5.38E-05,  avg # of iterations =  1.0

     negative rho (up, down):  1.067E-05 1.023E-04
 
     Adding external electric field

     Computed dipole along edir(3) : 
        Dipole               -1.1344 Ry au,         -2.8834 Debye
        Dipole field         -0.0007 Ry au, 
 
        Potential amp.        0.0761 Ry
        Total length         54.2615 bohr
 
 
     Adding external electric field

     Computed dipole along edir(3) : 
        Dipole               -1.1344 Ry au,         -2.8834 Debye
        Dipole field         -0.0007 Ry au, 
 
        Potential amp.        0.0761 Ry
        Total length         54.2615 bohr
 

     total cpu time spent up to now is      238.6 secs

     total energy              =   -7397.97556490 Ry
     estimated scf accuracy    <       0.52823887 Ry

     total magnetization       =    81.56 Bohr mag/cell
     absolute magnetization    =    86.37 Bohr mag/cell

     iteration # 15     ecut=    50.00 Ry     beta= 0.10
     Davidson diagonalization with overlap
     ethr =  4.90E-05,  avg # of iterations =  1.5

     negative rho (up, down):  1.525E-05 4.710E-05
 
     Adding external electric field

     Computed dipole along edir(3) : 
        Dipole               -1.1618 Ry au,         -2.9530 Debye
        Dipole field         -0.0007 Ry au, 
 
        Potential amp.        0.0780 Ry
        Total length         54.2615 bohr
 
 
     Adding external electric field

     Computed dipole along edir(3) : 
        Dipole               -1.1618 Ry au,         -2.9530 Debye
        Dipole field         -0.0007 Ry au, 
 
        Potential amp.        0.0780 Ry
        Total length         54.2615 bohr
 

     total cpu time spent up to now is      250.9 secs

     total energy              =   -7397.98136203 Ry
     estimated scf accuracy    <       0.75257885 Ry

     total magnetization       =    79.41 Bohr mag/cell
     absolute magnetization    =    83.46 Bohr mag/cell

     iteration # 16     ecut=    50.00 Ry     beta= 0.10
     Davidson diagonalization with overlap
     ethr =  4.90E-05,  avg # of iterations =  1.0

     negative rho (up, down):  1.415E-05 8.082E-05
 
     Adding external electric field

     Computed dipole along edir(3) : 
        Dipole               -1.1517 Ry au,         -2.9274 Debye
        Dipole field         -0.0007 Ry au, 
 
        Potential amp.        0.0773 Ry
        Total length         54.2615 bohr
 
 
     Adding external electric field

     Computed dipole along edir(3) : 
        Dipole               -1.1517 Ry au,         -2.9274 Debye
        Dipole field         -0.0007 Ry au, 
 
        Potential amp.        0.0773 Ry
        Total length         54.2615 bohr
 

     total cpu time spent up to now is      262.5 secs

     total energy              =   -7397.97405737 Ry
     estimated scf accuracy    <       0.51812821 Ry

     total magnetization       =    79.96 Bohr mag/cell
     absolute magnetization    =    84.37 Bohr mag/cell

     iteration # 17     ecut=    50.00 Ry     beta= 0.10
     Davidson diagonalization with overlap
     ethr =  4.81E-05,  avg # of iterations =  1.0

     negative rho (up, down):  1.681E-05 3.568E-05
 
     Adding external electric field

     Computed dipole along edir(3) : 
        Dipole               -1.0908 Ry au,         -2.7726 Debye
        Dipole field         -0.0007 Ry au, 
 
        Potential amp.        0.0732 Ry
        Total length         54.2615 bohr
 
 
     Adding external electric field

     Computed dipole along edir(3) : 
        Dipole               -1.0908 Ry au,         -2.7726 Debye
        Dipole field         -0.0007 Ry au, 
 
        Potential amp.        0.0732 Ry
        Total length         54.2615 bohr
 

     total cpu time spent up to now is      273.7 secs

     total energy              =   -7398.02058915 Ry
     estimated scf accuracy    <       0.57237660 Ry

     total magnetization       =    80.07 Bohr mag/cell
     absolute magnetization    =    84.50 Bohr mag/cell

     iteration # 18     ecut=    50.00 Ry     beta= 0.10
     Davidson diagonalization with overlap
     ethr =  4.81E-05,  avg # of iterations =  1.0

     negative rho (up, down):  1.725E-05 5.189E-05
 
     Adding external electric field

     Computed dipole along edir(3) : 
        Dipole               -1.0419 Ry au,         -2.6483 Debye
        Dipole field         -0.0006 Ry au, 
 
        Potential amp.        0.0699 Ry
        Total length         54.2615 bohr
 
 
     Adding external electric field

     Computed dipole along edir(3) : 
        Dipole               -1.0419 Ry au,         -2.6483 Debye
        Dipole field         -0.0006 Ry au, 
 
        Potential amp.        0.0699 Ry
        Total length         54.2615 bohr
 

     total cpu time spent up to now is      285.6 secs

     total energy              =   -7398.04193200 Ry
     estimated scf accuracy    <       0.30210415 Ry

     total magnetization       =    80.95 Bohr mag/cell
     absolute magnetization    =    83.96 Bohr mag/cell

     iteration # 19     ecut=    50.00 Ry     beta= 0.10
     Davidson diagonalization with overlap
     ethr =  2.80E-05,  avg # of iterations =  1.0

     negative rho (up, down):  1.376E-04 1.462E-04
 
     Adding external electric field

     Computed dipole along edir(3) : 
        Dipole               -0.9851 Ry au,         -2.5037 Debye
        Dipole field         -0.0006 Ry au, 
 
        Potential amp.        0.0661 Ry
        Total length         54.2615 bohr
 
 
     Adding external electric field

     Computed dipole along edir(3) : 
        Dipole               -0.9851 Ry au,         -2.5037 Debye
        Dipole field         -0.0006 Ry au, 
 
        Potential amp.        0.0661 Ry
        Total length         54.2615 bohr
 

     total cpu time spent up to now is      297.1 secs

     total energy              =   -7398.03755910 Ry
     estimated scf accuracy    <       0.20644939 Ry

     total magnetization       =    80.82 Bohr mag/cell
     absolute magnetization    =    83.01 Bohr mag/cell

     iteration # 20     ecut=    50.00 Ry     beta= 0.10
     Davidson diagonalization with overlap
     ethr =  1.92E-05,  avg # of iterations =  2.0

     negative rho (up, down):  1.862E-04 1.713E-04
 
     Adding external electric field

     Computed dipole along edir(3) : 
        Dipole               -0.9671 Ry au,         -2.4582 Debye
        Dipole field         -0.0006 Ry au, 
 
        Potential amp.        0.0649 Ry
        Total length         54.2615 bohr
 
 
     Adding external electric field

     Computed dipole along edir(3) : 
        Dipole               -0.9671 Ry au,         -2.4582 Debye
        Dipole field         -0.0006 Ry au, 
 
        Potential amp.        0.0649 Ry
        Total length         54.2615 bohr
 

     total cpu time spent up to now is      309.5 secs

     total energy              =   -7398.04277612 Ry
     estimated scf accuracy    <       0.07053365 Ry

     total magnetization       =    80.53 Bohr mag/cell
     absolute magnetization    =    82.20 Bohr mag/cell

     iteration # 21     ecut=    50.00 Ry     beta= 0.10
     Davidson diagonalization with overlap
     ethr =  6.54E-06,  avg # of iterations =  2.0

     negative rho (up, down):  1.060E-04 1.265E-04
 
     Adding external electric field

     Computed dipole along edir(3) : 
        Dipole               -0.9807 Ry au,         -2.4927 Debye
        Dipole field         -0.0006 Ry au, 
 
        Potential amp.        0.0658 Ry
        Total length         54.2615 bohr
 
 
     Adding external electric field

     Computed dipole along edir(3) : 
        Dipole               -0.9807 Ry au,         -2.4927 Debye
        Dipole field         -0.0006 Ry au, 
 
        Potential amp.        0.0658 Ry
        Total length         54.2615 bohr
 

     total cpu time spent up to now is      322.3 secs

     total energy              =   -7398.04398702 Ry
     estimated scf accuracy    <       0.06735780 Ry

     total magnetization       =    80.25 Bohr mag/cell
     absolute magnetization    =    81.83 Bohr mag/cell

     iteration # 22     ecut=    50.00 Ry     beta= 0.10
     Davidson diagonalization with overlap
     ethr =  6.25E-06,  avg # of iterations =  1.5

     negative rho (up, down):  1.567E-04 1.925E-04
 
     Adding external electric field

     Computed dipole along edir(3) : 
        Dipole               -0.9241 Ry au,         -2.3487 Debye
        Dipole field         -0.0006 Ry au, 
 
        Potential amp.        0.0620 Ry
        Total length         54.2615 bohr
 
 
     Adding external electric field

     Computed dipole along edir(3) : 
        Dipole               -0.9241 Ry au,         -2.3487 Debye
        Dipole field         -0.0006 Ry au, 
 
        Potential amp.        0.0620 Ry
        Total length         54.2615 bohr
 

     total cpu time spent up to now is      334.1 secs

     total energy              =   -7398.04146272 Ry
     estimated scf accuracy    <       0.06622338 Ry

     total magnetization       =    80.48 Bohr mag/cell
     absolute magnetization    =    82.11 Bohr mag/cell

     iteration # 23     ecut=    50.00 Ry     beta= 0.10
     Davidson diagonalization with overlap
     ethr =  6.14E-06,  avg # of iterations =  2.0

     negative rho (up, down):  1.877E-04 1.951E-04
 
     Adding external electric field

     Computed dipole along edir(3) : 
        Dipole               -0.9093 Ry au,         -2.3113 Debye
        Dipole field         -0.0006 Ry au, 
 
        Potential amp.        0.0610 Ry
        Total length         54.2615 bohr
 
 
     Adding external electric field

     Computed dipole along edir(3) : 
        Dipole               -0.9093 Ry au,         -2.3113 Debye
        Dipole field         -0.0006 Ry au, 
 
        Potential amp.        0.0610 Ry
        Total length         54.2615 bohr
 

     total cpu time spent up to now is      347.2 secs

     total energy              =   -7398.04351892 Ry
     estimated scf accuracy    <       0.06383218 Ry

     total magnetization       =    79.91 Bohr mag/cell
     absolute magnetization    =    81.40 Bohr mag/cell

     iteration # 24     ecut=    50.00 Ry     beta= 0.10
     Davidson diagonalization with overlap
     ethr =  5.92E-06,  avg # of iterations =  1.5

     negative rho (up, down):  2.061E-04 1.965E-04
 
     Adding external electric field

     Computed dipole along edir(3) : 
        Dipole               -0.8938 Ry au,         -2.2717 Debye
        Dipole field         -0.0006 Ry au, 
 
        Potential amp.        0.0600 Ry
        Total length         54.2615 bohr
 
 
     Adding external electric field

     Computed dipole along edir(3) : 
        Dipole               -0.8938 Ry au,         -2.2717 Debye
        Dipole field         -0.0006 Ry au, 
 
        Potential amp.        0.0600 Ry
        Total length         54.2615 bohr
 

     total cpu time spent up to now is      358.8 secs

     total energy              =   -7398.04292824 Ry
     estimated scf accuracy    <       0.09612947 Ry

     total magnetization       =    79.84 Bohr mag/cell
     absolute magnetization    =    81.31 Bohr mag/cell

     iteration # 25     ecut=    50.00 Ry     beta= 0.10
     Davidson diagonalization with overlap
     ethr =  5.92E-06,  avg # of iterations =  2.0

     negative rho (up, down):  3.411E-04 2.323E-04
 
     Adding external electric field

     Computed dipole along edir(3) : 
        Dipole               -0.8287 Ry au,         -2.1063 Debye
        Dipole field         -0.0005 Ry au, 
 
        Potential amp.        0.0556 Ry
        Total length         54.2615 bohr
 
 
     Adding external electric field

     Computed dipole along edir(3) : 
        Dipole               -0.8287 Ry au,         -2.1063 Debye
        Dipole field         -0.0005 Ry au, 
 
        Potential amp.        0.0556 Ry
        Total length         54.2615 bohr
 

     total cpu time spent up to now is      371.3 secs

     total energy              =   -7398.03433582 Ry
     estimated scf accuracy    <       0.08574923 Ry

     total magnetization       =    79.89 Bohr mag/cell
     absolute magnetization    =    81.31 Bohr mag/cell

     iteration # 26     ecut=    50.00 Ry     beta= 0.10
     Davidson diagonalization with overlap
     ethr =  5.92E-06,  avg # of iterations =  2.0

     negative rho (up, down):  2.977E-04 1.897E-04
 
     Adding external electric field

     Computed dipole along edir(3) : 
        Dipole               -0.8183 Ry au,         -2.0800 Debye
        Dipole field         -0.0005 Ry au, 
 
        Potential amp.        0.0549 Ry
        Total length         54.2615 bohr
 
 
     Adding external electric field

     Computed dipole along edir(3) : 
        Dipole               -0.8183 Ry au,         -2.0800 Debye
        Dipole field         -0.0005 Ry au, 
 
        Potential amp.        0.0549 Ry
        Total length         54.2615 bohr
 

     total cpu time spent up to now is      384.3 secs

     total energy              =   -7398.03562455 Ry
     estimated scf accuracy    <       0.05712059 Ry

     total magnetization       =    79.88 Bohr mag/cell
     absolute magnetization    =    81.06 Bohr mag/cell

     iteration # 27     ecut=    50.00 Ry     beta= 0.10
     Davidson diagonalization with overlap
     ethr =  5.30E-06,  avg # of iterations =  1.5

     negative rho (up, down):  2.184E-04 1.703E-04
 
     Adding external electric field

     Computed dipole along edir(3) : 
        Dipole               -0.8007 Ry au,         -2.0353 Debye
        Dipole field         -0.0005 Ry au, 
 
        Potential amp.        0.0537 Ry
        Total length         54.2615 bohr
 
 
     Adding external electric field

     Computed dipole along edir(3) : 
        Dipole               -0.8007 Ry au,         -2.0353 Debye
        Dipole field         -0.0005 Ry au, 
 
        Potential amp.        0.0537 Ry
        Total length         54.2615 bohr
 

     total cpu time spent up to now is      396.9 secs

     total energy              =   -7398.03771403 Ry
     estimated scf accuracy    <       0.04346683 Ry

     total magnetization       =    80.02 Bohr mag/cell
     absolute magnetization    =    81.20 Bohr mag/cell

     iteration # 28     ecut=    50.00 Ry     beta= 0.10
     Davidson diagonalization with overlap
     c_bands:  1 eigenvalues not converged
     ethr =  4.03E-06,  avg # of iterations = 21.0

     negative rho (up, down):  1.770E-04 1.286E-04
 
     Adding external electric field

     Computed dipole along edir(3) : 
        Dipole               -0.8125 Ry au,         -2.0653 Debye
        Dipole field         -0.0005 Ry au, 
 
        Potential amp.        0.0545 Ry
        Total length         54.2615 bohr
 
 
     Adding external electric field

     Computed dipole along edir(3) : 
        Dipole               -0.8125 Ry au,         -2.0653 Debye
        Dipole field         -0.0005 Ry au, 
 
        Potential amp.        0.0545 Ry
        Total length         54.2615 bohr
 

     total cpu time spent up to now is      425.3 secs

     total energy              =   -7398.03782381 Ry
     estimated scf accuracy    <       0.04055748 Ry

     total magnetization       =    80.07 Bohr mag/cell
     absolute magnetization    =    81.29 Bohr mag/cell

     iteration # 29     ecut=    50.00 Ry     beta= 0.10
     Davidson diagonalization with overlap
     c_bands:  3 eigenvalues not converged
     ethr =  3.76E-06,  avg # of iterations = 11.0

     negative rho (up, down):  2.181E-04 1.354E-04
 
     Adding external electric field

     Computed dipole along edir(3) : 
        Dipole               -0.7841 Ry au,         -1.9930 Debye
        Dipole field         -0.0005 Ry au, 
 
        Potential amp.        0.0526 Ry
        Total length         54.2615 bohr
 
 
     Adding external electric field

     Computed dipole along edir(3) : 
        Dipole               -0.7841 Ry au,         -1.9930 Debye
        Dipole field         -0.0005 Ry au, 
 
        Potential amp.        0.0526 Ry
        Total length         54.2615 bohr
 

     total cpu time spent up to now is      442.7 secs

     total energy              =   -7398.03726774 Ry
     estimated scf accuracy    <       0.05280145 Ry

     total magnetization       =    80.42 Bohr mag/cell
     absolute magnetization    =    81.63 Bohr mag/cell

     iteration # 30     ecut=    50.00 Ry     beta= 0.10
     Davidson diagonalization with overlap
     c_bands:  1 eigenvalues not converged
     ethr =  3.76E-06,  avg # of iterations = 10.5

     negative rho (up, down):  1.711E-04 1.320E-04
 
     Adding external electric field

     Computed dipole along edir(3) : 
        Dipole               -0.8158 Ry au,         -2.0734 Debye
        Dipole field         -0.0005 Ry au, 
 
        Potential amp.        0.0547 Ry
        Total length         54.2615 bohr
 
 
     Adding external electric field

     Computed dipole along edir(3) : 
        Dipole               -0.8158 Ry au,         -2.0734 Debye
        Dipole field         -0.0005 Ry au, 
 
        Potential amp.        0.0547 Ry
        Total length         54.2615 bohr
 

     total cpu time spent up to now is      459.9 secs

     total energy              =   -7398.03979660 Ry
     estimated scf accuracy    <       0.03708545 Ry

     total magnetization       =    80.19 Bohr mag/cell
     absolute magnetization    =    81.49 Bohr mag/cell

     iteration # 31     ecut=    50.00 Ry     beta= 0.10
     Davidson diagonalization with overlap
     ethr =  3.44E-06,  avg # of iterations =  8.5

     negative rho (up, down):  2.784E-04 1.408E-04
 
     Adding external electric field

     Computed dipole along edir(3) : 
        Dipole               -0.6729 Ry au,         -1.7103 Debye
        Dipole field         -0.0004 Ry au, 
 
        Potential amp.        0.0452 Ry
        Total length         54.2615 bohr
 
 
     Adding external electric field

     Computed dipole along edir(3) : 
        Dipole               -0.6729 Ry au,         -1.7103 Debye
        Dipole field         -0.0004 Ry au, 
 
        Potential amp.        0.0452 Ry
        Total length         54.2615 bohr
 

     total cpu time spent up to now is      476.1 secs

     total energy              =   -7398.03233086 Ry
     estimated scf accuracy    <       0.04126192 Ry

     total magnetization       =    80.30 Bohr mag/cell
     absolute magnetization    =    81.61 Bohr mag/cell

     iteration # 32     ecut=    50.00 Ry     beta= 0.10
     Davidson diagonalization with overlap
     ethr =  3.44E-06,  avg # of iterations =  2.0

     negative rho (up, down):  4.708E-04 2.599E-04
 
     Adding external electric field

     Computed dipole along edir(3) : 
        Dipole               -0.6458 Ry au,         -1.6414 Debye
        Dipole field         -0.0004 Ry au, 
 
        Potential amp.        0.0433 Ry
        Total length         54.2615 bohr
 
 
     Adding external electric field

     Computed dipole along edir(3) : 
        Dipole               -0.6458 Ry au,         -1.6414 Debye
        Dipole field         -0.0004 Ry au, 
 
        Potential amp.        0.0433 Ry
        Total length         54.2615 bohr
 

     total cpu time spent up to now is      489.6 secs

     total energy              =   -7398.03117355 Ry
     estimated scf accuracy    <       0.04653809 Ry

     total magnetization       =    80.27 Bohr mag/cell
     absolute magnetization    =    81.52 Bohr mag/cell

     iteration # 33     ecut=    50.00 Ry     beta= 0.10
     Davidson diagonalization with overlap
     ethr =  3.44E-06,  avg # of iterations =  1.0

     negative rho (up, down):  1.235E-03 8.410E-04
 
     Adding external electric field

     Computed dipole along edir(3) : 
        Dipole               -0.5761 Ry au,         -1.4643 Debye
        Dipole field         -0.0004 Ry au, 
 
        Potential amp.        0.0387 Ry
        Total length         54.2615 bohr
 
 
     Adding external electric field

     Computed dipole along edir(3) : 
        Dipole               -0.5761 Ry au,         -1.4643 Debye
        Dipole field         -0.0004 Ry au, 
 
        Potential amp.        0.0387 Ry
        Total length         54.2615 bohr
 

     total cpu time spent up to now is      500.7 secs

     total energy              =   -7398.02800728 Ry
     estimated scf accuracy    <       0.03722665 Ry

     total magnetization       =    80.33 Bohr mag/cell
     absolute magnetization    =    81.53 Bohr mag/cell

     iteration # 34     ecut=    50.00 Ry     beta= 0.10
     Davidson diagonalization with overlap
     ethr =  3.44E-06,  avg # of iterations =  2.0

     negative rho (up, down):  2.481E-03 1.971E-03
 
     Adding external electric field

     Computed dipole along edir(3) : 
        Dipole               -0.4636 Ry au,         -1.1784 Debye
        Dipole field         -0.0003 Ry au, 
 
        Potential amp.        0.0311 Ry
        Total length         54.2615 bohr
 
 
     Adding external electric field

     Computed dipole along edir(3) : 
        Dipole               -0.4636 Ry au,         -1.1784 Debye
        Dipole field         -0.0003 Ry au, 
 
        Potential amp.        0.0311 Ry
        Total length         54.2615 bohr
 

     total cpu time spent up to now is      514.3 secs

     total energy              =   -7398.02953006 Ry
     estimated scf accuracy    <       0.03245793 Ry

     total magnetization       =    80.27 Bohr mag/cell
     absolute magnetization    =    81.43 Bohr mag/cell

     iteration # 35     ecut=    50.00 Ry     beta= 0.10
     Davidson diagonalization with overlap
     ethr =  3.01E-06,  avg # of iterations =  6.0

     negative rho (up, down):  3.199E-03 2.405E-03
 
     Adding external electric field

     Computed dipole along edir(3) : 
        Dipole               -0.3882 Ry au,         -0.9867 Debye
        Dipole field         -0.0002 Ry au, 
 
        Potential amp.        0.0261 Ry
        Total length         54.2615 bohr
 
 
     Adding external electric field

     Computed dipole along edir(3) : 
        Dipole               -0.3882 Ry au,         -0.9867 Debye
        Dipole field         -0.0002 Ry au, 
 
        Potential amp.        0.0261 Ry
        Total length         54.2615 bohr
 

     total cpu time spent up to now is      529.8 secs

     total energy              =   -7398.02864660 Ry
     estimated scf accuracy    <       0.03388674 Ry

     total magnetization       =    80.36 Bohr mag/cell
     absolute magnetization    =    81.53 Bohr mag/cell

     iteration # 36     ecut=    50.00 Ry     beta= 0.10
     Davidson diagonalization with overlap
     ethr =  3.01E-06,  avg # of iterations =  2.0

     negative rho (up, down):  2.041E-03 1.268E-03
 
     Adding external electric field

     Computed dipole along edir(3) : 
        Dipole               -0.2569 Ry au,         -0.6530 Debye
        Dipole field         -0.0002 Ry au, 
 
        Potential amp.        0.0172 Ry
        Total length         54.2615 bohr
 
 
     Adding external electric field

     Computed dipole along edir(3) : 
        Dipole               -0.2569 Ry au,         -0.6530 Debye
        Dipole field         -0.0002 Ry au, 
 
        Potential amp.        0.0172 Ry
        Total length         54.2615 bohr
 

     total cpu time spent up to now is      543.7 secs

     total energy              =   -7398.03305569 Ry
     estimated scf accuracy    <       0.02241054 Ry

     total magnetization       =    80.29 Bohr mag/cell
     absolute magnetization    =    81.46 Bohr mag/cell

     iteration # 37     ecut=    50.00 Ry     beta= 0.10
     Davidson diagonalization with overlap
     c_bands:  3 eigenvalues not converged
     ethr =  2.08E-06,  avg # of iterations = 12.0

     negative rho (up, down):  3.127E-03 2.588E-03
 
     Adding external electric field

     Computed dipole along edir(3) : 
        Dipole               -0.1632 Ry au,         -0.4147 Debye
        Dipole field         -0.0001 Ry au, 
 
        Potential amp.        0.0110 Ry
        Total length         54.2615 bohr
 
 
     Adding external electric field

     Computed dipole along edir(3) : 
        Dipole               -0.1632 Ry au,         -0.4147 Debye
        Dipole field         -0.0001 Ry au, 
 
        Potential amp.        0.0110 Ry
        Total length         54.2615 bohr
 

     total cpu time spent up to now is      563.5 secs

     total energy              =   -7398.03598139 Ry
     estimated scf accuracy    <       0.01029206 Ry

     total magnetization       =    80.29 Bohr mag/cell
     absolute magnetization    =    81.56 Bohr mag/cell

     iteration # 38     ecut=    50.00 Ry     beta= 0.10
     Davidson diagonalization with overlap
     ethr =  9.55E-07,  avg # of iterations =  2.0

     negative rho (up, down):  3.113E-03 2.755E-03
 
     Adding external electric field

     Computed dipole along edir(3) : 
        Dipole               -0.1235 Ry au,         -0.3139 Debye
        Dipole field         -0.0001 Ry au, 
 
        Potential amp.        0.0083 Ry
        Total length         54.2615 bohr
 
 
     Adding external electric field

     Computed dipole along edir(3) : 
        Dipole               -0.1235 Ry au,         -0.3139 Debye
        Dipole field         -0.0001 Ry au, 
 
        Potential amp.        0.0083 Ry
        Total length         54.2615 bohr
 

     total cpu time spent up to now is      576.7 secs

     total energy              =   -7398.03678741 Ry
     estimated scf accuracy    <       0.00859853 Ry

     total magnetization       =    80.27 Bohr mag/cell
     absolute magnetization    =    81.67 Bohr mag/cell

     iteration # 39     ecut=    50.00 Ry     beta= 0.10
     Davidson diagonalization with overlap
     ethr =  7.98E-07,  avg # of iterations =  2.0

     negative rho (up, down):  2.567E-03 2.337E-03
 
     Adding external electric field

     Computed dipole along edir(3) : 
        Dipole               -0.0933 Ry au,         -0.2372 Debye
        Dipole field         -0.0001 Ry au, 
 
        Potential amp.        0.0063 Ry
        Total length         54.2615 bohr
 
 
     Adding external electric field

     Computed dipole along edir(3) : 
        Dipole               -0.0933 Ry au,         -0.2372 Debye
        Dipole field         -0.0001 Ry au, 
 
        Potential amp.        0.0063 Ry
        Total length         54.2615 bohr
 

     total cpu time spent up to now is      590.3 secs

     total energy              =   -7398.03668479 Ry
     estimated scf accuracy    <       0.00565233 Ry

     total magnetization       =    80.24 Bohr mag/cell
     absolute magnetization    =    81.68 Bohr mag/cell

     iteration # 40     ecut=    50.00 Ry     beta= 0.10
     Davidson diagonalization with overlap
     ethr =  5.24E-07,  avg # of iterations =  2.0

     negative rho (up, down):  1.970E-03 1.657E-03
 
     Adding external electric field

     Computed dipole along edir(3) : 
        Dipole               -0.1089 Ry au,         -0.2769 Debye
        Dipole field         -0.0001 Ry au, 
 
        Potential amp.        0.0073 Ry
        Total length         54.2615 bohr
 
 
     Adding external electric field

     Computed dipole along edir(3) : 
        Dipole               -0.1089 Ry au,         -0.2769 Debye
        Dipole field         -0.0001 Ry au, 
 
        Potential amp.        0.0073 Ry
        Total length         54.2615 bohr
 

     total cpu time spent up to now is      603.6 secs

     total energy              =   -7398.03647875 Ry
     estimated scf accuracy    <       0.00417592 Ry

     total magnetization       =    80.26 Bohr mag/cell
     absolute magnetization    =    81.68 Bohr mag/cell

     iteration # 41     ecut=    50.00 Ry     beta= 0.10
     Davidson diagonalization with overlap
     ethr =  3.87E-07,  avg # of iterations =  2.0

     negative rho (up, down):  1.850E-03 1.481E-03
 
     Adding external electric field

     Computed dipole along edir(3) : 
        Dipole               -0.1240 Ry au,         -0.3151 Debye
        Dipole field         -0.0001 Ry au, 
 
        Potential amp.        0.0083 Ry
        Total length         54.2615 bohr
 
 
     Adding external electric field

     Computed dipole along edir(3) : 
        Dipole               -0.1240 Ry au,         -0.3151 Debye
        Dipole field         -0.0001 Ry au, 
 
        Potential amp.        0.0083 Ry
        Total length         54.2615 bohr
 

     total cpu time spent up to now is      617.5 secs

     total energy              =   -7398.03639253 Ry
     estimated scf accuracy    <       0.00343950 Ry

     total magnetization       =    80.30 Bohr mag/cell
     absolute magnetization    =    81.67 Bohr mag/cell

     iteration # 42     ecut=    50.00 Ry     beta= 0.10
     Davidson diagonalization with overlap
     ethr =  3.19E-07,  avg # of iterations =  2.0

     negative rho (up, down):  1.658E-03 1.406E-03
 
     Adding external electric field

     Computed dipole along edir(3) : 
        Dipole               -0.1352 Ry au,         -0.3436 Debye
        Dipole field         -0.0001 Ry au, 
 
        Potential amp.        0.0091 Ry
        Total length         54.2615 bohr
 
 
     Adding external electric field

     Computed dipole along edir(3) : 
        Dipole               -0.1352 Ry au,         -0.3436 Debye
        Dipole field         -0.0001 Ry au, 
 
        Potential amp.        0.0091 Ry
        Total length         54.2615 bohr
 

     total cpu time spent up to now is      630.6 secs

     total energy              =   -7398.03658189 Ry
     estimated scf accuracy    <       0.00283081 Ry

     total magnetization       =    80.31 Bohr mag/cell
     absolute magnetization    =    81.69 Bohr mag/cell

     iteration # 43     ecut=    50.00 Ry     beta= 0.10
     Davidson diagonalization with overlap
     ethr =  2.63E-07,  avg # of iterations =  2.0

     negative rho (up, down):  1.234E-03 1.140E-03
 
     Adding external electric field

     Computed dipole along edir(3) : 
        Dipole               -0.1439 Ry au,         -0.3658 Debye
        Dipole field         -0.0001 Ry au, 
 
        Potential amp.        0.0097 Ry
        Total length         54.2615 bohr
 
 
     Adding external electric field

     Computed dipole along edir(3) : 
        Dipole               -0.1439 Ry au,         -0.3658 Debye
        Dipole field         -0.0001 Ry au, 
 
        Potential amp.        0.0097 Ry
        Total length         54.2615 bohr
 

     total cpu time spent up to now is      644.1 secs

     total energy              =   -7398.03697909 Ry
     estimated scf accuracy    <       0.00229848 Ry

     total magnetization       =    80.32 Bohr mag/cell
     absolute magnetization    =    81.73 Bohr mag/cell

     iteration # 44     ecut=    50.00 Ry     beta= 0.10
     Davidson diagonalization with overlap
     ethr =  2.13E-07,  avg # of iterations =  2.0

     negative rho (up, down):  7.956E-04 7.658E-04
 
     Adding external electric field

     Computed dipole along edir(3) : 
        Dipole               -0.1616 Ry au,         -0.4107 Debye
        Dipole field         -0.0001 Ry au, 
 
        Potential amp.        0.0108 Ry
        Total length         54.2615 bohr
 
 
     Adding external electric field

     Computed dipole along edir(3) : 
        Dipole               -0.1616 Ry au,         -0.4107 Debye
        Dipole field         -0.0001 Ry au, 
 
        Potential amp.        0.0108 Ry
        Total length         54.2615 bohr
 

     total cpu time spent up to now is      657.6 secs

     total energy              =   -7398.03714346 Ry
     estimated scf accuracy    <       0.00189902 Ry

     total magnetization       =    80.33 Bohr mag/cell
     absolute magnetization    =    81.77 Bohr mag/cell

     iteration # 45     ecut=    50.00 Ry     beta= 0.10
     Davidson diagonalization with overlap
     ethr =  1.76E-07,  avg # of iterations =  2.0

     negative rho (up, down):  2.519E-04 2.484E-04
 
     Adding external electric field

     Computed dipole along edir(3) : 
        Dipole               -0.1974 Ry au,         -0.5018 Debye
        Dipole field         -0.0001 Ry au, 
 
        Potential amp.        0.0132 Ry
        Total length         54.2615 bohr
 
 
     Adding external electric field

     Computed dipole along edir(3) : 
        Dipole               -0.1974 Ry au,         -0.5018 Debye
        Dipole field         -0.0001 Ry au, 
 
        Potential amp.        0.0132 Ry
        Total length         54.2615 bohr
 

     total cpu time spent up to now is      672.1 secs

     total energy              =   -7398.03715917 Ry
     estimated scf accuracy    <       0.00151390 Ry

     total magnetization       =    80.32 Bohr mag/cell
     absolute magnetization    =    81.80 Bohr mag/cell

     iteration # 46     ecut=    50.00 Ry     beta= 0.10
     Davidson diagonalization with overlap
     ethr =  1.40E-07,  avg # of iterations =  2.0

     negative rho (up, down):  1.783E-05 1.238E-05
 
     Adding external electric field

     Computed dipole along edir(3) : 
        Dipole               -0.2275 Ry au,         -0.5783 Debye
        Dipole field         -0.0001 Ry au, 
 
        Potential amp.        0.0153 Ry
        Total length         54.2615 bohr
 
 
     Adding external electric field

     Computed dipole along edir(3) : 
        Dipole               -0.2275 Ry au,         -0.5783 Debye
        Dipole field         -0.0001 Ry au, 
 
        Potential amp.        0.0153 Ry
        Total length         54.2615 bohr
 

     total cpu time spent up to now is      685.5 secs

     total energy              =   -7398.03719125 Ry
     estimated scf accuracy    <       0.00109146 Ry

     total magnetization       =    80.32 Bohr mag/cell
     absolute magnetization    =    81.81 Bohr mag/cell

     iteration # 47     ecut=    50.00 Ry     beta= 0.10
     Davidson diagonalization with overlap
     ethr =  1.01E-07,  avg # of iterations =  2.0

     negative rho (up, down):  1.944E-06 4.309E-07
 
     Adding external electric field

     Computed dipole along edir(3) : 
        Dipole               -0.2400 Ry au,         -0.6100 Debye
        Dipole field         -0.0001 Ry au, 
 
        Potential amp.        0.0161 Ry
        Total length         54.2615 bohr
 
 
     Adding external electric field

     Computed dipole along edir(3) : 
        Dipole               -0.2400 Ry au,         -0.6100 Debye
        Dipole field         -0.0001 Ry au, 
 
        Potential amp.        0.0161 Ry
        Total length         54.2615 bohr
 

     total cpu time spent up to now is      698.7 secs

     total energy              =   -7398.03719881 Ry
     estimated scf accuracy    <       0.00070057 Ry

     total magnetization       =    80.32 Bohr mag/cell
     absolute magnetization    =    81.83 Bohr mag/cell

     iteration # 48     ecut=    50.00 Ry     beta= 0.10
     Davidson diagonalization with overlap
     ethr =  6.50E-08,  avg # of iterations =  2.0

     negative rho (up, down):  1.904E-05 6.621E-06
 
     Adding external electric field

     Computed dipole along edir(3) : 
        Dipole               -0.2406 Ry au,         -0.6116 Debye
        Dipole field         -0.0001 Ry au, 
 
        Potential amp.        0.0161 Ry
        Total length         54.2615 bohr
 
 
     Adding external electric field

     Computed dipole along edir(3) : 
        Dipole               -0.2406 Ry au,         -0.6116 Debye
        Dipole field         -0.0001 Ry au, 
 
        Potential amp.        0.0161 Ry
        Total length         54.2615 bohr
 

     total cpu time spent up to now is      712.0 secs

     total energy              =   -7398.03724643 Ry
     estimated scf accuracy    <       0.00049452 Ry

     total magnetization       =    80.32 Bohr mag/cell
     absolute magnetization    =    81.83 Bohr mag/cell

     iteration # 49     ecut=    50.00 Ry     beta= 0.10
     Davidson diagonalization with overlap
     ethr =  4.59E-08,  avg # of iterations = 13.0

     negative rho (up, down):  7.733E-05 3.790E-05
 
     Adding external electric field

     Computed dipole along edir(3) : 
        Dipole               -0.2323 Ry au,         -0.5904 Debye
        Dipole field         -0.0001 Ry au, 
 
        Potential amp.        0.0156 Ry
        Total length         54.2615 bohr
 
 
     Adding external electric field

     Computed dipole along edir(3) : 
        Dipole               -0.2323 Ry au,         -0.5904 Debye
        Dipole field         -0.0001 Ry au, 
 
        Potential amp.        0.0156 Ry
        Total length         54.2615 bohr
 

     total cpu time spent up to now is      730.3 secs

     total energy              =   -7398.03729264 Ry
     estimated scf accuracy    <       0.00036290 Ry

     total magnetization       =    80.31 Bohr mag/cell
     absolute magnetization    =    81.85 Bohr mag/cell

     iteration # 50     ecut=    50.00 Ry     beta= 0.10
     Davidson diagonalization with overlap
     ethr =  3.37E-08,  avg # of iterations =  2.0

     negative rho (up, down):  1.703E-04 9.687E-05
 
     Adding external electric field

     Computed dipole along edir(3) : 
        Dipole               -0.2261 Ry au,         -0.5747 Debye
        Dipole field         -0.0001 Ry au, 
 
        Potential amp.        0.0152 Ry
        Total length         54.2615 bohr
 
 
     Adding external electric field

     Computed dipole along edir(3) : 
        Dipole               -0.2261 Ry au,         -0.5747 Debye
        Dipole field         -0.0001 Ry au, 
 
        Potential amp.        0.0152 Ry
        Total length         54.2615 bohr
 

     total cpu time spent up to now is      743.0 secs

     total energy              =   -7398.03730443 Ry
     estimated scf accuracy    <       0.00031546 Ry

     total magnetization       =    80.32 Bohr mag/cell
     absolute magnetization    =    81.86 Bohr mag/cell

     iteration # 51     ecut=    50.00 Ry     beta= 0.10
     Davidson diagonalization with overlap
     ethr =  2.93E-08,  avg # of iterations =  1.5

     negative rho (up, down):  1.976E-04 1.060E-04
 
     Adding external electric field

     Computed dipole along edir(3) : 
        Dipole               -0.2211 Ry au,         -0.5619 Debye
        Dipole field         -0.0001 Ry au, 
 
        Potential amp.        0.0148 Ry
        Total length         54.2615 bohr
 
 
     Adding external electric field

     Computed dipole along edir(3) : 
        Dipole               -0.2211 Ry au,         -0.5619 Debye
        Dipole field         -0.0001 Ry au, 
 
        Potential amp.        0.0148 Ry
        Total length         54.2615 bohr
 

     total cpu time spent up to now is      755.6 secs

     total energy              =   -7398.03730871 Ry
     estimated scf accuracy    <       0.00030131 Ry

     total magnetization       =    80.32 Bohr mag/cell
     absolute magnetization    =    81.86 Bohr mag/cell

     iteration # 52     ecut=    50.00 Ry     beta= 0.10
     Davidson diagonalization with overlap
     ethr =  2.80E-08,  avg # of iterations =  2.0

     negative rho (up, down):  1.181E-04 4.732E-05
 
     Adding external electric field

     Computed dipole along edir(3) : 
        Dipole               -0.2167 Ry au,         -0.5509 Debye
        Dipole field         -0.0001 Ry au, 
 
        Potential amp.        0.0145 Ry
        Total length         54.2615 bohr
 
 
     Adding external electric field

     Computed dipole along edir(3) : 
        Dipole               -0.2167 Ry au,         -0.5509 Debye
        Dipole field         -0.0001 Ry au, 
 
        Potential amp.        0.0145 Ry
        Total length         54.2615 bohr
 

     total cpu time spent up to now is      768.8 secs

     total energy              =   -7398.03730818 Ry
     estimated scf accuracy    <       0.00030520 Ry

     total magnetization       =    80.33 Bohr mag/cell
     absolute magnetization    =    81.86 Bohr mag/cell

     iteration # 53     ecut=    50.00 Ry     beta= 0.10
     Davidson diagonalization with overlap
     ethr =  2.80E-08,  avg # of iterations =  2.0

     negative rho (up, down):  1.250E-04 5.108E-05
 
     Adding external electric field

     Computed dipole along edir(3) : 
        Dipole               -0.2184 Ry au,         -0.5550 Debye
        Dipole field         -0.0001 Ry au, 
 
        Potential amp.        0.0147 Ry
        Total length         54.2615 bohr
 
 
     Adding external electric field

     Computed dipole along edir(3) : 
        Dipole               -0.2184 Ry au,         -0.5550 Debye
        Dipole field         -0.0001 Ry au, 
 
        Potential amp.        0.0147 Ry
        Total length         54.2615 bohr
 

     total cpu time spent up to now is      782.5 secs

     total energy              =   -7398.03730914 Ry
     estimated scf accuracy    <       0.00031695 Ry

     total magnetization       =    80.32 Bohr mag/cell
     absolute magnetization    =    81.85 Bohr mag/cell

     iteration # 54     ecut=    50.00 Ry     beta= 0.10
     Davidson diagonalization with overlap
     ethr =  2.80E-08,  avg # of iterations =  1.0

     negative rho (up, down):  2.416E-04 1.336E-04
 
     Adding external electric field

     Computed dipole along edir(3) : 
        Dipole               -0.2099 Ry au,         -0.5334 Debye
        Dipole field         -0.0001 Ry au, 
 
        Potential amp.        0.0141 Ry
        Total length         54.2615 bohr
 
 
     Adding external electric field

     Computed dipole along edir(3) : 
        Dipole               -0.2099 Ry au,         -0.5334 Debye
        Dipole field         -0.0001 Ry au, 
 
        Potential amp.        0.0141 Ry
        Total length         54.2615 bohr
 

     total cpu time spent up to now is      794.3 secs

     total energy              =   -7398.03731406 Ry
     estimated scf accuracy    <       0.00033619 Ry

     total magnetization       =    80.32 Bohr mag/cell
     absolute magnetization    =    81.85 Bohr mag/cell

     iteration # 55     ecut=    50.00 Ry     beta= 0.10
     Davidson diagonalization with overlap
     ethr =  2.80E-08,  avg # of iterations =  1.5

     negative rho (up, down):  3.042E-04 1.948E-04
 
     Adding external electric field

     Computed dipole along edir(3) : 
        Dipole               -0.2149 Ry au,         -0.5462 Debye
        Dipole field         -0.0001 Ry au, 
 
        Potential amp.        0.0144 Ry
        Total length         54.2615 bohr
 
 
     Adding external electric field

     Computed dipole along edir(3) : 
        Dipole               -0.2149 Ry au,         -0.5462 Debye
        Dipole field         -0.0001 Ry au, 
 
        Potential amp.        0.0144 Ry
        Total length         54.2615 bohr
 

     total cpu time spent up to now is      806.9 secs

     total energy              =   -7398.03730713 Ry
     estimated scf accuracy    <       0.00030922 Ry

     total magnetization       =    80.32 Bohr mag/cell
     absolute magnetization    =    81.85 Bohr mag/cell

     iteration # 56     ecut=    50.00 Ry     beta= 0.10
     Davidson diagonalization with overlap
     ethr =  2.80E-08,  avg # of iterations =  2.0

     negative rho (up, down):  1.787E-04 8.701E-05
 
     Adding external electric field

     Computed dipole along edir(3) : 
        Dipole               -0.2108 Ry au,         -0.5357 Debye
        Dipole field         -0.0001 Ry au, 
 
        Potential amp.        0.0141 Ry
        Total length         54.2615 bohr
 
 
     Adding external electric field

     Computed dipole along edir(3) : 
        Dipole               -0.2108 Ry au,         -0.5357 Debye
        Dipole field         -0.0001 Ry au, 
 
        Potential amp.        0.0141 Ry
        Total length         54.2615 bohr
 

     total cpu time spent up to now is      819.9 secs

     total energy              =   -7398.03731574 Ry
     estimated scf accuracy    <       0.00028878 Ry

     total magnetization       =    80.32 Bohr mag/cell
     absolute magnetization    =    81.85 Bohr mag/cell

     iteration # 57     ecut=    50.00 Ry     beta= 0.10
     Davidson diagonalization with overlap
     ethr =  2.68E-08,  avg # of iterations =  1.5

     negative rho (up, down):  3.122E-04 1.988E-04
 
     Adding external electric field

     Computed dipole along edir(3) : 
        Dipole               -0.2129 Ry au,         -0.5411 Debye
        Dipole field         -0.0001 Ry au, 
 
        Potential amp.        0.0143 Ry
        Total length         54.2615 bohr
 
 
     Adding external electric field

     Computed dipole along edir(3) : 
        Dipole               -0.2129 Ry au,         -0.5411 Debye
        Dipole field         -0.0001 Ry au, 
 
        Potential amp.        0.0143 Ry
        Total length         54.2615 bohr
 

     total cpu time spent up to now is      832.6 secs

     total energy              =   -7398.03731312 Ry
     estimated scf accuracy    <       0.00028257 Ry

     total magnetization       =    80.32 Bohr mag/cell
     absolute magnetization    =    81.85 Bohr mag/cell

     iteration # 58     ecut=    50.00 Ry     beta= 0.10
     Davidson diagonalization with overlap
     ethr =  2.62E-08,  avg # of iterations =  2.0

     negative rho (up, down):  2.391E-04 1.379E-04
 
     Adding external electric field

     Computed dipole along edir(3) : 
        Dipole               -0.2118 Ry au,         -0.5383 Debye
        Dipole field         -0.0001 Ry au, 
 
[...]
    -5.9978  -5.9741  -5.9470  -5.9375  -5.8946  -5.8941  -5.8611  -5.8545
    -5.8112  -5.7944  -5.7588  -5.7326  -5.7284  -5.7200  -5.6967  -5.6849
    -5.6765  -5.6649  -5.6439  -5.6250  -5.6192  -5.5941  -5.5495  -5.5072
    -5.4743  -5.4398  -5.4210  -5.3962  -5.3839  -5.3466  -5.3269  -5.2881
    -5.2424  -5.2157  -5.1920  -5.1804  -5.1668  -5.0804  -5.0762  -5.0550
    -4.9858  -4.9796  -4.9454  -4.9112  -4.8945  -4.8775  -4.8644  -4.8050
    -4.7790  -4.7652  -4.7400  -4.7303  -4.6446  -4.6409  -4.5730  -4.5607
    -4.5427  -4.5188  -4.4775  -4.4618  -4.4289  -4.3945  -4.3822  -4.3714
    -4.3417  -4.2943  -4.2838  -4.2212  -4.1748  -4.1519  -4.1343  -4.0886
    -4.0793  -4.0420  -4.0296  -4.0078  -3.9593  -3.9522  -3.9153  -3.9028
    -3.8956  -3.8503  -3.8318  -3.8176  -3.7950  -3.7709  -3.7423  -3.7325
    -3.7092  -3.6986  -3.6601  -3.6470  -3.6396  -3.6246  -3.6160  -3.5803
    -3.5490  -3.5273  -3.5236  -3.5201  -3.5018  -3.4835  -3.4443  -3.4355
    -3.4210  -3.4022  -3.3922  -3.3458  -3.3327  -3.3093  -3.2846  -3.2513
    -3.2402  -3.2150  -3.2038  -3.1860  -3.1723  -3.1654  -3.1552  -3.1454
    -3.1348  -3.0716  -3.0405  -3.0334  -3.0206  -2.9992  -2.9695  -2.9519
    -2.9335  -2.9107  -2.8997  -2.8710  -2.8596  -2.8489  -2.8262  -2.8161
    -2.7941  -2.7868  -2.7844  -2.7552  -2.7499  -2.7438  -2.7307  -2.6959
    -2.6863  -2.6780  -2.6540  -2.6411  -2.6303  -2.6184  -2.6004  -2.5767
    -2.5526  -2.5437  -2.5308  -2.4957  -2.4869  -2.4810  -2.4746  -2.4413
    -2.4238  -2.4025  -2.3948  -2.3682  -2.3492  -2.3207  -2.3014  -2.2874
    -2.2604  -2.2456  -2.2401  -2.2021  -2.1848  -2.1526  -2.1322  -2.1245
    -2.1057  -2.0947  -2.0782  -2.0742  -2.0652  -2.0534  -2.0082  -1.9922
    -1.9810  -1.9722  -1.9578  -1.9417  -1.9280  -1.9172  -1.8910  -1.8621
    -1.8345  -1.8158  -1.7901  -1.7689  -1.7458  -1.7351  -1.6980  -1.6949
    -1.6868  -1.6527  -1.6371  -1.6269  -1.6139  -1.6066  -1.5828  -1.5504
    -1.5399  -1.5286  -1.4910  -1.4732  -1.4468  -1.4342  -1.4281  -1.4242
    -1.4072  -1.3785  -1.3246  -1.3181  -1.2954  -1.2490  -1.2370  -1.2122
    -1.1517  -1.1032  -1.0786  -1.0486  -1.0096  -0.9224  -0.8990  -0.8722
    -0.7801  -0.6694  -0.6094  -0.5964  -0.4592  -0.3626  -0.3327  -0.2549
     0.1020   0.1226   0.1568   0.1901   0.2308   0.2435   0.2580   0.2619
     0.2761   0.2851   0.2989   0.3025   0.3092   0.3282   0.3443   0.3460
     0.3529   0.3544   0.3728   0.3790   0.3857   0.3884   0.3938   0.4044
     0.4161   0.4182   0.4253   0.4386   0.4468   0.4473   0.4574   0.4618
     0.4660   0.4749   0.4770   0.4822   0.4962   0.4996   0.5078   0.5134
     0.5166   0.5298   0.5384   0.5488   0.5537   0.5576   0.5622   0.5711
     0.5834   0.5871   0.5986   0.6033   0.6096   0.6159   0.6221   0.6334
     0.6408   0.6555   0.6664   0.6751   0.6771   0.6812   0.6859   0.6909
     0.6980   0.7066   0.7098   0.7181   0.7198   0.7405   0.7437   0.7475
     0.7512   0.7547   0.7806   0.7864   0.7910   0.7989   0.8029   0.8179
     0.8273   0.8349   0.8470   0.8518   0.8642   0.8674   0.8798   0.8823
     0.8971   0.9159   0.9236   0.9302   0.9553   0.9891   0.9905   1.0390
     1.0759   1.1397   1.5994   1.6620   1.7000   1.7045   1.7176   1.7431
     1.7523   1.8394   1.8651   1.8825   1.8936   1.9333   1.9395   1.9633
     1.9895   1.9927   2.0103   2.0234   2.0423   2.0684   2.0821   2.1275
     2.1525   2.1543   2.1749   2.1996   2.2118   2.2155   2.2239   2.2320
     2.2482   2.2555   2.2620   2.2819   2.2909   2.3002   2.3155   2.3250
     2.3351   2.3507   2.3759   2.3909   2.4016   2.4090   2.4215   2.4440
     2.4475   2.4674   2.4775   2.4952   2.5074   2.5214   2.5407   2.5497
     2.5755   2.5887   2.6104   2.6354   2.6711   2.7272   2.7342   2.7632
     2.7909   2.8238   2.8393   2.9082   2.9361   3.4740   3.5944   3.6402
     3.6689   3.7646   3.8321   3.8477   3.8656   4.0056   4.0691   4.4944
     4.6082   4.6504   4.7754   4.9274   4.9501   5.0245   5.4189   6.2977
     6.3634   6.5469   6.5847   6.7714   6.8313   6.8585   6.8712   6.9368
     6.9899   7.0704   7.1085   7.1667   7.2823   7.3266   7.3657   7.4744
     7.5033   7.5531   7.6419   7.6677   7.6913   7.7330   7.7887   7.8043
     7.8510   7.9230   7.9395   7.9949   8.0104   8.0313   8.0503   8.0685
     8.0961   8.1087   8.1582   8.2019   8.2400   8.2556   8.2975   8.3299
     8.3688   8.3967   8.4272   8.4450   8.4616   8.4763   8.4952   8.5110
     8.5423   8.5536   8.5781   8.6114   8.6173   8.6507   8.6539   8.6890
     8.7019   8.7585   8.7799   8.7979   8.8176   8.8431   8.8869

     the Fermi energy is     1.5693 ev

!    total energy              =   -7398.03736437 Ry
     estimated scf accuracy    <       0.00000100 Ry
     smearing contrib. (-TS)   =      -0.01457493 Ry
     internal energy E=F+TS    =   -7398.02278944 Ry

     The total energy is F=E-TS. E is the sum of the following terms:
     one-electron contribution =  -91735.03686470 Ry
     hartree contribution      =   46515.35311726 Ry
     xc contribution           =   -2260.25979497 Ry
     ewald contribution        =   40083.75449022 Ry
     Dispersion Correction     =      -1.83374822 Ry
     electric field correction =       0.00001096 Ry

     total magnetization       =    80.31 Bohr mag/cell
     absolute magnetization    =    81.85 Bohr mag/cell

     convergence has been achieved in  90 iterations

     negative rho (up, down):  9.279E-04 5.464E-04

     Forces acting on atoms (cartesian axes, Ry/au):

     atom    1 type  2   force =     0.03095251   -0.01964188   -0.01636448
     atom    2 type  1   force =     0.00211990   -0.00395589   -0.01074517
     atom    3 type  1   force =    -0.02161017   -0.02073067    0.01809146
     atom    4 type  1   force =     0.00141412    0.01020266   -0.01278545
     atom    5 type  1   force =    -0.00474530    0.02899279   -0.01858614
     atom    6 type  1   force =     0.00584314    0.00055742   -0.00055762
     atom    7 type  1   force =     0.02697116   -0.02093510    0.01733072
     atom    8 type  1   force =    -0.00955382   -0.00302888   -0.01113948
     atom    9 type  1   force =    -0.02980639   -0.01829247    0.01607071
     atom   10 type  1   force =    -0.00113250    0.00803099   -0.01306718
     atom   11 type  1   force =    -0.01320077    0.03041735   -0.02078701
     atom   12 type  1   force =     0.00130778    0.00657104   -0.00418153
     atom   13 type  3   force =     0.05101983   -0.11007655    0.00915036
     atom   14 type  3   force =    -0.02902781    0.03593899   -0.06520098
     atom   15 type  3   force =    -0.00920426    0.17549851   -0.08319993
     atom   16 type  3   force =     0.06069157    0.00062024   -0.00447504
     atom   17 type  4   force =     0.01518636   -0.02184093   -0.00980014
     atom   18 type  4   force =    -0.00541122    0.00482939    0.02966157
     atom   19 type  4   force =     0.00215376    0.00102062    0.03075571
     atom   20 type  4   force =     0.00515337    0.00185648    0.00238328
     atom   21 type  4   force =     0.00054610   -0.01199075    0.00000997
     atom   22 type  4   force =    -0.00092442    0.00385927    0.03251008
     atom   23 type  4   force =    -0.00607454    0.01465664    0.02743710
     atom   24 type  4   force =     0.00870602    0.00317037   -0.00417754
     atom   25 type  4   force =     0.00651351   -0.00324202    0.00158050
     atom   26 type  4   force =     0.03118165   -0.17831753    0.00722932
     atom   27 type  4   force =     0.00283998    0.00098630    0.00172643
     atom   28 type  4   force =    -0.01704668    0.00167737    0.00473687
     atom   29 type  4   force =     0.09137099    0.00314419    0.00804544
     atom   30 type  4   force =     0.01305801   -0.02515941   -0.00091211
     atom   31 type  4   force =    -0.03846890    0.13342894   -0.00014983
     atom   32 type  4   force =    -0.00547409   -0.01184856    0.00653377
     atom   33 type  3   force =     0.04156474   -0.11925494    0.00958637
     atom   34 type  3   force =    -0.10168809    0.04259326   -0.07576963
     atom   35 type  3   force =    -0.01351169    0.16599659   -0.08813705
     atom   36 type  3   force =    -0.00360068    0.00264264   -0.01053289
     atom   37 type  4   force =     0.00823023   -0.01468620   -0.00239416
     atom   38 type  4   force =    -0.00586254   -0.00169933    0.02742015
     atom   39 type  4   force =    -0.00467457    0.00726025    0.03218704
     atom   40 type  4   force =     0.00131118    0.00001189    0.00249462
     atom   41 type  4   force =    -0.00153356   -0.00961820   -0.00148258
     atom   42 type  4   force =     0.00542395   -0.00053423    0.02933785
     atom   43 type  4   force =    -0.01044455    0.01349070    0.02705794
     atom   44 type  4   force =     0.00448926    0.00342631   -0.00435209
     atom   45 type  4   force =    -0.00028703   -0.00061987    0.00204498
     atom   46 type  4   force =     0.02817200   -0.17055604    0.00539263
     atom   47 type  4   force =    -0.06556152   -0.00075088   -0.00307348
     atom   48 type  4   force =    -0.01988060    0.00391997    0.00529077
     atom   49 type  4   force =     0.01410450    0.00084797    0.00203283
     atom   50 type  4   force =     0.00792801   -0.02438833   -0.00017098
     atom   51 type  4   force =    -0.03976804    0.13341731   -0.00131825
     atom   52 type  4   force =    -0.00774352   -0.01063833    0.00878184
     atom   53 type  2   force =     0.00630617   -0.00730704    0.00574979
     atom   54 type  1   force =     0.00042877   -0.00397600    0.00848131
     atom   55 type  1   force =     0.00494558   -0.00628728    0.00665093
     atom   56 type  1   force =    -0.00057897    0.00744408   -0.00109825
     atom   57 type  1   force =     0.00059718    0.02191743   -0.01392616
     atom   58 type  1   force =     0.00132113   -0.00320037    0.00264398
     atom   59 type  1   force =     0.00248729   -0.01013857    0.00390822
     atom   60 type  1   force =    -0.00801479   -0.00425405    0.00631293
     atom   61 type  1   force =    -0.00476225   -0.00502669    0.00658665
     atom   62 type  1   force =    -0.00303813    0.00587325   -0.00097783
     atom   63 type  1   force =    -0.01101598    0.02501561   -0.01742675
     atom   64 type  1   force =    -0.00207039    0.00129110   -0.00059540
     atom   65 type  3   force =     0.04596030   -0.12120874    0.01728789
     atom   66 type  3   force =     0.00146277   -0.00420518    0.00048866
     atom   67 type  3   force =    -0.04064964    0.12349162   -0.00708389
     atom   68 type  3   force =     0.06302983    0.00001642    0.00882682
     atom   69 type  4   force =     0.01305716   -0.01670569   -0.00240866
     atom   70 type  4   force =    -0.00168163    0.00333833   -0.00058371
     atom   71 type  4   force =    -0.00185056    0.00348691    0.00534533
     atom   72 type  4   force =     0.00481649    0.00119903    0.00112000
     atom   73 type  4   force =     0.00813805   -0.01718117    0.01185124
     atom   74 type  4   force =    -0.00425897   -0.00349567    0.00933185
     atom   75 type  4   force =     0.00357403    0.00868383    0.00460904
     atom   76 type  4   force =     0.00565456    0.00025130    0.00055602
     atom   77 type  4   force =     0.00603170   -0.00224348   -0.00115262
     atom   78 type  4   force =     0.04535587   -0.14071196    0.00576974
     atom   79 type  4   force =     0.00064663    0.00019672   -0.00059772
     atom   80 type  4   force =     0.00150428    0.00191670    0.00225141
     atom   81 type  4   force =     0.06740815    0.00005733    0.00645478
     atom   82 type  4   force =     0.00023041    0.00225199    0.00131889
     atom   83 type  4   force =    -0.03929036    0.13796135   -0.00240549
     atom   84 type  4   force =    -0.00165002   -0.01025430    0.00329406
     atom   85 type  3   force =     0.03897943   -0.12511340    0.02575205
     atom   86 type  3   force =    -0.06321244   -0.00150381   -0.00368568
     atom   87 type  3   force =    -0.04613755    0.12073104   -0.01064106
     atom   88 type  3   force =    -0.00054320   -0.00007591    0.00132469
     atom   89 type  4   force =     0.00871810   -0.01513787   -0.00521297
     atom   90 type  4   force =    -0.00456571    0.00097578   -0.00092667
     atom   91 type  4   force =    -0.00951915    0.00843118    0.00563975
     atom   92 type  4   force =     0.00029807   -0.00013788    0.00064178
     atom   93 type  4   force =     0.00143982   -0.01152350    0.00028048
     atom   94 type  4   force =    -0.00905017   -0.00297951    0.00825571
     atom   95 type  4   force =    -0.00029314    0.00776491    0.00306019
     atom   96 type  4   force =    -0.00025237    0.00157282   -0.00075843
     atom   97 type  4   force =    -0.00134099    0.00151870    0.00047582
     atom   98 type  4   force =     0.04062683   -0.13911016    0.00485967
     atom   99 type  4   force =    -0.06746259   -0.00102317   -0.00534093
     atom  100 type  4   force =    -0.00047767    0.00285707    0.00293193
     atom  101 type  4   force =    -0.00113157    0.00001902    0.00147766
     atom  102 type  4   force =    -0.00692033    0.00533479    0.00157125
     atom  103 type  4   force =    -0.03998920    0.13610154   -0.00420305
     atom  104 type  4   force =    -0.00578239   -0.00974038    0.00501483
     atom  105 type  2   force =     0.00025558   -0.00026230   -0.00047108
     atom  106 type  1   force =     0.00018148   -0.00041975   -0.00021620
     atom  107 type  1   force =     0.00011383   -0.00004487    0.00049032
     atom  108 type  1   force =    -0.00002191   -0.00039038   -0.00037676
     atom  109 type  1   force =     0.00015224   -0.00023245   -0.00014595
     atom  110 type  1   force =     0.00035816    0.00052519   -0.00024391
     atom  111 type  1   force =     0.00020395   -0.00041478    0.00019791
     atom  112 type  1   force =     0.00200603    0.00141934   -0.00198495
     atom  113 type  1   force =     0.00012161    0.00008117    0.00011142
     atom  114 type  1   force =    -0.00011625   -0.00055594    0.00002773
     atom  115 type  1   force =     0.00001200   -0.00024029    0.00026562
     atom  116 type  1   force =    -0.00023250   -0.00005640   -0.00013967
     atom  117 type  3   force =    -0.00013461   -0.00019471   -0.00032260
     atom  118 type  3   force =     0.00017183    0.00014809    0.00004341
     atom  119 type  3   force =    -0.00024757   -0.00038479    0.00019306
     atom  120 type  3   force =     0.00030598   -0.00010091   -0.00034747
     atom  121 type  4   force =     0.00016437    0.00055517   -0.00047434
     atom  122 type  4   force =    -0.00025245   -0.00025765    0.00006656
     atom  123 type  4   force =     0.00016692   -0.00006274   -0.00016387
     atom  124 type  4   force =    -0.00070196    0.00015328   -0.00040069
     atom  125 type  4   force =     0.00008575   -0.00002755   -0.00017345
     atom  126 type  4   force =     0.00000349   -0.00005116    0.00027152
     atom  127 type  4   force =    -0.00000984   -0.00004850   -0.00011469
     atom  128 type  4   force =    -0.00005402    0.00025983    0.00032657
     atom  129 type  4   force =    -0.00052650    0.00000522    0.00004585
     atom  130 type  4   force =    -0.00006398   -0.00007997    0.00010210
     atom  131 type  4   force =    -0.00016869   -0.00006565   -0.00002673
     atom  132 type  4   force =     0.00041336    0.00019928   -0.00005941
     atom  133 type  4   force =    -0.00022542   -0.00054469   -0.00008141
     atom  134 type  4   force =    -0.00012657    0.00012277    0.00032255
     atom  135 type  4   force =    -0.00005774   -0.00040502   -0.00015968
     atom  136 type  4   force =    -0.00013813   -0.00063329    0.00021025
     atom  137 type  3   force =    -0.00050530    0.00045200   -0.00045828
     atom  138 type  3   force =    -0.00004139   -0.00020660   -0.00024473
     atom  139 type  3   force =     0.00035723   -0.00020625   -0.00012196
     atom  140 type  3   force =     0.00016515   -0.00054055    0.00002953
     atom  141 type  4   force =    -0.00015834   -0.00040153    0.00009252
     atom  142 type  4   force =    -0.00013537   -0.00051559   -0.00039751
     atom  143 type  4   force =     0.00003889    0.00004094   -0.00023692
     atom  144 type  4   force =    -0.00005992   -0.00006354   -0.00007867
     atom  145 type  4   force =     0.00029716    0.00008121   -0.00032227
     atom  146 type  4   force =     0.00015405    0.00005407   -0.00007089
     atom  147 type  4   force =    -0.00011873   -0.00017572    0.00016298
     atom  148 type  4   force =    -0.00024681    0.00020172   -0.00028574
     atom  149 type  4   force =     0.00016213   -0.00031100   -0.00013460
     atom  150 type  4   force =     0.00009637   -0.00014220   -0.00004895
     atom  151 type  4   force =     0.00048910    0.00021009   -0.00006876
     atom  152 type  4   force =     0.00005196   -0.00022288    0.00006731
     atom  153 type  4   force =    -0.00022198   -0.00008929   -0.00019800
     atom  154 type  4   force =    -0.00014647   -0.00013307   -0.00006303
     atom  155 type  4   force =     0.00065486    0.00032294   -0.00030386
     atom  156 type  4   force =    -0.00030633    0.00008079   -0.00012033
     atom  157 type  4   force =    -0.00544157    0.00046957    0.00428553
     atom  158 type  5   force =     0.00378207   -0.00131818   -0.00087500

     Total force =     0.665586     Total SCF correction =     0.004400
 
     init_run     :      7.97s CPU      8.66s WALL (       1 calls)
     electrons    :   1180.46s CPU   1235.43s WALL (       1 calls)
     forces       :      4.48s CPU      4.90s WALL (       1 calls)
     force_london :      0.08s CPU      0.08s WALL (       1 calls)

     Called by init_run:
     wfcinit      :      4.66s CPU      4.82s WALL (       1 calls)
     potinit      :      0.60s CPU      0.80s WALL (       1 calls)
     hinit0       :      1.57s CPU      1.67s WALL (       1 calls)

     Called by electrons:
     c_bands      :    901.60s CPU    929.91s WALL (      90 calls)
     sum_band     :    177.33s CPU    190.44s WALL (      90 calls)
     v_of_rho     :     17.11s CPU     18.00s WALL (      91 calls)
     newd         :     59.62s CPU     69.68s WALL (      91 calls)
     mix_rho      :     23.70s CPU     23.86s WALL (      90 calls)
     energy_londo :      0.08s CPU      0.08s WALL (       1 calls)

     Called by c_bands:
     init_us_2    :      2.28s CPU      2.34s WALL (     364 calls)
     init_us_2:cp :      2.28s CPU      2.34s WALL (     364 calls)
     regterg      :    882.63s CPU    908.87s WALL (     181 calls)

     Called by *egterg:
     rdiaghg      :    225.08s CPU    236.97s WALL (     664 calls)
     h_psi        :    332.23s CPU    339.38s WALL (     666 calls)
     s_psi        :     51.72s CPU     51.75s WALL (     666 calls)
     g_psi        :      0.38s CPU      0.38s WALL (     483 calls)

     Called by h_psi:
     h_psi:calbec :    102.35s CPU    108.24s WALL (     666 calls)
     vloc_psi     :    175.36s CPU    175.97s WALL (     666 calls)
     add_vuspsi   :     53.80s CPU     54.44s WALL (     666 calls)

     General routines
     calbec       :    151.13s CPU    159.83s WALL (     854 calls)
     fft          :     50.21s CPU     51.50s WALL (    1651 calls)
     ffts         :     14.20s CPU     14.22s WALL (   11219 calls)
     fftw         :    205.24s CPU    205.91s WALL (  300912 calls)
     interpolate  :      1.48s CPU      1.58s WALL (     182 calls)
 
     Parallel routines
 
     PWSCF        :  19m54.96s CPU  20m51.28s WALL

 
   This run was terminated on:   2:19:13  20Nov2025            

=------------------------------------------------------------------------------=
   JOB DONE.
=------------------------------------------------------------------------------=
