
     Program PWSCF v.7.2 starts on 20Nov2025 at  1:29:40 

     This program is part of the open-source Quantum ESPRESSO suite
     for quantum simulation of materials; please cite
         "P. Giannozzi et al., J. Phys.:Condens. Matter 21 395502 (2009);
         "P. Giannozzi et al., J. Phys.:Condens. Matter 29 465901 (2017);
         "P. Giannozzi et al., J. Chem. Phys. 152 154105 (2020);
          URL http://www.quantum-espresso.org", 
     in publications or presentations arising from this work. More details at
     http://www.quantum-espresso.org/quote

     Parallel version (MPI), running on    64 processors

     MPI processes distributed on     4 nodes
     490804 MiB available memory on the printing compute node when the environment starts
 
     Reading input from PWINPUT_atm157_ym

     Current dimensions of program PWSCF are:
     Max number of different atomic species (ntypx) = 10
     Max number of k-points (npk) =  40000
     Max angular momentum in pseudopotentials (lmaxx) =  4
     Presently no symmetry can be used with electric field

     file Ni.pbe-n-rrkjus_psl.1.0.0.UPF: wavefunction(s)  3D renormalized
     file Mn.pbe-spn-rrkjus_psl.0.3.1.UPF: wavefunction(s)  3D renormalized
     file O.pbe-rrkjus.UPF: wavefunction(s)  2S renormalized
     file H.pbe-rrkjus.UPF: wavefunction(s)  1S renormalized

     gamma-point specific algorithms are used
 
     R & G space division:  proc/nbgrp/npool/nimage =      64
     Subspace diagonalization in iterative solution of the eigenvalue problem:
     one sub-group per band group will be used
     custom distributed-memory algorithm (size of sub-group:  6*  6 procs)

 
     Parallelization info
     --------------------
     sticks:   dense  smooth     PW     G-vecs:    dense   smooth      PW
     Min         208      82     20                59912    15118    1876
     Max         210      84     22                59974    15196    1926
     Sum       13399    5355   1345              3836275   970529  121367
 
     Using Slab Decomposition
 


     bravais-lattice index     =            0
     lattice parameter (alat)  =      17.7004  a.u.
     unit-cell volume          =   20319.7251 (a.u.)^3
     number of atoms/cell      =          158
     number of atomic types    =            5
     number of electrons       =      1078.00
     number of Kohn-Sham states=          647
     kinetic-energy cutoff     =      50.0000  Ry
     charge density cutoff     =     500.0000  Ry
     scf convergence threshold =      1.0E-06
     mixing beta               =       0.1000
     number of iterations used =            8  local-TF  mixing
     Exchange-correlation=  SLA  PW   PBE  PBE
                           (   1   4   3   4   0   0   0)

     celldm(1)=  17.700384  celldm(2)=   0.000000  celldm(3)=   0.000000
     celldm(4)=   0.000000  celldm(5)=   0.000000  celldm(6)=   0.000000

     crystal axes: (cart. coord. in units of alat)
               a(1) = (   1.000000   0.000000   0.000000 )  
               a(2) = (   0.000000   1.075730   0.000000 )  
               a(3) = (   0.000000   0.000000   3.406172 )  

     reciprocal axes: (cart. coord. in units 2 pi/alat)
               b(1) = (  1.000000  0.000000  0.000000 )  
               b(2) = (  0.000000  0.929602  0.000000 )  
               b(3) = (  0.000000  0.000000  0.293585 )  


     PseudoPot. # 1 for Ni read from file:
     ~/PSEUDO/Ni.pbe-n-rrkjus_psl.1.0.0.UPF
     MD5 check sum: Not computed, couldn't open file
     Pseudo is Ultrasoft + core correction, Zval = 10.0
     Generated using "atomic" code by A. Dal Corso  v.5.1.2
     Using radial grid of 1195 points,  6 beta functions with: 
                l(1) =   0
                l(2) =   0
                l(3) =   1
                l(4) =   1
                l(5) =   2
                l(6) =   2
     Q(r) pseudized with 0 coefficients 


     PseudoPot. # 2 for Mn read from file:
     ~/PSEUDO/Mn.pbe-spn-rrkjus_psl.0.3.1.UPF
     MD5 check sum: Not computed, couldn't open file
     Pseudo is Ultrasoft + core correction, Zval = 15.0
     Generated using &quot;atomic&quot; code by A. Dal Corso  v.6.2.2
     Using radial grid of 1187 points,  6 beta functions with: 
                l(1) =   0
                l(2) =   0
                l(3) =   1
                l(4) =   1
                l(5) =   2
                l(6) =   2
     Q(r) pseudized with 0 coefficients 


     PseudoPot. # 3 for P  read from file:
     ~/PSEUDO/P.pbe-n-rrkjus_psl.1.0.0.UPF
     MD5 check sum: Not computed, couldn't open file
     Pseudo is Ultrasoft + core correction, Zval =  5.0
     Generated using "atomic" code by A. Dal Corso  v.5.1
     Using radial grid of 1147 points,  6 beta functions with: 
                l(1) =   0
                l(2) =   0
                l(3) =   1
                l(4) =   1
                l(5) =   2
                l(6) =   2
     Q(r) pseudized with 0 coefficients 


     PseudoPot. # 4 for O  read from file:
     ~/PSEUDO/O.pbe-rrkjus.UPF
     MD5 check sum: Not computed, couldn't open file
     Pseudo is Ultrasoft, Zval =  6.0
     Generated by new atomic code, or converted to UPF format
     Using radial grid of 1269 points,  4 beta functions with: 
                l(1) =   0
                l(2) =   0
                l(3) =   1
                l(4) =   1
     Q(r) pseudized with 0 coefficients 


     PseudoPot. # 5 for H  read from file:
     ~/PSEUDO/H.pbe-rrkjus.UPF
     MD5 check sum: Not computed, couldn't open file
     Pseudo is Ultrasoft, Zval =  1.0
     Generated by new atomic code, or converted to UPF format
     Using radial grid of 1061 points,  2 beta functions with: 
                l(1) =   0
                l(2) =   0
     Q(r) pseudized with 0 coefficients 


     atomic species   valence    mass     pseudopotential
     Ni               10.00    58.69300     Ni( 1.00)
     Mn               15.00    54.93800     Mn( 1.00)
     P                 5.00    30.97300     P ( 1.00)
     O                 6.00    15.99900     O ( 1.00)
     H                 1.00     1.00790     H ( 1.00)

     Starting magnetic structure 
     atomic species   magnetization
     Ni              1.000
     Mn              1.000
     P               1.000
     O               1.000
     H               0.000

     No symmetry found



   Cartesian axes

     site n.     atom                  positions (alat units)
         1        Mn     tau(   1) = (   0.2404744   0.8371250   0.1168501  )
         2        Ni     tau(   2) = (   0.4968126   0.7726670   0.4415546  )
         3        Ni     tau(   3) = (   0.0066150   0.2936743   0.1241053  )
         4        Ni     tau(   4) = (   0.2585722   0.2355858   0.4448848  )
         5        Ni     tau(   5) = (   0.9987350   1.0696411   0.2854926  )
         6        Ni     tau(   6) = (   0.2517397   0.5330511   0.2829322  )
         7        Ni     tau(   7) = (   0.7451645   0.8337543   0.1221751  )
         8        Ni     tau(   8) = (   0.9939181   0.7738804   0.4407595  )
         9        Ni     tau(   9) = (   0.5111533   0.2924088   0.1251865  )
        10        Ni     tau(  10) = (   0.7606326   0.2319267   0.4451372  )
        11        Ni     tau(  11) = (   0.5024065   1.0688133   0.2870502  )
        12        Ni     tau(  12) = (   0.7529977   0.5317900   0.2845227  )
        13        P      tau(  13) = (   0.2092944   0.9731097   0.4345035  )
        14        P      tau(  14) = (   0.4655727   0.6359535   0.1274635  )
        15        P      tau(  15) = (   0.2910699   0.1027363   0.1296098  )
        16        P      tau(  16) = (   0.0396216   0.4288395   0.4398838  )
        17        O      tau(  17) = (   0.1294378   0.9013260   0.3010618  )
        18        O      tau(  18) = (   0.3874505   0.7054774   0.2637003  )
        19        O      tau(  19) = (   0.3702540   0.1714799   0.2660028  )
        20        O      tau(  20) = (   0.1184398   0.3582958   0.3038353  )
        21        O      tau(  21) = (   0.1451572   0.8850881   0.5587578  )
        22        O      tau(  22) = (   0.4048762   0.7245585   0.0017492  )
        23        O      tau(  23) = (   0.3523506   0.1900579   0.0035744  )
        24        O      tau(  24) = (   0.1017610   0.3410484   0.5656572  )
        25        O      tau(  25) = (   0.0975396   0.5849288   0.4357922  )
        26        O      tau(  26) = (   0.3483552   1.0314945   0.1270322  )
        27        O      tau(  27) = (   0.3784305   0.4225118   0.4308928  )
        28        O      tau(  28) = (   0.1268237   0.1067944   0.1392744  )
        29        O      tau(  29) = (   0.1212267   0.6424170   0.1362896  )
        30        O      tau(  30) = (   0.4053315   0.4809387   0.1300622  )
        31        O      tau(  31) = (   0.1536621   0.0446918   0.4373386  )
        32        O      tau(  32) = (   0.3732349   0.9631717   0.4256642  )
        33        P      tau(  33) = (   0.7119823   0.9695974   0.4373010  )
        34        P      tau(  34) = (   0.9615208   0.6363392   0.1262932  )
        35        P      tau(  35) = (   0.7927710   0.0970060   0.1292164  )
        36        P      tau(  36) = (   0.5426404   0.4269675   0.4410738  )
        37        O      tau(  37) = (   0.6326879   0.8991182   0.3013240  )
        38        O      tau(  38) = (   0.8842163   0.7083206   0.2625155  )
        39        O      tau(  39) = (   0.8716178   0.1677751   0.2653504  )
        40        O      tau(  40) = (   0.6212010   0.3558666   0.3051085  )
        41        O      tau(  41) = (   0.6507714   0.8812342   0.5631722  )
        42        O      tau(  42) = (   0.9014054   0.7264458   0.0010676  )
        43        O      tau(  43) = (   0.8548963   0.1847909   0.0035471  )
        44        O      tau(  44) = (   0.6044469   0.3378706   0.5660366  )
        45        O      tau(  45) = (   0.6024424   0.5823140   0.4379016  )
        46        O      tau(  46) = (   0.8498940   1.0254482   0.1275156  )
        47        O      tau(  47) = (   0.8798395   0.4205825   0.4305771  )
        48        O      tau(  48) = (   0.6286921   0.1034636   0.1397346  )
        49        O      tau(  49) = (   0.6294973   0.6427753   0.1372553  )
        50        O      tau(  50) = (   0.9024339   0.4810312   0.1296418  )
        51        O      tau(  51) = (   0.6547812   0.0410987   0.4396636  )
        52        O      tau(  52) = (   0.8760507   0.9632605   0.4264507  )
        53        Mn     tau(  53) = (   0.2404744   0.8246335   0.7367378  )
        54        Ni     tau(  54) = (   0.4968126   0.7601755   1.0614423  )
        55        Ni     tau(  55) = (   0.0066150   0.2811828   0.7439929  )
        56        Ni     tau(  56) = (   0.2585722   0.2230943   1.0647725  )
        57        Ni     tau(  57) = (   0.9987350   1.0571496   0.9053803  )
        58        Ni     tau(  58) = (   0.2517397   0.5205596   0.9028199  )
        59        Ni     tau(  59) = (   0.7451645   0.8212628   0.7420628  )
        60        Ni     tau(  60) = (   0.9939181   0.7613889   1.0606471  )
        61        Ni     tau(  61) = (   0.5111533   0.2799173   0.7450742  )
        62        Ni     tau(  62) = (   0.7606326   0.2194352   1.0650249  )
        63        Ni     tau(  63) = (   0.5024065   1.0563218   0.9069379  )
        64        Ni     tau(  64) = (   0.7529977   0.5192985   0.9044104  )
        65        P      tau(  65) = (   0.2092944   0.9606182   1.0543912  )
        66        P      tau(  66) = (   0.4655727   0.6234620   0.7473512  )
        67        P      tau(  67) = (   0.2910699   0.0902448   0.7494974  )
        68        P      tau(  68) = (   0.0396216   0.4163480   1.0597715  )
        69        O      tau(  69) = (   0.1294378   0.8888345   0.9209495  )
        70        O      tau(  70) = (   0.3874505   0.6929859   0.8835880  )
        71        O      tau(  71) = (   0.3702540   0.1589885   0.8858904  )
        72        O      tau(  72) = (   0.1184398   0.3458043   0.9237230  )
        73        O      tau(  73) = (   0.1451572   0.8725966   1.1786454  )
        74        O      tau(  74) = (   0.4048762   0.7120670   0.6216369  )
        75        O      tau(  75) = (   0.3523506   0.1775664   0.6234620  )
        76        O      tau(  76) = (   0.1017610   0.3285569   1.1855448  )
        77        O      tau(  77) = (   0.0975396   0.5724373   1.0556799  )
        78        O      tau(  78) = (   0.3483552   1.0190030   0.7469198  )
        79        O      tau(  79) = (   0.3784305   0.4100203   1.0507804  )
        80        O      tau(  80) = (   0.1268237   0.0943029   0.7591620  )
        81        O      tau(  81) = (   0.1212267   0.6299255   0.7561772  )
        82        O      tau(  82) = (   0.4053315   0.4684472   0.7499499  )
        83        O      tau(  83) = (   0.1536621   0.0322003   1.0572263  )
        84        O      tau(  84) = (   0.3732349   0.9506802   1.0455518  )
        85        P      tau(  85) = (   0.7119823   0.9571059   1.0571887  )
        86        P      tau(  86) = (   0.9615208   0.6238477   0.7461808  )
        87        P      tau(  87) = (   0.7927710   0.0845145   0.7491041  )
        88        P      tau(  88) = (   0.5426404   0.4144760   1.0609615  )
        89        O      tau(  89) = (   0.6326879   0.8866267   0.9212117  )
        90        O      tau(  90) = (   0.8842163   0.6958291   0.8824032  )
        91        O      tau(  91) = (   0.8716178   0.1552836   0.8852381  )
        92        O      tau(  92) = (   0.6212010   0.3433751   0.9249961  )
        93        O      tau(  93) = (   0.6507714   0.8687427   1.1830599  )
        94        O      tau(  94) = (   0.9014054   0.7139543   0.6209553  )
        95        O      tau(  95) = (   0.8548963   0.1722994   0.6234348  )
        96        O      tau(  96) = (   0.6044469   0.3253792   1.1859242  )
        97        O      tau(  97) = (   0.6024424   0.5698225   1.0577892  )
        98        O      tau(  98) = (   0.8498940   1.0129567   0.7474033  )
        99        O      tau(  99) = (   0.8798395   0.4080910   1.0504647  )
       100        O      tau( 100) = (   0.6286921   0.0909721   0.7596222  )
       101        O      tau( 101) = (   0.6294973   0.6302838   0.7571429  )
       102        O      tau( 102) = (   0.9024339   0.4685397   0.7495295  )
       103        O      tau( 103) = (   0.6547812   0.0286072   1.0595512  )
       104        O      tau( 104) = (   0.8760507   0.9507690   1.0463383  )
       105        Mn     tau( 105) = (   0.2341048   0.8108197   1.3663252  )
       106        Ni     tau( 106) = (   0.5024816   0.7464085   1.6757065  )
       107        Ni     tau( 107) = (   0.0091392   0.2672722   1.3697207  )
       108        Ni     tau( 108) = (   0.2495058   0.2078228   1.6755278  )
       109        Ni     tau( 109) = (   1.0032102   1.0416246   1.5364023  )
       110        Ni     tau( 110) = (   0.2485262   0.5048332   1.5297062  )
       111        Ni     tau( 111) = (   0.7430018   0.8054177   1.3686003  )
       112        Ni     tau( 112) = (   0.9925501   0.7393218   1.7090217  )
       113        Ni     tau( 113) = (   0.5113084   0.2670413   1.3698693  )
       114        Ni     tau( 114) = (   0.7494949   0.2101352   1.6749472  )
       115        Ni     tau( 115) = (   0.5047951   1.0439869   1.5324480  )
       116        Ni     tau( 116) = (   0.7496602   0.5077338   1.5350320  )
       117        P      tau( 117) = (   0.2153380   0.9328497   1.6938933  )
       118        P      tau( 118) = (   0.4622660   0.6087634   1.3707994  )
       119        P      tau( 119) = (   0.2922378   0.0736206   1.3716559  )
       120        P      tau( 120) = (   0.0382110   0.3940295   1.6909775  )
       121        O      tau( 121) = (   0.1372270   0.8700926   1.5520458  )
       122        O      tau( 122) = (   0.3847694   0.6779168   1.5071938  )
       123        O      tau( 123) = (   0.3710441   0.1421445   1.5079797  )
       124        O      tau( 124) = (   0.1173137   0.3316825   1.5448012  )
       125        O      tau( 125) = (   0.1566604   0.8378692   1.8121477  )
       126        O      tau( 126) = (   0.4018852   0.6988502   1.2455572  )
       127        O      tau( 127) = (   0.3539928   0.1600748   1.2455128  )
       128        O      tau( 128) = (   0.0976531   0.2945871   1.8050993  )
       129        O      tau( 129) = (   0.0985428   0.5494999   1.6854361  )
       130        O      tau( 130) = (   0.3504453   0.9928363   1.3746257  )
       131        O      tau( 131) = (   0.3718735   0.3910438   1.6761776  )
       132        O      tau( 132) = (   0.1285520   0.0774354   1.3834063  )
       133        O      tau( 133) = (   0.1228761   0.6199323   1.3811417  )
       134        O      tau( 134) = (   0.4020429   0.4538468   1.3720019  )
       135        O      tau( 135) = (   0.1599454   0.0153847   1.6910302  )
       136        O      tau( 136) = (   0.3804554   0.9291162   1.6779826  )
       137        P      tau( 137) = (   0.7133756   0.9380637   1.6935653  )
       138        P      tau( 138) = (   0.9577904   0.6122334   1.3726531  )
       139        P      tau( 139) = (   0.7939846   0.0704840   1.3720273  )
       140        P      tau( 140) = (   0.5366371   0.3964784   1.6923699  )
       141        O      tau( 141) = (   0.6376702   0.8730140   1.5485714  )
       142        O      tau( 142) = (   0.8832272   0.6852684   1.5080352  )
       143        O      tau( 143) = (   0.8714928   0.1414651   1.5082745  )
       144        O      tau( 144) = (   0.6162606   0.3358838   1.5468185  )
       145        O      tau( 145) = (   0.6494383   0.8437087   1.8102692  )
       146        O      tau( 146) = (   0.8986022   0.6987735   1.2443575  )
       147        O      tau( 147) = (   0.8554771   0.1582509   1.2459557  )
       148        O      tau( 148) = (   0.5975308   0.2989918   1.8069624  )
       149        O      tau( 149) = (   0.5919342   0.5544634   1.6914728  )
       150        O      tau( 150) = (   0.8532566   0.9911851   1.3761764  )
       151        O      tau( 151) = (   0.8736693   0.3888582   1.6742141  )
       152        O      tau( 152) = (   0.6299136   0.0779356   1.3831127  )
       153        O      tau( 153) = (   0.6261583   0.6163923   1.3832484  )
       154        O      tau( 154) = (   0.9012706   0.4563430   1.3768978  )
       155        O      tau( 155) = (   0.6553133   0.0192695   1.6887296  )
       156        O      tau( 156) = (   0.8781114   0.9348774   1.6838478  )
       157        O      tau( 157) = (   0.8763292   0.6528328   1.8385640  )
       158        H      tau( 158) = (   0.7911329   0.7123594   1.8616160  )

     -------------------------------------------------
     Parameters for Dispersion (Grimme-D2) Correction:
     -------------------------------------------------
       atom      VdW radius       C_6     

        Ni         2.952        374.666
        Mn         2.952        374.666
        P          3.222        271.980
        O          2.536         24.284
        H          1.892          4.857

     number of k points=     1  Gaussian smearing, width (Ry)=  0.0100
                       cart. coord. in units 2pi/alat
        k(    1) = (   0.0000000   0.0000000   0.0000000), wk =   1.0000000

     Dense  grid:  1918138 G-vectors     FFT dimensions: ( 125, 135, 432)

     Smooth grid:   485265 G-vectors     FFT dimensions: (  80,  90, 288)

     Estimated max dynamical RAM per process >     320.12 MB

     Estimated total dynamical RAM >      20.01 GB
     Generating pointlists ...
     new r_m :   0.0802 (alat units)  1.4190 (a.u.) for type    1
     new r_m :   0.0869 (alat units)  1.5388 (a.u.) for type    2
     new r_m :   0.0650 (alat units)  1.1499 (a.u.) for type    3
     new r_m :   0.0439 (alat units)  0.7773 (a.u.) for type    4
     new r_m :   0.0439 (alat units)  0.7773 (a.u.) for type    5

     Initial potential from superposition of free atoms

     starting charge    1077.8900, renormalised to    1078.0000

     negative rho (up, down):  1.235E-03 4.557E-04
 
     Adding external electric field

     Computed dipole along edir(3) : 
        Dipole                1.6192 Ry au,          4.1155 Debye
        Dipole field          0.0010 Ry au, 
 
        Potential amp.       -0.1087 Ry
        Total length         54.2615 bohr
 
 
     Adding external electric field

     Computed dipole along edir(3) : 
        Dipole                1.6192 Ry au,          4.1155 Debye
        Dipole field          0.0010 Ry au, 
 
        Potential amp.       -0.1087 Ry
        Total length         54.2615 bohr
 
     Starting wfcs are  812 randomized atomic wfcs

     total cpu time spent up to now is        8.5 secs

     Self-consistent Calculation

     iteration #  1     ecut=    50.00 Ry     beta= 0.10
     Davidson diagonalization with overlap
     ethr =  1.00E-02,  avg # of iterations =  6.0

     negative rho (up, down):  3.349E-01 2.146E-06
 
     Adding external electric field

     Computed dipole along edir(3) : 
        Dipole               -3.5608 Ry au,         -9.0507 Debye
        Dipole field         -0.0022 Ry au, 
 
        Potential amp.        0.2390 Ry
        Total length         54.2615 bohr
 
 
     Adding external electric field

     Computed dipole along edir(3) : 
        Dipole               -3.5608 Ry au,         -9.0507 Debye
        Dipole field         -0.0022 Ry au, 
 
        Potential amp.        0.2390 Ry
        Total length         54.2615 bohr
 

     total cpu time spent up to now is       29.8 secs

     total energy              =   -7178.86884785 Ry
     estimated scf accuracy    <     752.84502457 Ry

     total magnetization       =   216.00 Bohr mag/cell
     absolute magnetization    =   297.08 Bohr mag/cell

     iteration #  2     ecut=    50.00 Ry     beta= 0.10
     Davidson diagonalization with overlap
     ethr =  1.00E-02,  avg # of iterations =  2.0

     negative rho (up, down):  3.165E-01 1.590E-06
 
     Adding external electric field

     Computed dipole along edir(3) : 
        Dipole               -2.3849 Ry au,         -6.0619 Debye
        Dipole field         -0.0015 Ry au, 
 
        Potential amp.        0.1601 Ry
        Total length         54.2615 bohr
 
 
     Adding external electric field

     Computed dipole along edir(3) : 
        Dipole               -2.3849 Ry au,         -6.0619 Debye
        Dipole field         -0.0015 Ry au, 
 
        Potential amp.        0.1601 Ry
        Total length         54.2615 bohr
 

     total cpu time spent up to now is       42.2 secs

     total energy              =   -7262.49130652 Ry
     estimated scf accuracy    <     201.57805980 Ry

     total magnetization       =   149.24 Bohr mag/cell
     absolute magnetization    =   199.32 Bohr mag/cell

     iteration #  3     ecut=    50.00 Ry     beta= 0.10
     Davidson diagonalization with overlap
     ethr =  1.00E-02,  avg # of iterations =  1.5

     negative rho (up, down):  2.783E-01 1.331E-06
 
     Adding external electric field

     Computed dipole along edir(3) : 
        Dipole               -2.0238 Ry au,         -5.1439 Debye
        Dipole field         -0.0013 Ry au, 
 
        Potential amp.        0.1358 Ry
        Total length         54.2615 bohr
 
 
     Adding external electric field

     Computed dipole along edir(3) : 
        Dipole               -2.0238 Ry au,         -5.1439 Debye
        Dipole field         -0.0013 Ry au, 
 
        Potential amp.        0.1358 Ry
        Total length         54.2615 bohr
 

     total cpu time spent up to now is       52.2 secs

     total energy              =   -7293.47225753 Ry
     estimated scf accuracy    <      98.08027854 Ry

     total magnetization       =   124.87 Bohr mag/cell
     absolute magnetization    =   178.85 Bohr mag/cell

     iteration #  4     ecut=    50.00 Ry     beta= 0.10
     Davidson diagonalization with overlap
     ethr =  9.10E-03,  avg # of iterations =  1.5

     negative rho (up, down):  2.062E-01 3.883E-07
 
     Adding external electric field

     Computed dipole along edir(3) : 
        Dipole               -1.9591 Ry au,         -4.9795 Debye
        Dipole field         -0.0012 Ry au, 
 
        Potential amp.        0.1315 Ry
        Total length         54.2615 bohr
 
 
     Adding external electric field

     Computed dipole along edir(3) : 
        Dipole               -1.9591 Ry au,         -4.9795 Debye
        Dipole field         -0.0012 Ry au, 
 
        Potential amp.        0.1315 Ry
        Total length         54.2615 bohr
 

     total cpu time spent up to now is       63.1 secs

     total energy              =   -7328.15187412 Ry
     estimated scf accuracy    <      78.02397096 Ry

     total magnetization       =   109.89 Bohr mag/cell
     absolute magnetization    =   164.49 Bohr mag/cell

     iteration #  5     ecut=    50.00 Ry     beta= 0.10
     Davidson diagonalization with overlap
     ethr =  7.24E-03,  avg # of iterations =  1.5

     negative rho (up, down):  6.980E-03 6.514E-07
 
     Adding external electric field

     Computed dipole along edir(3) : 
        Dipole               -1.5010 Ry au,         -3.8152 Debye
        Dipole field         -0.0009 Ry au, 
 
        Potential amp.        0.1007 Ry
        Total length         54.2615 bohr
 
 
     Adding external electric field

     Computed dipole along edir(3) : 
        Dipole               -1.5010 Ry au,         -3.8152 Debye
        Dipole field         -0.0009 Ry au, 
 
        Potential amp.        0.1007 Ry
        Total length         54.2615 bohr
 

     total cpu time spent up to now is       74.4 secs

     total energy              =   -7386.79431058 Ry
     estimated scf accuracy    <      60.08481259 Ry

     total magnetization       =    88.00 Bohr mag/cell
     absolute magnetization    =   145.57 Bohr mag/cell

     iteration #  6     ecut=    50.00 Ry     beta= 0.10
     Davidson diagonalization with overlap
     ethr =  5.57E-03,  avg # of iterations =  1.5

     negative rho (up, down):  3.039E-04 3.667E-04
 
     Adding external electric field

     Computed dipole along edir(3) : 
        Dipole               -1.1493 Ry au,         -2.9213 Debye
        Dipole field         -0.0007 Ry au, 
 
        Potential amp.        0.0771 Ry
        Total length         54.2615 bohr
 
 
     Adding external electric field

     Computed dipole along edir(3) : 
        Dipole               -1.1493 Ry au,         -2.9213 Debye
        Dipole field         -0.0007 Ry au, 
 
        Potential amp.        0.0771 Ry
        Total length         54.2615 bohr
 

     total cpu time spent up to now is       83.8 secs

     total energy              =   -7395.55849514 Ry
     estimated scf accuracy    <       9.63041654 Ry

     total magnetization       =    80.95 Bohr mag/cell
     absolute magnetization    =   114.07 Bohr mag/cell

     iteration #  7     ecut=    50.00 Ry     beta= 0.10
     Davidson diagonalization with overlap
     ethr =  8.93E-04,  avg # of iterations =  7.0

     negative rho (up, down):  3.044E-04 3.603E-04
 
     Adding external electric field

     Computed dipole along edir(3) : 
        Dipole               -1.1502 Ry au,         -2.9235 Debye
        Dipole field         -0.0007 Ry au, 
 
        Potential amp.        0.0772 Ry
        Total length         54.2615 bohr
 
 
     Adding external electric field

     Computed dipole along edir(3) : 
        Dipole               -1.1502 Ry au,         -2.9235 Debye
        Dipole field         -0.0007 Ry au, 
 
        Potential amp.        0.0772 Ry
        Total length         54.2615 bohr
 

     total cpu time spent up to now is      105.2 secs

     total energy              =   -7397.57310763 Ry
     estimated scf accuracy    <      10.08806422 Ry

     total magnetization       =    71.74 Bohr mag/cell
     absolute magnetization    =    89.37 Bohr mag/cell

     iteration #  8     ecut=    50.00 Ry     beta= 0.10
     Davidson diagonalization with overlap
     ethr =  8.93E-04,  avg # of iterations =  1.0

     negative rho (up, down):  2.846E-04 3.550E-04
 
     Adding external electric field

     Computed dipole along edir(3) : 
        Dipole               -1.1521 Ry au,         -2.9284 Debye
        Dipole field         -0.0007 Ry au, 
 
        Potential amp.        0.0773 Ry
        Total length         54.2615 bohr
 
 
     Adding external electric field

     Computed dipole along edir(3) : 
        Dipole               -1.1521 Ry au,         -2.9284 Debye
        Dipole field         -0.0007 Ry au, 
 
        Potential amp.        0.0773 Ry
        Total length         54.2615 bohr
 

     total cpu time spent up to now is      114.4 secs

     total energy              =   -7397.60031998 Ry
     estimated scf accuracy    <      10.13442912 Ry

     total magnetization       =    71.73 Bohr mag/cell
     absolute magnetization    =    89.03 Bohr mag/cell

     iteration #  9     ecut=    50.00 Ry     beta= 0.10
     Davidson diagonalization with overlap
     ethr =  8.93E-04,  avg # of iterations =  1.0

     negative rho (up, down):  4.848E-04 4.286E-04
 
     Adding external electric field

     Computed dipole along edir(3) : 
        Dipole               -1.1318 Ry au,         -2.8767 Debye
        Dipole field         -0.0007 Ry au, 
 
        Potential amp.        0.0760 Ry
        Total length         54.2615 bohr
 
 
     Adding external electric field

     Computed dipole along edir(3) : 
        Dipole               -1.1318 Ry au,         -2.8767 Debye
        Dipole field         -0.0007 Ry au, 
 
        Potential amp.        0.0760 Ry
        Total length         54.2615 bohr
 

     total cpu time spent up to now is      123.8 secs

     total energy              =   -7397.41545458 Ry
     estimated scf accuracy    <       9.84352998 Ry

     total magnetization       =    71.83 Bohr mag/cell
     absolute magnetization    =    88.82 Bohr mag/cell

     iteration # 10     ecut=    50.00 Ry     beta= 0.10
     Davidson diagonalization with overlap
     ethr =  8.93E-04,  avg # of iterations =  1.0

     negative rho (up, down):  8.238E-04 7.412E-04
 
     Adding external electric field

     Computed dipole along edir(3) : 
        Dipole               -1.1891 Ry au,         -3.0223 Debye
        Dipole field         -0.0007 Ry au, 
 
        Potential amp.        0.0798 Ry
        Total length         54.2615 bohr
 
 
     Adding external electric field

     Computed dipole along edir(3) : 
        Dipole               -1.1891 Ry au,         -3.0223 Debye
        Dipole field         -0.0007 Ry au, 
 
        Potential amp.        0.0798 Ry
        Total length         54.2615 bohr
 

     total cpu time spent up to now is      133.4 secs

     total energy              =   -7397.56503153 Ry
     estimated scf accuracy    <       5.49404094 Ry

     total magnetization       =    74.13 Bohr mag/cell
     absolute magnetization    =    90.45 Bohr mag/cell

     iteration # 11     ecut=    50.00 Ry     beta= 0.10
     Davidson diagonalization with overlap
     ethr =  5.10E-04,  avg # of iterations =  1.5

     negative rho (up, down):  7.292E-03 5.904E-03
 
     Adding external electric field

     Computed dipole along edir(3) : 
        Dipole               -1.1913 Ry au,         -3.0280 Debye
        Dipole field         -0.0007 Ry au, 
 
        Potential amp.        0.0800 Ry
        Total length         54.2615 bohr
 
 
     Adding external electric field

     Computed dipole along edir(3) : 
        Dipole               -1.1913 Ry au,         -3.0280 Debye
        Dipole field         -0.0007 Ry au, 
 
        Potential amp.        0.0800 Ry
        Total length         54.2615 bohr
 

     total cpu time spent up to now is      144.1 secs

     total energy              =   -7397.60846598 Ry
     estimated scf accuracy    <       4.11627235 Ry

     total magnetization       =    74.88 Bohr mag/cell
     absolute magnetization    =    90.60 Bohr mag/cell

     iteration # 12     ecut=    50.00 Ry     beta= 0.10
     Davidson diagonalization with overlap
     ethr =  3.82E-04,  avg # of iterations =  1.0

     negative rho (up, down):  6.082E-03 4.794E-03
 
     Adding external electric field

     Computed dipole along edir(3) : 
        Dipole               -1.0848 Ry au,         -2.7572 Debye
        Dipole field         -0.0007 Ry au, 
 
        Potential amp.        0.0728 Ry
        Total length         54.2615 bohr
 
 
     Adding external electric field

     Computed dipole along edir(3) : 
        Dipole               -1.0848 Ry au,         -2.7572 Debye
        Dipole field         -0.0007 Ry au, 
 
        Potential amp.        0.0728 Ry
        Total length         54.2615 bohr
 

     total cpu time spent up to now is      153.2 secs

     total energy              =   -7397.88085977 Ry
     estimated scf accuracy    <       2.25216776 Ry

     total magnetization       =    81.04 Bohr mag/cell
     absolute magnetization    =    95.57 Bohr mag/cell

     iteration # 13     ecut=    50.00 Ry     beta= 0.10
     Davidson diagonalization with overlap
     ethr =  2.09E-04,  avg # of iterations =  2.0

     negative rho (up, down):  1.684E-03 1.463E-03
 
     Adding external electric field

     Computed dipole along edir(3) : 
        Dipole               -0.9233 Ry au,         -2.3469 Debye
        Dipole field         -0.0006 Ry au, 
 
        Potential amp.        0.0620 Ry
        Total length         54.2615 bohr
 
 
     Adding external electric field

     Computed dipole along edir(3) : 
        Dipole               -0.9233 Ry au,         -2.3469 Debye
        Dipole field         -0.0006 Ry au, 
 
        Potential amp.        0.0620 Ry
        Total length         54.2615 bohr
 

     total cpu time spent up to now is      162.6 secs

     total energy              =   -7397.89396380 Ry
     estimated scf accuracy    <       2.30730578 Ry

     total magnetization       =    81.62 Bohr mag/cell
     absolute magnetization    =    94.93 Bohr mag/cell

     iteration # 14     ecut=    50.00 Ry     beta= 0.10
     Davidson diagonalization with overlap
     ethr =  2.09E-04,  avg # of iterations =  1.5

     negative rho (up, down):  8.252E-04 1.027E-03
 
     Adding external electric field

     Computed dipole along edir(3) : 
        Dipole               -0.8952 Ry au,         -2.2753 Debye
        Dipole field         -0.0006 Ry au, 
 
        Potential amp.        0.0601 Ry
        Total length         54.2615 bohr
 
 
     Adding external electric field

     Computed dipole along edir(3) : 
        Dipole               -0.8952 Ry au,         -2.2753 Debye
        Dipole field         -0.0006 Ry au, 
 
        Potential amp.        0.0601 Ry
        Total length         54.2615 bohr
 

     total cpu time spent up to now is      171.6 secs

     total energy              =   -7397.86784300 Ry
     estimated scf accuracy    <       1.84730586 Ry

     total magnetization       =    80.81 Bohr mag/cell
     absolute magnetization    =    92.51 Bohr mag/cell

     iteration # 15     ecut=    50.00 Ry     beta= 0.10
     Davidson diagonalization with overlap
     ethr =  1.71E-04,  avg # of iterations =  1.5

     negative rho (up, down):  9.123E-04 9.570E-04
 
     Adding external electric field

     Computed dipole along edir(3) : 
        Dipole               -0.9096 Ry au,         -2.3121 Debye
        Dipole field         -0.0006 Ry au, 
 
        Potential amp.        0.0610 Ry
        Total length         54.2615 bohr
 
 
     Adding external electric field

     Computed dipole along edir(3) : 
        Dipole               -0.9096 Ry au,         -2.3121 Debye
        Dipole field         -0.0006 Ry au, 
 
        Potential amp.        0.0610 Ry
        Total length         54.2615 bohr
 

     total cpu time spent up to now is      180.6 secs

     total energy              =   -7397.88139700 Ry
     estimated scf accuracy    <       1.72325261 Ry

     total magnetization       =    79.88 Bohr mag/cell
     absolute magnetization    =    91.13 Bohr mag/cell

     iteration # 16     ecut=    50.00 Ry     beta= 0.10
     Davidson diagonalization with overlap
     ethr =  1.60E-04,  avg # of iterations =  1.5

     negative rho (up, down):  1.175E-03 5.445E-05
 
     Adding external electric field

     Computed dipole along edir(3) : 
        Dipole               -0.7772 Ry au,         -1.9755 Debye
        Dipole field         -0.0005 Ry au, 
 
        Potential amp.        0.0522 Ry
        Total length         54.2615 bohr
 
 
     Adding external electric field

     Computed dipole along edir(3) : 
        Dipole               -0.7772 Ry au,         -1.9755 Debye
        Dipole field         -0.0005 Ry au, 
 
        Potential amp.        0.0522 Ry
        Total length         54.2615 bohr
 

     total cpu time spent up to now is      190.1 secs

     total energy              =   -7397.73567084 Ry
     estimated scf accuracy    <       1.62969927 Ry

     total magnetization       =    80.17 Bohr mag/cell
     absolute magnetization    =    91.37 Bohr mag/cell

     iteration # 17     ecut=    50.00 Ry     beta= 0.10
     Davidson diagonalization with overlap
     ethr =  1.51E-04,  avg # of iterations =  2.0

     negative rho (up, down):  1.468E-03 9.681E-05
 
     Adding external electric field

     Computed dipole along edir(3) : 
        Dipole               -0.8244 Ry au,         -2.0953 Debye
        Dipole field         -0.0005 Ry au, 
 
        Potential amp.        0.0553 Ry
        Total length         54.2615 bohr
 
 
     Adding external electric field

     Computed dipole along edir(3) : 
        Dipole               -0.8244 Ry au,         -2.0953 Debye
        Dipole field         -0.0005 Ry au, 
 
        Potential amp.        0.0553 Ry
        Total length         54.2615 bohr
 

     total cpu time spent up to now is      201.1 secs

     total energy              =   -7397.85531929 Ry
     estimated scf accuracy    <       0.97390922 Ry

     total magnetization       =    80.01 Bohr mag/cell
     absolute magnetization    =    88.79 Bohr mag/cell

     iteration # 18     ecut=    50.00 Ry     beta= 0.10
     Davidson diagonalization with overlap
     c_bands:  3 eigenvalues not converged
     ethr =  9.03E-05,  avg # of iterations = 10.5

     negative rho (up, down):  4.796E-03 4.183E-03
 
     Adding external electric field

     Computed dipole along edir(3) : 
        Dipole               -0.5677 Ry au,         -1.4430 Debye
        Dipole field         -0.0004 Ry au, 
 
        Potential amp.        0.0381 Ry
        Total length         54.2615 bohr
 
 
     Adding external electric field

     Computed dipole along edir(3) : 
        Dipole               -0.5677 Ry au,         -1.4430 Debye
        Dipole field         -0.0004 Ry au, 
 
        Potential amp.        0.0381 Ry
        Total length         54.2615 bohr
 

     total cpu time spent up to now is      215.6 secs

     total energy              =   -7397.98079732 Ry
     estimated scf accuracy    <       0.63450794 Ry

     total magnetization       =    80.10 Bohr mag/cell
     absolute magnetization    =    88.12 Bohr mag/cell

     iteration # 19     ecut=    50.00 Ry     beta= 0.10
     Davidson diagonalization with overlap
     ethr =  5.89E-05,  avg # of iterations =  2.0

     negative rho (up, down):  5.223E-03 5.482E-03
 
     Adding external electric field

     Computed dipole along edir(3) : 
        Dipole               -0.5680 Ry au,         -1.4436 Debye
        Dipole field         -0.0004 Ry au, 
 
        Potential amp.        0.0381 Ry
        Total length         54.2615 bohr
 
 
     Adding external electric field

     Computed dipole along edir(3) : 
        Dipole               -0.5680 Ry au,         -1.4436 Debye
        Dipole field         -0.0004 Ry au, 
 
        Potential amp.        0.0381 Ry
        Total length         54.2615 bohr
 

     total cpu time spent up to now is      227.7 secs

     total energy              =   -7398.04092959 Ry
     estimated scf accuracy    <       0.99964581 Ry

     total magnetization       =    79.49 Bohr mag/cell
     absolute magnetization    =    83.70 Bohr mag/cell

     iteration # 20     ecut=    50.00 Ry     beta= 0.10
     Davidson diagonalization with overlap
     ethr =  5.89E-05,  avg # of iterations =  1.0

     negative rho (up, down):  5.618E-03 5.750E-03
 
     Adding external electric field

     Computed dipole along edir(3) : 
        Dipole               -0.5203 Ry au,         -1.3225 Debye
        Dipole field         -0.0003 Ry au, 
 
        Potential amp.        0.0349 Ry
        Total length         54.2615 bohr
 
 
     Adding external electric field

     Computed dipole along edir(3) : 
        Dipole               -0.5203 Ry au,         -1.3225 Debye
        Dipole field         -0.0003 Ry au, 
 
        Potential amp.        0.0349 Ry
        Total length         54.2615 bohr
 

     total cpu time spent up to now is      237.0 secs

     total energy              =   -7398.04063869 Ry
     estimated scf accuracy    <       0.63991272 Ry

     total magnetization       =    79.50 Bohr mag/cell
     absolute magnetization    =    82.40 Bohr mag/cell

     iteration # 21     ecut=    50.00 Ry     beta= 0.10
     Davidson diagonalization with overlap
     ethr =  5.89E-05,  avg # of iterations =  1.0

     negative rho (up, down):  4.240E-03 4.389E-03
 
     Adding external electric field

     Computed dipole along edir(3) : 
        Dipole               -0.5746 Ry au,         -1.4604 Debye
        Dipole field         -0.0004 Ry au, 
 
        Potential amp.        0.0386 Ry
        Total length         54.2615 bohr
 
 
     Adding external electric field

     Computed dipole along edir(3) : 
        Dipole               -0.5746 Ry au,         -1.4604 Debye
        Dipole field         -0.0004 Ry au, 
 
        Potential amp.        0.0386 Ry
        Total length         54.2615 bohr
 

     total cpu time spent up to now is      245.0 secs

     total energy              =   -7398.03646113 Ry
     estimated scf accuracy    <       0.47944359 Ry

     total magnetization       =    79.96 Bohr mag/cell
     absolute magnetization    =    82.51 Bohr mag/cell

     iteration # 22     ecut=    50.00 Ry     beta= 0.10
     Davidson diagonalization with overlap
     ethr =  4.45E-05,  avg # of iterations =  1.5

     negative rho (up, down):  2.605E-03 2.308E-03
 
     Adding external electric field

     Computed dipole along edir(3) : 
        Dipole               -0.6144 Ry au,         -1.5617 Debye
        Dipole field         -0.0004 Ry au, 
 
        Potential amp.        0.0412 Ry
        Total length         54.2615 bohr
 
 
     Adding external electric field

     Computed dipole along edir(3) : 
        Dipole               -0.6144 Ry au,         -1.5617 Debye
        Dipole field         -0.0004 Ry au, 
 
        Potential amp.        0.0412 Ry
        Total length         54.2615 bohr
 

     total cpu time spent up to now is      254.7 secs

     total energy              =   -7398.03705151 Ry
     estimated scf accuracy    <       0.17909631 Ry

     total magnetization       =    80.33 Bohr mag/cell
     absolute magnetization    =    82.17 Bohr mag/cell

     iteration # 23     ecut=    50.00 Ry     beta= 0.10
     Davidson diagonalization with overlap
     ethr =  1.66E-05,  avg # of iterations =  2.0

     negative rho (up, down):  8.166E-04 4.825E-04
 
     Adding external electric field

     Computed dipole along edir(3) : 
        Dipole               -0.6401 Ry au,         -1.6269 Debye
        Dipole field         -0.0004 Ry au, 
 
        Potential amp.        0.0430 Ry
        Total length         54.2615 bohr
 
 
     Adding external electric field

     Computed dipole along edir(3) : 
        Dipole               -0.6401 Ry au,         -1.6269 Debye
        Dipole field         -0.0004 Ry au, 
 
        Potential amp.        0.0430 Ry
        Total length         54.2615 bohr
 

     total cpu time spent up to now is      266.4 secs

     total energy              =   -7398.03287920 Ry
     estimated scf accuracy    <       0.09603673 Ry

     total magnetization       =    80.32 Bohr mag/cell
     absolute magnetization    =    82.04 Bohr mag/cell

     iteration # 24     ecut=    50.00 Ry     beta= 0.10
     Davidson diagonalization with overlap
     c_bands:  3 eigenvalues not converged
     ethr =  8.91E-06,  avg # of iterations = 11.0

     negative rho (up, down):  2.522E-04 8.509E-05
 
     Adding external electric field

     Computed dipole along edir(3) : 
        Dipole               -0.6631 Ry au,         -1.6855 Debye
        Dipole field         -0.0004 Ry au, 
 
        Potential amp.        0.0445 Ry
        Total length         54.2615 bohr
 
 
     Adding external electric field

     Computed dipole along edir(3) : 
        Dipole               -0.6631 Ry au,         -1.6855 Debye
        Dipole field         -0.0004 Ry au, 
 
        Potential amp.        0.0445 Ry
        Total length         54.2615 bohr
 

     total cpu time spent up to now is      283.1 secs

     total energy              =   -7398.03592365 Ry
     estimated scf accuracy    <       0.04702267 Ry

     total magnetization       =    80.52 Bohr mag/cell
     absolute magnetization    =    81.97 Bohr mag/cell

     iteration # 25     ecut=    50.00 Ry     beta= 0.10
     Davidson diagonalization with overlap
     c_bands:  1 eigenvalues not converged
     c_bands:  2 eigenvalues not converged
     ethr =  4.36E-06,  avg # of iterations = 30.0

     negative rho (up, down):  1.519E-04 4.871E-05
 
     Adding external electric field

     Computed dipole along edir(3) : 
        Dipole               -0.6562 Ry au,         -1.6679 Debye
        Dipole field         -0.0004 Ry au, 
 
        Potential amp.        0.0440 Ry
        Total length         54.2615 bohr
 
 
     Adding external electric field

     Computed dipole along edir(3) : 
        Dipole               -0.6562 Ry au,         -1.6679 Debye
        Dipole field         -0.0004 Ry au, 
 
        Potential amp.        0.0440 Ry
        Total length         54.2615 bohr
 

     total cpu time spent up to now is      310.5 secs

     total energy              =   -7398.03777153 Ry
     estimated scf accuracy    <       0.03220463 Ry

     total magnetization       =    80.40 Bohr mag/cell
     absolute magnetization    =    81.86 Bohr mag/cell

     iteration # 26     ecut=    50.00 Ry     beta= 0.10
     Davidson diagonalization with overlap
     c_bands:  1 eigenvalues not converged
     ethr =  2.99E-06,  avg # of iterations = 11.0

     negative rho (up, down):  5.862E-05 1.549E-05
 
     Adding external electric field

     Computed dipole along edir(3) : 
        Dipole               -0.6530 Ry au,         -1.6597 Debye
        Dipole field         -0.0004 Ry au, 
 
        Potential amp.        0.0438 Ry
        Total length         54.2615 bohr
 
 
     Adding external electric field

     Computed dipole along edir(3) : 
        Dipole               -0.6530 Ry au,         -1.6597 Debye
        Dipole field         -0.0004 Ry au, 
 
        Potential amp.        0.0438 Ry
        Total length         54.2615 bohr
 

     total cpu time spent up to now is      324.2 secs

     total energy              =   -7398.03818003 Ry
     estimated scf accuracy    <       0.03451794 Ry

     total magnetization       =    80.33 Bohr mag/cell
     absolute magnetization    =    81.81 Bohr mag/cell

     iteration # 27     ecut=    50.00 Ry     beta= 0.10
     Davidson diagonalization with overlap
     ethr =  2.99E-06,  avg # of iterations =  2.0

     negative rho (up, down):  1.702E-04 7.821E-05
 
     Adding external electric field

     Computed dipole along edir(3) : 
        Dipole               -0.6288 Ry au,         -1.5983 Debye
        Dipole field         -0.0004 Ry au, 
 
        Potential amp.        0.0422 Ry
        Total length         54.2615 bohr
 
 
     Adding external electric field

     Computed dipole along edir(3) : 
        Dipole               -0.6288 Ry au,         -1.5983 Debye
        Dipole field         -0.0004 Ry au, 
 
        Potential amp.        0.0422 Ry
        Total length         54.2615 bohr
 

     total cpu time spent up to now is      336.4 secs

     total energy              =   -7398.03803435 Ry
     estimated scf accuracy    <       0.03779021 Ry

     total magnetization       =    80.21 Bohr mag/cell
     absolute magnetization    =    81.78 Bohr mag/cell

     iteration # 28     ecut=    50.00 Ry     beta= 0.10
     Davidson diagonalization with overlap
     ethr =  2.99E-06,  avg # of iterations =  2.0

     negative rho (up, down):  1.840E-04 8.639E-05
 
     Adding external electric field

     Computed dipole along edir(3) : 
        Dipole               -0.6299 Ry au,         -1.6011 Debye
        Dipole field         -0.0004 Ry au, 
 
        Potential amp.        0.0423 Ry
        Total length         54.2615 bohr
 
 
     Adding external electric field

     Computed dipole along edir(3) : 
        Dipole               -0.6299 Ry au,         -1.6011 Debye
        Dipole field         -0.0004 Ry au, 
 
        Potential amp.        0.0423 Ry
        Total length         54.2615 bohr
 

     total cpu time spent up to now is      347.5 secs

     total energy              =   -7398.03805595 Ry
     estimated scf accuracy    <       0.03489078 Ry

     total magnetization       =    80.47 Bohr mag/cell
     absolute magnetization    =    82.04 Bohr mag/cell

     iteration # 29     ecut=    50.00 Ry     beta= 0.10
     Davidson diagonalization with overlap
     ethr =  2.99E-06,  avg # of iterations =  1.0

     negative rho (up, down):  1.611E-04 6.922E-05
 
     Adding external electric field

     Computed dipole along edir(3) : 
        Dipole               -0.6305 Ry au,         -1.6026 Debye
        Dipole field         -0.0004 Ry au, 
 
        Potential amp.        0.0423 Ry
        Total length         54.2615 bohr
 
 
     Adding external electric field

     Computed dipole along edir(3) : 
        Dipole               -0.6305 Ry au,         -1.6026 Debye
        Dipole field         -0.0004 Ry au, 
 
        Potential amp.        0.0423 Ry
        Total length         54.2615 bohr
 

     total cpu time spent up to now is      356.2 secs

     total energy              =   -7398.03788472 Ry
     estimated scf accuracy    <       0.03262368 Ry

     total magnetization       =    80.44 Bohr mag/cell
     absolute magnetization    =    82.08 Bohr mag/cell

     iteration # 30     ecut=    50.00 Ry     beta= 0.10
     Davidson diagonalization with overlap
     ethr =  2.99E-06,  avg # of iterations =  2.0

     negative rho (up, down):  2.199E-04 8.356E-05
 
     Adding external electric field

     Computed dipole along edir(3) : 
        Dipole               -0.6142 Ry au,         -1.5611 Debye
        Dipole field         -0.0004 Ry au, 
 
        Potential amp.        0.0412 Ry
        Total length         54.2615 bohr
 
 
     Adding external electric field

     Computed dipole along edir(3) : 
        Dipole               -0.6142 Ry au,         -1.5611 Debye
        Dipole field         -0.0004 Ry au, 
 
        Potential amp.        0.0412 Ry
        Total length         54.2615 bohr
 

     total cpu time spent up to now is      365.9 secs

     total energy              =   -7398.03639865 Ry
     estimated scf accuracy    <       0.03231369 Ry

     total magnetization       =    80.41 Bohr mag/cell
     absolute magnetization    =    82.06 Bohr mag/cell

     iteration # 31     ecut=    50.00 Ry     beta= 0.10
     Davidson diagonalization with overlap
     ethr =  2.99E-06,  avg # of iterations =  2.0

     negative rho (up, down):  6.491E-04 3.571E-04
 
     Adding external electric field

     Computed dipole along edir(3) : 
        Dipole               -0.5844 Ry au,         -1.4853 Debye
        Dipole field         -0.0004 Ry au, 
 
        Potential amp.        0.0392 Ry
        Total length         54.2615 bohr
 
 
     Adding external electric field

     Computed dipole along edir(3) : 
        Dipole               -0.5844 Ry au,         -1.4853 Debye
        Dipole field         -0.0004 Ry au, 
 
        Potential amp.        0.0392 Ry
        Total length         54.2615 bohr
 

     total cpu time spent up to now is      378.0 secs

     total energy              =   -7398.03519514 Ry
     estimated scf accuracy    <       0.03548523 Ry

     total magnetization       =    80.38 Bohr mag/cell
     absolute magnetization    =    82.00 Bohr mag/cell

     iteration # 32     ecut=    50.00 Ry     beta= 0.10
     Davidson diagonalization with overlap
     ethr =  2.99E-06,  avg # of iterations =  2.0

     negative rho (up, down):  9.427E-04 5.642E-04
 
     Adding external electric field

     Computed dipole along edir(3) : 
        Dipole               -0.5599 Ry au,         -1.4232 Debye
        Dipole field         -0.0003 Ry au, 
 
        Potential amp.        0.0376 Ry
        Total length         54.2615 bohr
 
 
     Adding external electric field

     Computed dipole along edir(3) : 
        Dipole               -0.5599 Ry au,         -1.4232 Debye
        Dipole field         -0.0003 Ry au, 
 
        Potential amp.        0.0376 Ry
        Total length         54.2615 bohr
 

     total cpu time spent up to now is      388.1 secs

     total energy              =   -7398.03492725 Ry
     estimated scf accuracy    <       0.03505655 Ry

     total magnetization       =    80.48 Bohr mag/cell
     absolute magnetization    =    82.07 Bohr mag/cell

     iteration # 33     ecut=    50.00 Ry     beta= 0.10
     Davidson diagonalization with overlap
     ethr =  2.99E-06,  avg # of iterations =  1.5

     negative rho (up, down):  1.837E-03 1.278E-03
 
     Adding external electric field

     Computed dipole along edir(3) : 
        Dipole               -0.5650 Ry au,         -1.4361 Debye
        Dipole field         -0.0003 Ry au, 
 
        Potential amp.        0.0379 Ry
        Total length         54.2615 bohr
 
 
     Adding external electric field

     Computed dipole along edir(3) : 
        Dipole               -0.5650 Ry au,         -1.4361 Debye
        Dipole field         -0.0003 Ry au, 
 
        Potential amp.        0.0379 Ry
        Total length         54.2615 bohr
 

     total cpu time spent up to now is      397.1 secs

     total energy              =   -7398.03351885 Ry
     estimated scf accuracy    <       0.03638547 Ry

     total magnetization       =    80.48 Bohr mag/cell
     absolute magnetization    =    82.04 Bohr mag/cell

     iteration # 34     ecut=    50.00 Ry     beta= 0.10
     Davidson diagonalization with overlap
     ethr =  2.99E-06,  avg # of iterations =  2.0

     negative rho (up, down):  1.837E-03 1.252E-03
 
     Adding external electric field

     Computed dipole along edir(3) : 
        Dipole               -0.5489 Ry au,         -1.3952 Debye
        Dipole field         -0.0003 Ry au, 
 
        Potential amp.        0.0368 Ry
        Total length         54.2615 bohr
 
 
     Adding external electric field

     Computed dipole along edir(3) : 
        Dipole               -0.5489 Ry au,         -1.3952 Debye
        Dipole field         -0.0003 Ry au, 
 
        Potential amp.        0.0368 Ry
        Total length         54.2615 bohr
 

     total cpu time spent up to now is      407.9 secs

     total energy              =   -7398.03366898 Ry
     estimated scf accuracy    <       0.03387914 Ry

     total magnetization       =    80.51 Bohr mag/cell
     absolute magnetization    =    82.05 Bohr mag/cell

     iteration # 35     ecut=    50.00 Ry     beta= 0.10
     Davidson diagonalization with overlap
     ethr =  2.99E-06,  avg # of iterations =  1.5

     negative rho (up, down):  6.659E-04 2.650E-04
 
     Adding external electric field

     Computed dipole along edir(3) : 
        Dipole               -0.5657 Ry au,         -1.4377 Debye
        Dipole field         -0.0003 Ry au, 
 
        Potential amp.        0.0380 Ry
        Total length         54.2615 bohr
 
 
     Adding external electric field

     Computed dipole along edir(3) : 
        Dipole               -0.5657 Ry au,         -1.4377 Debye
        Dipole field         -0.0003 Ry au, 
 
        Potential amp.        0.0380 Ry
        Total length         54.2615 bohr
 

     total cpu time spent up to now is      418.8 secs

     total energy              =   -7398.03151033 Ry
     estimated scf accuracy    <       0.03506428 Ry

     total magnetization       =    80.52 Bohr mag/cell
     absolute magnetization    =    82.02 Bohr mag/cell

     iteration # 36     ecut=    50.00 Ry     beta= 0.10
     Davidson diagonalization with overlap
     ethr =  2.99E-06,  avg # of iterations =  2.0

     negative rho (up, down):  3.666E-04 1.123E-04
 
     Adding external electric field

     Computed dipole along edir(3) : 
        Dipole               -0.5774 Ry au,         -1.4676 Debye
        Dipole field         -0.0004 Ry au, 
 
        Potential amp.        0.0388 Ry
        Total length         54.2615 bohr
 
 
     Adding external electric field

     Computed dipole along edir(3) : 
        Dipole               -0.5774 Ry au,         -1.4676 Debye
        Dipole field         -0.0004 Ry au, 
 
        Potential amp.        0.0388 Ry
        Total length         54.2615 bohr
 

     total cpu time spent up to now is      428.8 secs

     total energy              =   -7398.03267498 Ry
     estimated scf accuracy    <       0.02252087 Ry

     total magnetization       =    80.43 Bohr mag/cell
     absolute magnetization    =    82.02 Bohr mag/cell

     iteration # 37     ecut=    50.00 Ry     beta= 0.10
     Davidson diagonalization with overlap
     ethr =  2.09E-06,  avg # of iterations =  1.5

     negative rho (up, down):  3.646E-04 1.965E-04
 
     Adding external electric field

     Computed dipole along edir(3) : 
        Dipole               -0.6041 Ry au,         -1.5355 Debye
        Dipole field         -0.0004 Ry au, 
 
        Potential amp.        0.0405 Ry
        Total length         54.2615 bohr
 
 
     Adding external electric field

     Computed dipole along edir(3) : 
        Dipole               -0.6041 Ry au,         -1.5355 Debye
        Dipole field         -0.0004 Ry au, 
 
        Potential amp.        0.0405 Ry
        Total length         54.2615 bohr
 

     total cpu time spent up to now is      437.4 secs

     total energy              =   -7398.03574229 Ry
     estimated scf accuracy    <       0.02737966 Ry

     total magnetization       =    80.45 Bohr mag/cell
     absolute magnetization    =    82.10 Bohr mag/cell

     iteration # 38     ecut=    50.00 Ry     beta= 0.10
     Davidson diagonalization with overlap
     ethr =  2.09E-06,  avg # of iterations =  2.0

     negative rho (up, down):  1.064E-03 8.221E-04
 
     Adding external electric field

     Computed dipole along edir(3) : 
        Dipole               -0.5812 Ry au,         -1.4774 Debye
        Dipole field         -0.0004 Ry au, 
 
        Potential amp.        0.0390 Ry
        Total length         54.2615 bohr
 
 
     Adding external electric field

     Computed dipole along edir(3) : 
        Dipole               -0.5812 Ry au,         -1.4774 Debye
        Dipole field         -0.0004 Ry au, 
 
        Potential amp.        0.0390 Ry
        Total length         54.2615 bohr
 

     total cpu time spent up to now is      446.5 secs

     total energy              =   -7398.03630984 Ry
     estimated scf accuracy    <       0.02632481 Ry

     total magnetization       =    80.23 Bohr mag/cell
     absolute magnetization    =    81.86 Bohr mag/cell

     iteration # 39     ecut=    50.00 Ry     beta= 0.10
     Davidson diagonalization with overlap
     ethr =  2.09E-06,  avg # of iterations =  3.0

     negative rho (up, down):  1.098E-03 8.668E-04
 
     Adding external electric field

     Computed dipole along edir(3) : 
        Dipole               -0.5895 Ry au,         -1.4982 Debye
        Dipole field         -0.0004 Ry au, 
 
        Potential amp.        0.0396 Ry
        Total length         54.2615 bohr
 
 
     Adding external electric field

     Computed dipole along edir(3) : 
        Dipole               -0.5895 Ry au,         -1.4982 Debye
        Dipole field         -0.0004 Ry au, 
 
        Potential amp.        0.0396 Ry
        Total length         54.2615 bohr
 

     total cpu time spent up to now is      456.4 secs

     total energy              =   -7398.03726553 Ry
     estimated scf accuracy    <       0.02559328 Ry

     total magnetization       =    80.48 Bohr mag/cell
     absolute magnetization    =    82.07 Bohr mag/cell

     iteration # 40     ecut=    50.00 Ry     beta= 0.10
     Davidson diagonalization with overlap
     ethr =  2.09E-06,  avg # of iterations =  2.0

     negative rho (up, down):  1.120E-03 8.895E-04
 
     Adding external electric field

     Computed dipole along edir(3) : 
        Dipole               -0.5855 Ry au,         -1.4881 Debye
        Dipole field         -0.0004 Ry au, 
 
        Potential amp.        0.0393 Ry
        Total length         54.2615 bohr
 
 
     Adding external electric field

     Computed dipole along edir(3) : 
        Dipole               -0.5855 Ry au,         -1.4881 Debye
        Dipole field         -0.0004 Ry au, 
 
        Potential amp.        0.0393 Ry
        Total length         54.2615 bohr
 

     total cpu time spent up to now is      465.6 secs

     total energy              =   -7398.03741195 Ry
     estimated scf accuracy    <       0.02322177 Ry

     total magnetization       =    80.46 Bohr mag/cell
     absolute magnetization    =    82.01 Bohr mag/cell

     iteration # 41     ecut=    50.00 Ry     beta= 0.10
     Davidson diagonalization with overlap
     ethr =  2.09E-06,  avg # of iterations =  1.5

     negative rho (up, down):  8.334E-04 6.415E-04
 
     Adding external electric field

     Computed dipole along edir(3) : 
        Dipole               -0.6013 Ry au,         -1.5282 Debye
        Dipole field         -0.0004 Ry au, 
 
        Potential amp.        0.0404 Ry
        Total length         54.2615 bohr
 
 
     Adding external electric field

     Computed dipole along edir(3) : 
        Dipole               -0.6013 Ry au,         -1.5282 Debye
        Dipole field         -0.0004 Ry au, 
 
        Potential amp.        0.0404 Ry
        Total length         54.2615 bohr
 

     total cpu time spent up to now is      474.9 secs

     total energy              =   -7398.03787192 Ry
     estimated scf accuracy    <       0.02526171 Ry

     total magnetization       =    80.47 Bohr mag/cell
     absolute magnetization    =    82.05 Bohr mag/cell

     iteration # 42     ecut=    50.00 Ry     beta= 0.10
     Davidson diagonalization with overlap
     ethr =  2.09E-06,  avg # of iterations =  2.0

     negative rho (up, down):  7.429E-04 6.127E-04
 
     Adding external electric field

     Computed dipole along edir(3) : 
        Dipole               -0.5896 Ry au,         -1.4986 Debye
        Dipole field         -0.0004 Ry au, 
 
        Potential amp.        0.0396 Ry
        Total length         54.2615 bohr
 
 
     Adding external electric field

     Computed dipole along edir(3) : 
        Dipole               -0.5896 Ry au,         -1.4986 Debye
        Dipole field         -0.0004 Ry au, 
 
        Potential amp.        0.0396 Ry
        Total length         54.2615 bohr
 

     total cpu time spent up to now is      484.2 secs

     total energy              =   -7398.03823372 Ry
     estimated scf accuracy    <       0.02485239 Ry

     total magnetization       =    80.49 Bohr mag/cell
     absolute magnetization    =    82.05 Bohr mag/cell

     iteration # 43     ecut=    50.00 Ry     beta= 0.10
     Davidson diagonalization with overlap
     ethr =  2.09E-06,  avg # of iterations =  1.5

     negative rho (up, down):  5.962E-04 4.641E-04
 
     Adding external electric field

     Computed dipole along edir(3) : 
        Dipole               -0.5904 Ry au,         -1.5006 Debye
        Dipole field         -0.0004 Ry au, 
 
        Potential amp.        0.0396 Ry
        Total length         54.2615 bohr
 
 
     Adding external electric field

     Computed dipole along edir(3) : 
        Dipole               -0.5904 Ry au,         -1.5006 Debye
        Dipole field         -0.0004 Ry au, 
 
        Potential amp.        0.0396 Ry
        Total length         54.2615 bohr
 

     total cpu time spent up to now is      492.6 secs

     total energy              =   -7398.03827374 Ry
     estimated scf accuracy    <       0.02141717 Ry

     total magnetization       =    80.40 Bohr mag/cell
     absolute magnetization    =    81.96 Bohr mag/cell

     iteration # 44     ecut=    50.00 Ry     beta= 0.10
     Davidson diagonalization with overlap
     ethr =  1.99E-06,  avg # of iterations =  1.5

     negative rho (up, down):  1.706E-03 1.498E-03
 
     Adding external electric field

     Computed dipole along edir(3) : 
        Dipole               -0.5827 Ry au,         -1.4811 Debye
        Dipole field         -0.0004 Ry au, 
 
        Potential amp.        0.0391 Ry
        Total length         54.2615 bohr
 
 
     Adding external electric field

     Computed dipole along edir(3) : 
        Dipole               -0.5827 Ry au,         -1.4811 Debye
        Dipole field         -0.0004 Ry au, 
 
        Potential amp.        0.0391 Ry
        Total length         54.2615 bohr
 

     total cpu time spent up to now is      501.2 secs

     total energy              =   -7398.03744380 Ry
     estimated scf accuracy    <       0.02266444 Ry

     total magnetization       =    80.41 Bohr mag/cell
     absolute magnetization    =    81.97 Bohr mag/cell

     iteration # 45     ecut=    50.00 Ry     beta= 0.10
     Davidson diagonalization with overlap
     ethr =  1.99E-06,  avg # of iterations =  2.0

     negative rho (up, down):  1.587E-03 1.410E-03
 
     Adding external electric field

     Computed dipole along edir(3) : 
        Dipole               -0.5970 Ry au,         -1.5175 Debye
        Dipole field         -0.0004 Ry au, 
 
        Potential amp.        0.0401 Ry
        Total length         54.2615 bohr
 
 
     Adding external electric field

     Computed dipole along edir(3) : 
        Dipole               -0.5970 Ry au,         -1.5175 Debye
        Dipole field         -0.0004 Ry au, 
 
        Potential amp.        0.0401 Ry
        Total length         54.2615 bohr
 

     total cpu time spent up to now is      510.3 secs

     total energy              =   -7398.03787050 Ry
     estimated scf accuracy    <       0.02249030 Ry

     total magnetization       =    80.46 Bohr mag/cell
     absolute magnetization    =    81.97 Bohr mag/cell

     iteration # 46     ecut=    50.00 Ry     beta= 0.10
     Davidson diagonalization with overlap
     ethr =  1.99E-06,  avg # of iterations =  1.0

     negative rho (up, down):  2.333E-03 1.844E-03
 
     Adding external electric field

     Computed dipole along edir(3) : 
        Dipole               -0.5104 Ry au,         -1.2974 Debye
        Dipole field         -0.0003 Ry au, 
 
        Potential amp.        0.0343 Ry
        Total length         54.2615 bohr
 
 
     Adding external electric field

     Computed dipole along edir(3) : 
        Dipole               -0.5104 Ry au,         -1.2974 Debye
        Dipole field         -0.0003 Ry au, 
 
        Potential amp.        0.0343 Ry
        Total length         54.2615 bohr
 

     total cpu time spent up to now is      518.9 secs

     total energy              =   -7398.03562314 Ry
     estimated scf accuracy    <       0.02084550 Ry

     total magnetization       =    80.43 Bohr mag/cell
     absolute magnetization    =    81.96 Bohr mag/cell

     iteration # 47     ecut=    50.00 Ry     beta= 0.10
     Davidson diagonalization with overlap
     ethr =  1.93E-06,  avg # of iterations =  2.0

     negative rho (up, down):  1.780E-03 1.580E-03
 
     Adding external electric field

     Computed dipole along edir(3) : 
        Dipole               -0.5655 Ry au,         -1.4373 Debye
        Dipole field         -0.0003 Ry au, 
 
        Potential amp.        0.0380 Ry
        Total length         54.2615 bohr
 
 
     Adding external electric field

     Computed dipole along edir(3) : 
        Dipole               -0.5655 Ry au,         -1.4373 Debye
        Dipole field         -0.0003 Ry au, 
 
        Potential amp.        0.0380 Ry
        Total length         54.2615 bohr
 

     total cpu time spent up to now is      528.2 secs

     total energy              =   -7398.03743572 Ry
     estimated scf accuracy    <       0.02133763 Ry

     total magnetization       =    80.47 Bohr mag/cell
     absolute magnetization    =    82.00 Bohr mag/cell

     iteration # 48     ecut=    50.00 Ry     beta= 0.10
     Davidson diagonalization with overlap
     ethr =  1.93E-06,  avg # of iterations =  2.0

     negative rho (up, down):  2.086E-03 1.944E-03
 
     Adding external electric field

     Computed dipole along edir(3) : 
        Dipole               -0.5803 Ry au,         -1.4749 Debye
        Dipole field         -0.0004 Ry au, 
 
        Potential amp.        0.0389 Ry
        Total length         54.2615 bohr
 
 
     Adding external electric field

     Computed dipole along edir(3) : 
        Dipole               -0.5803 Ry au,         -1.4749 Debye
        Dipole field         -0.0004 Ry au, 
 
        Potential amp.        0.0389 Ry
        Total length         54.2615 bohr
 

     total cpu time spent up to now is      537.8 secs

     total energy              =   -7398.03793754 Ry
     estimated scf accuracy    <       0.01941028 Ry

     total magnetization       =    80.40 Bohr mag/cell
     absolute magnetization    =    81.90 Bohr mag/cell

     iteration # 49     ecut=    50.00 Ry     beta= 0.10
     Davidson diagonalization with overlap
     ethr =  1.80E-06,  avg # of iterations =  1.5

     negative rho (up, down):  1.477E-03 1.416E-03
 
     Adding external electric field

     Computed dipole along edir(3) : 
        Dipole               -0.6020 Ry au,         -1.5302 Debye
        Dipole field         -0.0004 Ry au, 
 
        Potential amp.        0.0404 Ry
        Total length         54.2615 bohr
 
 
     Adding external electric field

     Computed dipole along edir(3) : 
        Dipole               -0.6020 Ry au,         -1.5302 Debye
        Dipole field         -0.0004 Ry au, 
 
        Potential amp.        0.0404 Ry
        Total length         54.2615 bohr
 

     total cpu time spent up to now is      546.6 secs

     total energy              =   -7398.03868017 Ry
     estimated scf accuracy    <       0.01868470 Ry

     total magnetization       =    80.41 Bohr mag/cell
     absolute magnetization    =    81.94 Bohr mag/cell

     iteration # 50     ecut=    50.00 Ry     beta= 0.10
     Davidson diagonalization with overlap
     ethr =  1.73E-06,  avg # of iterations =  2.0

     negative rho (up, down):  1.843E-03 1.714E-03
 
     Adding external electric field

     Computed dipole along edir(3) : 
        Dipole               -0.5927 Ry au,         -1.5066 Debye
        Dipole field         -0.0004 Ry au, 
 
        Potential amp.        0.0398 Ry
        Total length         54.2615 bohr
 
 
     Adding external electric field

     Computed dipole along edir(3) : 
        Dipole               -0.5927 Ry au,         -1.5066 Debye
        Dipole field         -0.0004 Ry au, 
 
        Potential amp.        0.0398 Ry
        Total length         54.2615 bohr
 

     total cpu time spent up to now is      556.0 secs

     total energy              =   -7398.03813893 Ry
     estimated scf accuracy    <       0.01903602 Ry

     total magnetization       =    80.38 Bohr mag/cell
     absolute magnetization    =    81.94 Bohr mag/cell

     iteration # 51     ecut=    50.00 Ry     beta= 0.10
     Davidson diagonalization with overlap
     ethr =  1.73E-06,  avg # of iterations =  1.5

     negative rho (up, down):  2.477E-03 2.456E-03
 
     Adding external electric field

     Computed dipole along edir(3) : 
        Dipole               -0.4452 Ry au,         -1.1316 Debye
        Dipole field         -0.0003 Ry au, 
 
        Potential amp.        0.0299 Ry
        Total length         54.2615 bohr
 
 
     Adding external electric field

     Computed dipole along edir(3) : 
        Dipole               -0.4452 Ry au,         -1.1316 Debye
        Dipole field         -0.0003 Ry au, 
 
        Potential amp.        0.0299 Ry
        Total length         54.2615 bohr
 

     total cpu time spent up to now is      564.7 secs

     total energy              =   -7398.03733963 Ry
     estimated scf accuracy    <       0.01944290 Ry

     total magnetization       =    80.40 Bohr mag/cell
     absolute magnetization    =    81.94 Bohr mag/cell

     iteration # 52     ecut=    50.00 Ry     beta= 0.10
     Davidson diagonalization with overlap
     ethr =  1.73E-06,  avg # of iterations =  3.5

     negative rho (up, down):  2.358E-03 2.302E-03
 
     Adding external electric field

     Computed dipole along edir(3) : 
        Dipole               -0.4463 Ry au,         -1.1345 Debye
        Dipole field         -0.0003 Ry au, 
 
        Potential amp.        0.0300 Ry
        Total length         54.2615 bohr
 
 
     Adding external electric field

     Computed dipole along edir(3) : 
        Dipole               -0.4463 Ry au,         -1.1345 Debye
        Dipole field         -0.0003 Ry au, 
 
        Potential amp.        0.0300 Ry
        Total length         54.2615 bohr
 

     total cpu time spent up to now is      574.8 secs

     total energy              =   -7398.03772935 Ry
     estimated scf accuracy    <       0.01270178 Ry

     total magnetization       =    80.33 Bohr mag/cell
     absolute magnetization    =    81.88 Bohr mag/cell

     iteration # 53     ecut=    50.00 Ry     beta= 0.10
     Davidson diagonalization with overlap
     ethr =  1.18E-06,  avg # of iterations =  1.5

     negative rho (up, down):  2.413E-03 2.363E-03
 
     Adding external electric field

     Computed dipole along edir(3) : 
        Dipole               -0.4208 Ry au,         -1.0696 Debye
        Dipole field         -0.0003 Ry au, 
 
        Potential amp.        0.0282 Ry
        Total length         54.2615 bohr
 
 
     Adding external electric field

     Computed dipole along edir(3) : 
        Dipole               -0.4208 Ry au,         -1.0696 Debye
        Dipole field         -0.0003 Ry au, 
 
        Potential amp.        0.0282 Ry
        Total length         54.2615 bohr
 

     total cpu time spent up to now is      583.6 secs

     total energy              =   -7398.03771873 Ry
     estimated scf accuracy    <       0.01311888 Ry

     total magnetization       =    80.33 Bohr mag/cell
     absolute magnetization    =    81.89 Bohr mag/cell

     iteration # 54     ecut=    50.00 Ry     beta= 0.10
     Davidson diagonalization with overlap
     ethr =  1.18E-06,  avg # of iterations =  2.0

     negative rho (up, down):  3.001E-03 2.896E-03
 
     Adding external electric field

     Computed dipole along edir(3) : 
        Dipole               -0.4252 Ry au,         -1.0807 Debye
        Dipole field         -0.0003 Ry au, 
 
        Potential amp.        0.0285 Ry
        Total length         54.2615 bohr
 
 
     Adding external electric field

     Computed dipole along edir(3) : 
        Dipole               -0.4252 Ry au,         -1.0807 Debye
        Dipole field         -0.0003 Ry au, 
 
        Potential amp.        0.0285 Ry
        Total length         54.2615 bohr
 

     total cpu time spent up to now is      593.2 secs

     total energy              =   -7398.03759916 Ry
     estimated scf accuracy    <       0.01336104 Ry

     total magnetization       =    80.33 Bohr mag/cell
     absolute magnetization    =    81.88 Bohr mag/cell

     iteration # 55     ecut=    50.00 Ry     beta= 0.10
     Davidson diagonalization with overlap
     ethr =  1.18E-06,  avg # of iterations =  1.5

     negative rho (up, down):  3.948E-03 3.700E-03
 
     Adding external electric field

     Computed dipole along edir(3) : 
        Dipole               -0.3830 Ry au,         -0.9736 Debye
        Dipole field         -0.0002 Ry au, 
 
        Potential amp.        0.0257 Ry
        Total length         54.2615 bohr
 
 
     Adding external electric field

     Computed dipole along edir(3) : 
        Dipole               -0.3830 Ry au,         -0.9736 Debye
        Dipole field         -0.0002 Ry au, 
 
        Potential amp.        0.0257 Ry
        Total length         54.2615 bohr
 

     total cpu time spent up to now is      601.8 secs

     total energy              =   -7398.03721980 Ry
     estimated scf accuracy    <       0.01325519 Ry

     total magnetization       =    80.35 Bohr mag/cell
     absolute magnetization    =    81.87 Bohr mag/cell

     iteration # 56     ecut=    50.00 Ry     beta= 0.10
     Davidson diagonalization with overlap
     c_bands:  5 eigenvalues not converged
     ethr =  1.18E-06,  avg # of iterations = 11.0

     negative rho (up, down):  3.172E-03 3.072E-03
 
     Adding external electric field

     Computed dipole along edir(3) : 
        Dipole               -0.4119 Ry au,         -1.0470 Debye
        Dipole field         -0.0003 Ry au, 
 
        Potential amp.        0.0276 Ry
        Total length         54.2615 bohr
 
 
     Adding external electric field

     Computed dipole along edir(3) : 
        Dipole               -0.4119 Ry au,         -1.0470 Debye
        Dipole field         -0.0003 Ry au, 
 
        Potential amp.        0.0276 Ry
        Total length         54.2615 bohr
 

     total cpu time spent up to now is      616.3 secs

     total energy              =   -7398.03755594 Ry
     estimated scf accuracy    <       0.01328943 Ry

     total magnetization       =    80.35 Bohr mag/cell
     absolute magnetization    =    81.87 Bohr mag/cell

     iteration # 57     ecut=    50.00 Ry     beta= 0.10
     Davidson diagonalization with overlap
     ethr =  1.18E-06,  avg # of iterations =  2.0

     negative rho (up, down):  5.809E-03 5.472E-03
 
     Adding external electric field

     Computed dipole along edir(3) : 
        Dipole               -0.3608 Ry au,         -0.9169 Debye
        Dipole field         -0.0002 Ry au, 
 
        Potential amp.        0.0242 Ry
        Total length         54.2615 bohr
 
 
     Adding external electric field

     Computed dipole along edir(3) : 
        Dipole               -0.3608 Ry au,         -0.9169 Debye
        Dipole field         -0.0002 Ry au, 
 
        Potential amp.        0.0242 Ry
        Total length         54.2615 bohr
 

     total cpu time spent up to now is      625.9 secs

     total energy              =   -7398.03693805 Ry
     estimated scf accuracy    <       0.01348137 Ry

     total magnetization       =    80.34 Bohr mag/cell
     absolute magnetization    =    81.84 Bohr mag/cell

     iteration # 58     ecut=    50.00 Ry     beta= 0.10
     Davidson diagonalization with overlap
     ethr =  1.18E-06,  avg # of iterations =  2.0

     negative rho (up, down):  5.474E-03 5.113E-03
 
     Adding external electric field

     Computed dipole along edir(3) : 
[...]
    -6.0009  -5.9771  -5.9499  -5.9404  -5.8977  -5.8971  -5.8639  -5.8573
    -5.8141  -5.7972  -5.7617  -5.7355  -5.7314  -5.7231  -5.6999  -5.6877
    -5.6794  -5.6678  -5.6470  -5.6282  -5.6221  -5.5972  -5.5526  -5.5100
    -5.4771  -5.4425  -5.4236  -5.3990  -5.3870  -5.3497  -5.3298  -5.2911
    -5.2450  -5.2189  -5.1951  -5.1836  -5.1699  -5.0831  -5.0793  -5.0577
    -4.9874  -4.9825  -4.9481  -4.9144  -4.8952  -4.8801  -4.8671  -4.8078
    -4.7788  -4.7678  -4.7419  -4.7332  -4.6468  -4.6433  -4.5757  -4.5590
    -4.5453  -4.5211  -4.4797  -4.4644  -4.4243  -4.3949  -4.3841  -4.3737
    -4.3378  -4.2967  -4.2779  -4.2237  -4.1773  -4.1547  -4.1374  -4.0893
    -4.0821  -4.0450  -4.0322  -4.0093  -3.9620  -3.9546  -3.9180  -3.9041
    -3.8984  -3.8531  -3.8346  -3.8204  -3.7976  -3.7733  -3.7452  -3.7354
    -3.7112  -3.7015  -3.6627  -3.6497  -3.6418  -3.6276  -3.6190  -3.5834
    -3.5519  -3.5298  -3.5267  -3.5231  -3.5035  -3.4866  -3.4475  -3.4380
    -3.4238  -3.4044  -3.3951  -3.3487  -3.3356  -3.3121  -3.2864  -3.2533
    -3.2433  -3.2180  -3.2068  -3.1884  -3.1751  -3.1684  -3.1582  -3.1484
    -3.1378  -3.0746  -3.0436  -3.0362  -3.0235  -3.0021  -2.9724  -2.9544
    -2.9365  -2.9137  -2.9026  -2.8739  -2.8625  -2.8519  -2.8288  -2.8190
    -2.7961  -2.7898  -2.7873  -2.7566  -2.7526  -2.7462  -2.7337  -2.6989
    -2.6891  -2.6810  -2.6568  -2.6441  -2.6333  -2.6214  -2.6030  -2.5788
    -2.5547  -2.5465  -2.5338  -2.4961  -2.4897  -2.4834  -2.4774  -2.4445
    -2.4268  -2.4053  -2.3977  -2.3706  -2.3521  -2.3237  -2.3043  -2.2902
    -2.2630  -2.2485  -2.2430  -2.2047  -2.1877  -2.1553  -2.1351  -2.1274
    -2.1086  -2.0972  -2.0809  -2.0771  -2.0679  -2.0561  -2.0110  -1.9951
    -1.9838  -1.9749  -1.9608  -1.9445  -1.9308  -1.9202  -1.8936  -1.8647
    -1.8354  -1.8187  -1.7928  -1.7719  -1.7488  -1.7380  -1.7012  -1.6970
    -1.6889  -1.6557  -1.6399  -1.6298  -1.6167  -1.6090  -1.5843  -1.5532
    -1.5428  -1.5308  -1.4935  -1.4759  -1.4489  -1.4370  -1.4307  -1.4271
    -1.4102  -1.3807  -1.3272  -1.3210  -1.2983  -1.2506  -1.2383  -1.2148
    -1.1540  -1.1042  -1.0781  -1.0517  -1.0131  -0.9256  -0.8942  -0.8755
    -0.7794  -0.6693  -0.6126  -0.5980  -0.4624  -0.3660  -0.3024  -0.2583
     0.0995   0.1201   0.1542   0.1876   0.2282   0.2409   0.2551   0.2589
     0.2734   0.2824   0.2959   0.2997   0.3062   0.3253   0.3414   0.3433
     0.3500   0.3515   0.3699   0.3761   0.3828   0.3855   0.3908   0.4015
     0.4133   0.4153   0.4225   0.4357   0.4441   0.4444   0.4545   0.4588
     0.4631   0.4719   0.4740   0.4794   0.4932   0.4968   0.5049   0.5106
     0.5136   0.5270   0.5355   0.5460   0.5510   0.5547   0.5592   0.5680
     0.5806   0.5841   0.5961   0.6007   0.6066   0.6130   0.6193   0.6305
     0.6380   0.6525   0.6633   0.6720   0.6744   0.6781   0.6828   0.6878
     0.6950   0.7035   0.7070   0.7149   0.7167   0.7367   0.7404   0.7444
     0.7479   0.7516   0.7775   0.7828   0.7876   0.7957   0.7995   0.8148
     0.8242   0.8318   0.8439   0.8488   0.8611   0.8643   0.8764   0.8792
     0.8941   0.9128   0.9203   0.9269   0.9525   0.9866   0.9874   1.0342
     1.0726   1.1365   1.5961   1.6589   1.6968   1.7013   1.7145   1.7400
     1.7489   1.8368   1.8623   1.8794   1.8907   1.9303   1.9367   1.9604
     1.9868   1.9900   2.0080   2.0210   2.0395   2.0656   2.0792   2.1243
     2.1495   2.1515   2.1721   2.1966   2.2089   2.2126   2.2209   2.2296
     2.2452   2.2526   2.2591   2.2789   2.2883   2.2975   2.3127   2.3221
     2.3320   2.3478   2.3729   2.3878   2.3985   2.4060   2.4188   2.4409
     2.4445   2.4641   2.4744   2.4917   2.5039   2.5181   2.5377   2.5461
     2.5725   2.5856   2.6074   2.6325   2.6683   2.7236   2.7304   2.7600
     2.7877   2.8199   2.8361   2.9050   2.9320   3.4708   3.5912   3.6372
     3.6657   3.7613   3.8289   3.8445   3.8624   4.0024   4.0658   4.4901
     4.6053   4.6475   4.7722   4.9242   4.9468   5.0213   5.4161   6.2949
     6.3605   6.5438   6.5819   6.7690   6.8283   6.8559   6.8680   6.9339
     6.9872   7.0679   7.1057   7.1640   7.2796   7.3236   7.3630   7.4714
     7.5005   7.5502   7.6400   7.6658   7.6913   7.7301   7.7858   7.8010
     7.8484   7.9210   7.9368   7.9925   8.0080   8.0286   8.0477   8.0658
     8.0934   8.1059   8.1549   8.1994   8.2375   8.2522   8.2945   8.3271
     8.3662   8.3936   8.4246   8.4423   8.4588   8.4736   8.4923   8.5082
     8.5398   8.5517   8.5757   8.6086   8.6150   8.6481   8.6510   8.6864
     8.6990   8.7553   8.7784   8.7948   8.8183   8.8344   8.8863

     the Fermi energy is     1.5662 ev

!    total energy              =   -7398.03733425 Ry
     estimated scf accuracy    <       0.00000091 Ry
     smearing contrib. (-TS)   =      -0.01457456 Ry
     internal energy E=F+TS    =   -7398.02275969 Ry

     The total energy is F=E-TS. E is the sum of the following terms:
     one-electron contribution =  -91730.78771165 Ry
     hartree contribution      =   46513.10558504 Ry
     xc contribution           =   -2260.25213102 Ry
     ewald contribution        =   40081.74517812 Ry
     Dispersion Correction     =      -1.83369550 Ry
     electric field correction =       0.00001532 Ry

     total magnetization       =    80.31 Bohr mag/cell
     absolute magnetization    =    81.85 Bohr mag/cell

     convergence has been achieved in 104 iterations

     negative rho (up, down):  9.277E-04 5.463E-04

     Forces acting on atoms (cartesian axes, Ry/au):

     atom    1 type  2   force =     0.03099849   -0.01972537   -0.01624635
     atom    2 type  1   force =     0.00205617   -0.00393885   -0.01058452
     atom    3 type  1   force =    -0.02148126   -0.02061218    0.01810786
     atom    4 type  1   force =     0.00141962    0.01020715   -0.01270527
     atom    5 type  1   force =    -0.00467060    0.02893618   -0.01839709
     atom    6 type  1   force =     0.00590533    0.00058964   -0.00044596
     atom    7 type  1   force =     0.02680928   -0.02106295    0.01736852
     atom    8 type  1   force =    -0.00953415   -0.00305987   -0.01095010
     atom    9 type  1   force =    -0.02986985   -0.01808884    0.01605989
     atom   10 type  1   force =    -0.00117560    0.00808093   -0.01298678
     atom   11 type  1   force =    -0.01328806    0.03029353   -0.02058186
     atom   12 type  1   force =     0.00123665    0.00669582   -0.00411058
     atom   13 type  3   force =     0.05102598   -0.11007623    0.00917992
     atom   14 type  3   force =    -0.02902851    0.03594777   -0.06517107
     atom   15 type  3   force =    -0.00919880    0.17549282   -0.08316182
     atom   16 type  3   force =     0.06069634    0.00062392   -0.00442993
     atom   17 type  4   force =     0.01522365   -0.02177319   -0.00967889
     atom   18 type  4   force =    -0.00534091    0.00475196    0.02961413
     atom   19 type  4   force =     0.00210350    0.00097326    0.03073544
     atom   20 type  4   force =     0.00510887    0.00192236    0.00250217
     atom   21 type  4   force =     0.00063510   -0.01193979   -0.00004382
     atom   22 type  4   force =    -0.00088458    0.00380515    0.03267043
     atom   23 type  4   force =    -0.00610886    0.01461177    0.02759387
     atom   24 type  4   force =     0.00864550    0.00324237   -0.00423952
     atom   25 type  4   force =     0.00644519   -0.00337616    0.00159509
     atom   26 type  4   force =     0.03112255   -0.17821174    0.00728920
     atom   27 type  4   force =     0.00299519    0.00098509    0.00174542
     atom   28 type  4   force =    -0.01693074    0.00168179    0.00478932
     atom   29 type  4   force =     0.09122075    0.00314020    0.00809502
     atom   30 type  4   force =     0.01313524   -0.02502581   -0.00084601
     atom   31 type  4   force =    -0.03840438    0.13329180   -0.00014750
     atom   32 type  4   force =    -0.00563417   -0.01184854    0.00655372
     atom   33 type  3   force =     0.04156853   -0.11926164    0.00963201
     atom   34 type  3   force =    -0.10167777    0.04260002   -0.07573439
     atom   35 type  3   force =    -0.01350541    0.16599899   -0.08810052
     atom   36 type  3   force =    -0.00359798    0.00264679   -0.01048598
     atom   37 type  4   force =     0.00829069   -0.01461264   -0.00226699
     atom   38 type  4   force =    -0.00581400   -0.00175665    0.02739001
     atom   39 type  4   force =    -0.00471471    0.00720825    0.03217296
     atom   40 type  4   force =     0.00126567    0.00008167    0.00260491
     atom   41 type  4   force =    -0.00144319   -0.00954283   -0.00157155
     atom   42 type  4   force =     0.00546103   -0.00059317    0.02951686
     atom   43 type  4   force =    -0.01048466    0.01344908    0.02719529
     atom   44 type  4   force =     0.00441929    0.00349747   -0.00441010
     atom   45 type  4   force =    -0.00036108   -0.00076032    0.00204671
     atom   46 type  4   force =     0.02811209   -0.17045549    0.00545195
     atom   47 type  4   force =    -0.06542815   -0.00074177   -0.00305289
     atom   48 type  4   force =    -0.01976146    0.00392059    0.00533810
     atom   49 type  4   force =     0.01394999    0.00084977    0.00209132
     atom   50 type  4   force =     0.00798623   -0.02426933   -0.00011210
     atom   51 type  4   force =    -0.03970871    0.13330672   -0.00131181
     atom   52 type  4   force =    -0.00787982   -0.01064062    0.00879536
     atom   53 type  2   force =     0.00638713   -0.00735922    0.00579793
     atom   54 type  1   force =     0.00036523   -0.00387396    0.00811400
     atom   55 type  1   force =     0.00505287   -0.00624236    0.00668542
     atom   56 type  1   force =    -0.00056345    0.00733583   -0.00140079
     atom   57 type  1   force =     0.00070036    0.02177880   -0.01401277
     atom   58 type  1   force =     0.00137470   -0.00307571    0.00245431
     atom   59 type  1   force =     0.00244437   -0.01024629    0.00394720
     atom   60 type  1   force =    -0.00800293   -0.00417596    0.00591392
     atom   61 type  1   force =    -0.00486436   -0.00495302    0.00660599
     atom   62 type  1   force =    -0.00306818    0.00583254   -0.00128814
     atom   63 type  1   force =    -0.01112873    0.02483407   -0.01749699
     atom   64 type  1   force =    -0.00211990    0.00149545   -0.00081811
     atom   65 type  3   force =     0.04597960   -0.12119771    0.01734229
     atom   66 type  3   force =     0.00147171   -0.00420714    0.00055158
     atom   67 type  3   force =    -0.04065829    0.12351397   -0.00701985
     atom   68 type  3   force =     0.06302990    0.00001802    0.00887569
     atom   69 type  4   force =     0.01310111   -0.01663977   -0.00230967
     atom   70 type  4   force =    -0.00161738    0.00326991   -0.00068189
     atom   71 type  4   force =    -0.00190671    0.00341064    0.00527290
     atom   72 type  4   force =     0.00478424    0.00126141    0.00121140
     atom   73 type  4   force =     0.00813761   -0.01717788    0.01179402
     atom   74 type  4   force =    -0.00417908   -0.00356822    0.00951442
     atom   75 type  4   force =     0.00350514    0.00862272    0.00476183
     atom   76 type  4   force =     0.00566105    0.00024184    0.00053768
     atom   77 type  4   force =     0.00599747   -0.00230193   -0.00119380
     atom   78 type  4   force =     0.04526383   -0.14057441    0.00585623
     atom   79 type  4   force =     0.00073951    0.00019303   -0.00062818
     atom   80 type  4   force =     0.00166995    0.00192041    0.00231645
     atom   81 type  4   force =     0.06724428    0.00008828    0.00651461
     atom   82 type  4   force =     0.00030597    0.00242075    0.00139733
     atom   83 type  4   force =    -0.03923705    0.13785509   -0.00245792
     atom   84 type  4   force =    -0.00177983   -0.01025744    0.00324007
     atom   85 type  3   force =     0.03899006   -0.12510421    0.02579055
     atom   86 type  3   force =    -0.06322078   -0.00150033   -0.00362835
     atom   87 type  3   force =    -0.04614242    0.12073878   -0.01057907
     atom   88 type  3   force =    -0.00054654   -0.00006764    0.00137881
     atom   89 type  4   force =     0.00876793   -0.01504932   -0.00508198
     atom   90 type  4   force =    -0.00450603    0.00090655   -0.00101862
     atom   91 type  4   force =    -0.00956109    0.00837070    0.00559064
     atom   92 type  4   force =     0.00026034   -0.00008135    0.00072862
     atom   93 type  4   force =     0.00146148   -0.01150759    0.00024134
     atom   94 type  4   force =    -0.00896479   -0.00305346    0.00844245
     atom   95 type  4   force =    -0.00034440    0.00771932    0.00318787
     atom   96 type  4   force =    -0.00025932    0.00157139   -0.00077396
     atom   97 type  4   force =    -0.00138679    0.00145030    0.00043445
     atom   98 type  4   force =     0.04054781   -0.13896074    0.00494700
     atom   99 type  4   force =    -0.06740577   -0.00101912   -0.00536898
     atom  100 type  4   force =    -0.00034356    0.00285345    0.00299498
     atom  101 type  4   force =    -0.00132544    0.00004152    0.00154916
     atom  102 type  4   force =    -0.00684797    0.00548216    0.00164587
     atom  103 type  4   force =    -0.03995312    0.13601548   -0.00424781
     atom  104 type  4   force =    -0.00588725   -0.00974447    0.00497483
     atom  105 type  2   force =     0.00048400   -0.00032018   -0.00109513
     atom  106 type  1   force =     0.00001952   -0.00042029   -0.00043174
     atom  107 type  1   force =     0.00024964   -0.00013974    0.00004037
     atom  108 type  1   force =    -0.00001288   -0.00052212   -0.00049740
     atom  109 type  1   force =     0.00023530   -0.00013778   -0.00058456
     atom  110 type  1   force =     0.00042681    0.00048646   -0.00066465
     atom  111 type  1   force =     0.00011473   -0.00037213   -0.00041204
     atom  112 type  1   force =    -0.00107277   -0.00192640    0.00141945
     atom  113 type  1   force =     0.00004359    0.00010773   -0.00037968
     atom  114 type  1   force =    -0.00005119   -0.00059217   -0.00009120
     atom  115 type  1   force =    -0.00003961   -0.00023125   -0.00012822
     atom  116 type  1   force =    -0.00031020   -0.00004927   -0.00057671
     atom  117 type  3   force =    -0.00021097   -0.00034693   -0.00007692
     atom  118 type  3   force =     0.00016264    0.00013913    0.00011213
     atom  119 type  3   force =    -0.00023896   -0.00037691    0.00025156
     atom  120 type  3   force =     0.00024423   -0.00006356   -0.00011947
     atom  121 type  4   force =    -0.00001031    0.00053924   -0.00063905
     atom  122 type  4   force =    -0.00034087   -0.00013949    0.00019030
     atom  123 type  4   force =     0.00025839    0.00001448   -0.00005568
     atom  124 type  4   force =    -0.00061700    0.00007303   -0.00059918
     atom  125 type  4   force =    -0.00002363   -0.00019949    0.00030729
     atom  126 type  4   force =    -0.00000114   -0.00002506    0.00021196
     atom  127 type  4   force =     0.00000150   -0.00003443   -0.00016366
     atom  128 type  4   force =     0.00005183    0.00002552    0.00067334
     atom  129 type  4   force =    -0.00048074    0.00051643    0.00007050
     atom  130 type  4   force =    -0.00002009   -0.00016794    0.00005839
     atom  131 type  4   force =    -0.00045552   -0.00004515   -0.00000161
     atom  132 type  4   force =     0.00027897    0.00020243   -0.00010021
     atom  133 type  4   force =    -0.00010861   -0.00053359   -0.00014155
     atom  134 type  4   force =    -0.00015732    0.00002400    0.00026803
     atom  135 type  4   force =    -0.00018558   -0.00013979   -0.00011643
     atom  136 type  4   force =     0.00016832   -0.00057432    0.00022486
     atom  137 type  3   force =    -0.00058236    0.00052520   -0.00041298
     atom  138 type  3   force =     0.00001841   -0.00023572   -0.00015279
     atom  139 type  3   force =     0.00035212   -0.00019033   -0.00006341
     atom  140 type  3   force =     0.00019944   -0.00052528    0.00020766
     atom  141 type  4   force =    -0.00018434   -0.00045321   -0.00009403
     atom  142 type  4   force =    -0.00021541   -0.00038990    0.00007534
     atom  143 type  4   force =     0.00011745    0.00011127   -0.00012276
     atom  144 type  4   force =     0.00000729   -0.00014977   -0.00029205
     atom  145 type  4   force =     0.00052812   -0.00033972    0.00016151
     atom  146 type  4   force =     0.00011315    0.00008997   -0.00010173
     atom  147 type  4   force =    -0.00009714   -0.00015938    0.00010640
     atom  148 type  4   force =    -0.00016775   -0.00004508    0.00008991
     atom  149 type  4   force =     0.00028679   -0.00003828   -0.00011736
     atom  150 type  4   force =     0.00014653   -0.00025051   -0.00008948
     atom  151 type  4   force =     0.00017705    0.00016222   -0.00013959
     atom  152 type  4   force =    -0.00006599   -0.00022969    0.00002719
     atom  153 type  4   force =    -0.00009431   -0.00007828   -0.00024668
     atom  154 type  4   force =    -0.00021594   -0.00025429   -0.00011912
     atom  155 type  4   force =     0.00054958    0.00052415   -0.00022904
     atom  156 type  4   force =     0.00005954   -0.00030539    0.00011313
     atom  157 type  4   force =    -0.00605569    0.00770480    0.00069069
     atom  158 type  5   force =     0.00738935   -0.00500526   -0.00121091

     Total force =     0.665333     Total SCF correction =     0.004927
 
     init_run     :      5.74s CPU      6.43s WALL (       1 calls)
     electrons    :    997.62s CPU   1048.34s WALL (       1 calls)
     forces       :      3.02s CPU      3.39s WALL (       1 calls)
     force_london :      0.08s CPU      0.08s WALL (       1 calls)

     Called by init_run:
     wfcinit      :      3.39s CPU      3.54s WALL (       1 calls)
     potinit      :      0.53s CPU      0.72s WALL (       1 calls)
     hinit0       :      0.95s CPU      1.10s WALL (       1 calls)

     Called by electrons:
     c_bands      :    775.85s CPU    802.20s WALL (     104 calls)
     sum_band     :    143.55s CPU    157.18s WALL (     104 calls)
     v_of_rho     :     15.07s CPU     15.98s WALL (     105 calls)
     newd         :     42.19s CPU     52.12s WALL (     105 calls)
     mix_rho      :     20.11s CPU     20.28s WALL (     104 calls)
     energy_londo :      0.07s CPU      0.07s WALL (       1 calls)

     Called by c_bands:
     init_us_2    :      2.51s CPU      2.54s WALL (     420 calls)
     init_us_2:cp :      2.50s CPU      2.54s WALL (     420 calls)
     regterg      :    756.68s CPU    782.85s WALL (     209 calls)

     Called by *egterg:
     rdiaghg      :    209.82s CPU    222.90s WALL (     736 calls)
     h_psi        :    306.44s CPU    313.87s WALL (     738 calls)
     s_psi        :     58.23s CPU     58.25s WALL (     738 calls)
     g_psi        :      0.42s CPU      0.43s WALL (     527 calls)

     Called by h_psi:
     h_psi:calbec :     82.38s CPU     88.92s WALL (     738 calls)
     vloc_psi     :    163.71s CPU    164.35s WALL (     738 calls)
     add_vuspsi   :     59.64s CPU     59.89s WALL (     738 calls)

     General routines
     calbec       :    122.32s CPU    132.05s WALL (     954 calls)
     fft          :     16.76s CPU     18.09s WALL (    1903 calls)
     ffts         :     13.55s CPU     13.61s WALL (   12983 calls)
     fftw         :    188.93s CPU    189.65s WALL (  346170 calls)
     interpolate  :      1.23s CPU      1.32s WALL (     210 calls)
 
     Parallel routines
 
     PWSCF        :  16m48.30s CPU  17m40.34s WALL

 
   This run was terminated on:   1:47:20  20Nov2025            

=------------------------------------------------------------------------------=
   JOB DONE.
=------------------------------------------------------------------------------=
