
     Program PWSCF v.7.2 starts on 20Nov2025 at  1:47:24 

     This program is part of the open-source Quantum ESPRESSO suite
     for quantum simulation of materials; please cite
         "P. Giannozzi et al., J. Phys.:Condens. Matter 21 395502 (2009);
         "P. Giannozzi et al., J. Phys.:Condens. Matter 29 465901 (2017);
         "P. Giannozzi et al., J. Chem. Phys. 152 154105 (2020);
          URL http://www.quantum-espresso.org", 
     in publications or presentations arising from this work. More details at
     http://www.quantum-espresso.org/quote

     Parallel version (MPI), running on    64 processors

     MPI processes distributed on     4 nodes
     489826 MiB available memory on the printing compute node when the environment starts
 
     Reading input from PWINPUT_atm157_zp

     Current dimensions of program PWSCF are:
     Max number of different atomic species (ntypx) = 10
     Max number of k-points (npk) =  40000
     Max angular momentum in pseudopotentials (lmaxx) =  4
     Presently no symmetry can be used with electric field

     file Ni.pbe-n-rrkjus_psl.1.0.0.UPF: wavefunction(s)  3D renormalized
     file Mn.pbe-spn-rrkjus_psl.0.3.1.UPF: wavefunction(s)  3D renormalized
     file O.pbe-rrkjus.UPF: wavefunction(s)  2S renormalized
     file H.pbe-rrkjus.UPF: wavefunction(s)  1S renormalized

     gamma-point specific algorithms are used
 
     R & G space division:  proc/nbgrp/npool/nimage =      64
     Subspace diagonalization in iterative solution of the eigenvalue problem:
     one sub-group per band group will be used
     custom distributed-memory algorithm (size of sub-group:  6*  6 procs)

 
     Parallelization info
     --------------------
     sticks:   dense  smooth     PW     G-vecs:    dense   smooth      PW
     Min         208      82     20                59912    15118    1876
     Max         210      84     22                59974    15196    1926
     Sum       13399    5355   1345              3836275   970529  121367
 
     Using Slab Decomposition
 


     bravais-lattice index     =            0
     lattice parameter (alat)  =      17.7004  a.u.
     unit-cell volume          =   20319.7251 (a.u.)^3
     number of atoms/cell      =          158
     number of atomic types    =            5
     number of electrons       =      1078.00
     number of Kohn-Sham states=          647
     kinetic-energy cutoff     =      50.0000  Ry
     charge density cutoff     =     500.0000  Ry
     scf convergence threshold =      1.0E-06
     mixing beta               =       0.1000
     number of iterations used =            8  local-TF  mixing
     Exchange-correlation=  SLA  PW   PBE  PBE
                           (   1   4   3   4   0   0   0)

     celldm(1)=  17.700384  celldm(2)=   0.000000  celldm(3)=   0.000000
     celldm(4)=   0.000000  celldm(5)=   0.000000  celldm(6)=   0.000000

     crystal axes: (cart. coord. in units of alat)
               a(1) = (   1.000000   0.000000   0.000000 )  
               a(2) = (   0.000000   1.075730   0.000000 )  
               a(3) = (   0.000000   0.000000   3.406172 )  

     reciprocal axes: (cart. coord. in units 2 pi/alat)
               b(1) = (  1.000000  0.000000  0.000000 )  
               b(2) = (  0.000000  0.929602  0.000000 )  
               b(3) = (  0.000000  0.000000  0.293585 )  


     PseudoPot. # 1 for Ni read from file:
     ~/PSEUDO/Ni.pbe-n-rrkjus_psl.1.0.0.UPF
     MD5 check sum: Not computed, couldn't open file
     Pseudo is Ultrasoft + core correction, Zval = 10.0
     Generated using "atomic" code by A. Dal Corso  v.5.1.2
     Using radial grid of 1195 points,  6 beta functions with: 
                l(1) =   0
                l(2) =   0
                l(3) =   1
                l(4) =   1
                l(5) =   2
                l(6) =   2
     Q(r) pseudized with 0 coefficients 


     PseudoPot. # 2 for Mn read from file:
     ~/PSEUDO/Mn.pbe-spn-rrkjus_psl.0.3.1.UPF
     MD5 check sum: Not computed, couldn't open file
     Pseudo is Ultrasoft + core correction, Zval = 15.0
     Generated using &quot;atomic&quot; code by A. Dal Corso  v.6.2.2
     Using radial grid of 1187 points,  6 beta functions with: 
                l(1) =   0
                l(2) =   0
                l(3) =   1
                l(4) =   1
                l(5) =   2
                l(6) =   2
     Q(r) pseudized with 0 coefficients 


     PseudoPot. # 3 for P  read from file:
     ~/PSEUDO/P.pbe-n-rrkjus_psl.1.0.0.UPF
     MD5 check sum: Not computed, couldn't open file
     Pseudo is Ultrasoft + core correction, Zval =  5.0
     Generated using "atomic" code by A. Dal Corso  v.5.1
     Using radial grid of 1147 points,  6 beta functions with: 
                l(1) =   0
                l(2) =   0
                l(3) =   1
                l(4) =   1
                l(5) =   2
                l(6) =   2
     Q(r) pseudized with 0 coefficients 


     PseudoPot. # 4 for O  read from file:
     ~/PSEUDO/O.pbe-rrkjus.UPF
     MD5 check sum: Not computed, couldn't open file
     Pseudo is Ultrasoft, Zval =  6.0
     Generated by new atomic code, or converted to UPF format
     Using radial grid of 1269 points,  4 beta functions with: 
                l(1) =   0
                l(2) =   0
                l(3) =   1
                l(4) =   1
     Q(r) pseudized with 0 coefficients 


     PseudoPot. # 5 for H  read from file:
     ~/PSEUDO/H.pbe-rrkjus.UPF
     MD5 check sum: Not computed, couldn't open file
     Pseudo is Ultrasoft, Zval =  1.0
     Generated by new atomic code, or converted to UPF format
     Using radial grid of 1061 points,  2 beta functions with: 
                l(1) =   0
                l(2) =   0
     Q(r) pseudized with 0 coefficients 


     atomic species   valence    mass     pseudopotential
     Ni               10.00    58.69300     Ni( 1.00)
     Mn               15.00    54.93800     Mn( 1.00)
     P                 5.00    30.97300     P ( 1.00)
     O                 6.00    15.99900     O ( 1.00)
     H                 1.00     1.00790     H ( 1.00)

     Starting magnetic structure 
     atomic species   magnetization
     Ni              1.000
     Mn              1.000
     P               1.000
     O               1.000
     H               0.000

     No symmetry found



   Cartesian axes

     site n.     atom                  positions (alat units)
         1        Mn     tau(   1) = (   0.2404744   0.8371250   0.1168501  )
         2        Ni     tau(   2) = (   0.4968126   0.7726670   0.4415546  )
         3        Ni     tau(   3) = (   0.0066150   0.2936743   0.1241053  )
         4        Ni     tau(   4) = (   0.2585722   0.2355858   0.4448848  )
         5        Ni     tau(   5) = (   0.9987350   1.0696411   0.2854926  )
         6        Ni     tau(   6) = (   0.2517397   0.5330511   0.2829322  )
         7        Ni     tau(   7) = (   0.7451645   0.8337543   0.1221751  )
         8        Ni     tau(   8) = (   0.9939181   0.7738804   0.4407595  )
         9        Ni     tau(   9) = (   0.5111533   0.2924088   0.1251865  )
        10        Ni     tau(  10) = (   0.7606326   0.2319267   0.4451372  )
        11        Ni     tau(  11) = (   0.5024065   1.0688133   0.2870502  )
        12        Ni     tau(  12) = (   0.7529977   0.5317900   0.2845227  )
        13        P      tau(  13) = (   0.2092944   0.9731097   0.4345035  )
        14        P      tau(  14) = (   0.4655727   0.6359535   0.1274635  )
        15        P      tau(  15) = (   0.2910699   0.1027363   0.1296098  )
        16        P      tau(  16) = (   0.0396216   0.4288395   0.4398838  )
        17        O      tau(  17) = (   0.1294378   0.9013260   0.3010618  )
        18        O      tau(  18) = (   0.3874505   0.7054774   0.2637003  )
        19        O      tau(  19) = (   0.3702540   0.1714799   0.2660028  )
        20        O      tau(  20) = (   0.1184398   0.3582958   0.3038353  )
        21        O      tau(  21) = (   0.1451572   0.8850881   0.5587578  )
        22        O      tau(  22) = (   0.4048762   0.7245585   0.0017492  )
        23        O      tau(  23) = (   0.3523506   0.1900579   0.0035744  )
        24        O      tau(  24) = (   0.1017610   0.3410484   0.5656572  )
        25        O      tau(  25) = (   0.0975396   0.5849288   0.4357922  )
        26        O      tau(  26) = (   0.3483552   1.0314945   0.1270322  )
        27        O      tau(  27) = (   0.3784305   0.4225118   0.4308928  )
        28        O      tau(  28) = (   0.1268237   0.1067944   0.1392744  )
        29        O      tau(  29) = (   0.1212267   0.6424170   0.1362896  )
        30        O      tau(  30) = (   0.4053315   0.4809387   0.1300622  )
        31        O      tau(  31) = (   0.1536621   0.0446918   0.4373386  )
        32        O      tau(  32) = (   0.3732349   0.9631717   0.4256642  )
        33        P      tau(  33) = (   0.7119823   0.9695974   0.4373010  )
        34        P      tau(  34) = (   0.9615208   0.6363392   0.1262932  )
        35        P      tau(  35) = (   0.7927710   0.0970060   0.1292164  )
        36        P      tau(  36) = (   0.5426404   0.4269675   0.4410738  )
        37        O      tau(  37) = (   0.6326879   0.8991182   0.3013240  )
        38        O      tau(  38) = (   0.8842163   0.7083206   0.2625155  )
        39        O      tau(  39) = (   0.8716178   0.1677751   0.2653504  )
        40        O      tau(  40) = (   0.6212010   0.3558666   0.3051085  )
        41        O      tau(  41) = (   0.6507714   0.8812342   0.5631722  )
        42        O      tau(  42) = (   0.9014054   0.7264458   0.0010676  )
        43        O      tau(  43) = (   0.8548963   0.1847909   0.0035471  )
        44        O      tau(  44) = (   0.6044469   0.3378706   0.5660366  )
        45        O      tau(  45) = (   0.6024424   0.5823140   0.4379016  )
        46        O      tau(  46) = (   0.8498940   1.0254482   0.1275156  )
        47        O      tau(  47) = (   0.8798395   0.4205825   0.4305771  )
        48        O      tau(  48) = (   0.6286921   0.1034636   0.1397346  )
        49        O      tau(  49) = (   0.6294973   0.6427753   0.1372553  )
        50        O      tau(  50) = (   0.9024339   0.4810312   0.1296418  )
        51        O      tau(  51) = (   0.6547812   0.0410987   0.4396636  )
        52        O      tau(  52) = (   0.8760507   0.9632605   0.4264507  )
        53        Mn     tau(  53) = (   0.2404744   0.8246335   0.7367378  )
        54        Ni     tau(  54) = (   0.4968126   0.7601755   1.0614423  )
        55        Ni     tau(  55) = (   0.0066150   0.2811828   0.7439929  )
        56        Ni     tau(  56) = (   0.2585722   0.2230943   1.0647725  )
        57        Ni     tau(  57) = (   0.9987350   1.0571496   0.9053803  )
        58        Ni     tau(  58) = (   0.2517397   0.5205596   0.9028199  )
        59        Ni     tau(  59) = (   0.7451645   0.8212628   0.7420628  )
        60        Ni     tau(  60) = (   0.9939181   0.7613889   1.0606471  )
        61        Ni     tau(  61) = (   0.5111533   0.2799173   0.7450742  )
        62        Ni     tau(  62) = (   0.7606326   0.2194352   1.0650249  )
        63        Ni     tau(  63) = (   0.5024065   1.0563218   0.9069379  )
        64        Ni     tau(  64) = (   0.7529977   0.5192985   0.9044104  )
        65        P      tau(  65) = (   0.2092944   0.9606182   1.0543912  )
        66        P      tau(  66) = (   0.4655727   0.6234620   0.7473512  )
        67        P      tau(  67) = (   0.2910699   0.0902448   0.7494974  )
        68        P      tau(  68) = (   0.0396216   0.4163480   1.0597715  )
        69        O      tau(  69) = (   0.1294378   0.8888345   0.9209495  )
        70        O      tau(  70) = (   0.3874505   0.6929859   0.8835880  )
        71        O      tau(  71) = (   0.3702540   0.1589885   0.8858904  )
        72        O      tau(  72) = (   0.1184398   0.3458043   0.9237230  )
        73        O      tau(  73) = (   0.1451572   0.8725966   1.1786454  )
        74        O      tau(  74) = (   0.4048762   0.7120670   0.6216369  )
        75        O      tau(  75) = (   0.3523506   0.1775664   0.6234620  )
        76        O      tau(  76) = (   0.1017610   0.3285569   1.1855448  )
        77        O      tau(  77) = (   0.0975396   0.5724373   1.0556799  )
        78        O      tau(  78) = (   0.3483552   1.0190030   0.7469198  )
        79        O      tau(  79) = (   0.3784305   0.4100203   1.0507804  )
        80        O      tau(  80) = (   0.1268237   0.0943029   0.7591620  )
        81        O      tau(  81) = (   0.1212267   0.6299255   0.7561772  )
        82        O      tau(  82) = (   0.4053315   0.4684472   0.7499499  )
        83        O      tau(  83) = (   0.1536621   0.0322003   1.0572263  )
        84        O      tau(  84) = (   0.3732349   0.9506802   1.0455518  )
        85        P      tau(  85) = (   0.7119823   0.9571059   1.0571887  )
        86        P      tau(  86) = (   0.9615208   0.6238477   0.7461808  )
        87        P      tau(  87) = (   0.7927710   0.0845145   0.7491041  )
        88        P      tau(  88) = (   0.5426404   0.4144760   1.0609615  )
        89        O      tau(  89) = (   0.6326879   0.8866267   0.9212117  )
        90        O      tau(  90) = (   0.8842163   0.6958291   0.8824032  )
        91        O      tau(  91) = (   0.8716178   0.1552836   0.8852381  )
        92        O      tau(  92) = (   0.6212010   0.3433751   0.9249961  )
        93        O      tau(  93) = (   0.6507714   0.8687427   1.1830599  )
        94        O      tau(  94) = (   0.9014054   0.7139543   0.6209553  )
        95        O      tau(  95) = (   0.8548963   0.1722994   0.6234348  )
        96        O      tau(  96) = (   0.6044469   0.3253792   1.1859242  )
        97        O      tau(  97) = (   0.6024424   0.5698225   1.0577892  )
        98        O      tau(  98) = (   0.8498940   1.0129567   0.7474033  )
        99        O      tau(  99) = (   0.8798395   0.4080910   1.0504647  )
       100        O      tau( 100) = (   0.6286921   0.0909721   0.7596222  )
       101        O      tau( 101) = (   0.6294973   0.6302838   0.7571429  )
       102        O      tau( 102) = (   0.9024339   0.4685397   0.7495295  )
       103        O      tau( 103) = (   0.6547812   0.0286072   1.0595512  )
       104        O      tau( 104) = (   0.8760507   0.9507690   1.0463383  )
       105        Mn     tau( 105) = (   0.2341048   0.8108197   1.3663252  )
       106        Ni     tau( 106) = (   0.5024816   0.7464085   1.6757065  )
       107        Ni     tau( 107) = (   0.0091392   0.2672722   1.3697207  )
       108        Ni     tau( 108) = (   0.2495058   0.2078228   1.6755278  )
       109        Ni     tau( 109) = (   1.0032102   1.0416246   1.5364023  )
       110        Ni     tau( 110) = (   0.2485262   0.5048332   1.5297062  )
       111        Ni     tau( 111) = (   0.7430018   0.8054177   1.3686003  )
       112        Ni     tau( 112) = (   0.9925501   0.7393218   1.7090217  )
       113        Ni     tau( 113) = (   0.5113084   0.2670413   1.3698693  )
       114        Ni     tau( 114) = (   0.7494949   0.2101352   1.6749472  )
       115        Ni     tau( 115) = (   0.5047951   1.0439869   1.5324480  )
       116        Ni     tau( 116) = (   0.7496602   0.5077338   1.5350320  )
       117        P      tau( 117) = (   0.2153380   0.9328497   1.6938933  )
       118        P      tau( 118) = (   0.4622660   0.6087634   1.3707994  )
       119        P      tau( 119) = (   0.2922378   0.0736206   1.3716559  )
       120        P      tau( 120) = (   0.0382110   0.3940295   1.6909775  )
       121        O      tau( 121) = (   0.1372270   0.8700926   1.5520458  )
       122        O      tau( 122) = (   0.3847694   0.6779168   1.5071938  )
       123        O      tau( 123) = (   0.3710441   0.1421445   1.5079797  )
       124        O      tau( 124) = (   0.1173137   0.3316825   1.5448012  )
       125        O      tau( 125) = (   0.1566604   0.8378692   1.8121477  )
       126        O      tau( 126) = (   0.4018852   0.6988502   1.2455572  )
       127        O      tau( 127) = (   0.3539928   0.1600748   1.2455128  )
       128        O      tau( 128) = (   0.0976531   0.2945871   1.8050993  )
       129        O      tau( 129) = (   0.0985428   0.5494999   1.6854361  )
       130        O      tau( 130) = (   0.3504453   0.9928363   1.3746257  )
       131        O      tau( 131) = (   0.3718735   0.3910438   1.6761776  )
       132        O      tau( 132) = (   0.1285520   0.0774354   1.3834063  )
       133        O      tau( 133) = (   0.1228761   0.6199323   1.3811417  )
       134        O      tau( 134) = (   0.4020429   0.4538468   1.3720019  )
       135        O      tau( 135) = (   0.1599454   0.0153847   1.6910302  )
       136        O      tau( 136) = (   0.3804554   0.9291162   1.6779826  )
       137        P      tau( 137) = (   0.7133756   0.9380637   1.6935653  )
       138        P      tau( 138) = (   0.9577904   0.6122334   1.3726531  )
       139        P      tau( 139) = (   0.7939846   0.0704840   1.3720273  )
       140        P      tau( 140) = (   0.5366371   0.3964784   1.6923699  )
       141        O      tau( 141) = (   0.6376702   0.8730140   1.5485714  )
       142        O      tau( 142) = (   0.8832272   0.6852684   1.5080352  )
       143        O      tau( 143) = (   0.8714928   0.1414651   1.5082745  )
       144        O      tau( 144) = (   0.6162606   0.3358838   1.5468185  )
       145        O      tau( 145) = (   0.6494383   0.8437087   1.8102692  )
       146        O      tau( 146) = (   0.8986022   0.6987735   1.2443575  )
       147        O      tau( 147) = (   0.8554771   0.1582509   1.2459557  )
       148        O      tau( 148) = (   0.5975308   0.2989918   1.8069624  )
       149        O      tau( 149) = (   0.5919342   0.5544634   1.6914728  )
       150        O      tau( 150) = (   0.8532566   0.9911851   1.3761764  )
       151        O      tau( 151) = (   0.8736693   0.3888582   1.6742141  )
       152        O      tau( 152) = (   0.6299136   0.0779356   1.3831127  )
       153        O      tau( 153) = (   0.6261583   0.6163923   1.3832484  )
       154        O      tau( 154) = (   0.9012706   0.4563430   1.3768978  )
       155        O      tau( 155) = (   0.6553133   0.0192695   1.6887296  )
       156        O      tau( 156) = (   0.8781114   0.9348774   1.6838478  )
       157        O      tau( 157) = (   0.8763292   0.6539004   1.8396316  )
       158        H      tau( 158) = (   0.7911329   0.7123594   1.8616160  )

     -------------------------------------------------
     Parameters for Dispersion (Grimme-D2) Correction:
     -------------------------------------------------
       atom      VdW radius       C_6     

        Ni         2.952        374.666
        Mn         2.952        374.666
        P          3.222        271.980
        O          2.536         24.284
        H          1.892          4.857

     number of k points=     1  Gaussian smearing, width (Ry)=  0.0100
                       cart. coord. in units 2pi/alat
        k(    1) = (   0.0000000   0.0000000   0.0000000), wk =   1.0000000

     Dense  grid:  1918138 G-vectors     FFT dimensions: ( 125, 135, 432)

     Smooth grid:   485265 G-vectors     FFT dimensions: (  80,  90, 288)

     Estimated max dynamical RAM per process >     320.12 MB

     Estimated total dynamical RAM >      20.01 GB
     Generating pointlists ...
     new r_m :   0.0803 (alat units)  1.4207 (a.u.) for type    1
     new r_m :   0.0869 (alat units)  1.5388 (a.u.) for type    2
     new r_m :   0.0650 (alat units)  1.1499 (a.u.) for type    3
     new r_m :   0.0436 (alat units)  0.7713 (a.u.) for type    4
     new r_m :   0.0436 (alat units)  0.7713 (a.u.) for type    5

     Initial potential from superposition of free atoms

     starting charge    1077.8900, renormalised to    1078.0000

     negative rho (up, down):  1.235E-03 4.557E-04
 
     Adding external electric field

     Computed dipole along edir(3) : 
        Dipole                1.6192 Ry au,          4.1155 Debye
        Dipole field          0.0010 Ry au, 
 
        Potential amp.       -0.1087 Ry
        Total length         54.2615 bohr
 
 
     Adding external electric field

     Computed dipole along edir(3) : 
        Dipole                1.6192 Ry au,          4.1155 Debye
        Dipole field          0.0010 Ry au, 
 
        Potential amp.       -0.1087 Ry
        Total length         54.2615 bohr
 
     Starting wfcs are  812 randomized atomic wfcs

     total cpu time spent up to now is        8.3 secs

     Self-consistent Calculation

     iteration #  1     ecut=    50.00 Ry     beta= 0.10
     Davidson diagonalization with overlap
     ethr =  1.00E-02,  avg # of iterations =  6.0

     negative rho (up, down):  3.538E-01 5.599E-06
 
     Adding external electric field

     Computed dipole along edir(3) : 
        Dipole               -3.0971 Ry au,         -7.8720 Debye
        Dipole field         -0.0019 Ry au, 
 
        Potential amp.        0.2079 Ry
        Total length         54.2615 bohr
 
 
     Adding external electric field

     Computed dipole along edir(3) : 
        Dipole               -3.0971 Ry au,         -7.8720 Debye
        Dipole field         -0.0019 Ry au, 
 
        Potential amp.        0.2079 Ry
        Total length         54.2615 bohr
 

     total cpu time spent up to now is       29.3 secs

     total energy              =   -7181.46227870 Ry
     estimated scf accuracy    <     752.65779227 Ry

     total magnetization       =   216.00 Bohr mag/cell
     absolute magnetization    =   297.07 Bohr mag/cell

     iteration #  2     ecut=    50.00 Ry     beta= 0.10
     Davidson diagonalization with overlap
     ethr =  1.00E-02,  avg # of iterations =  2.0

     negative rho (up, down):  3.211E-01 5.245E-06
 
     Adding external electric field

     Computed dipole along edir(3) : 
        Dipole               -2.3718 Ry au,         -6.0286 Debye
        Dipole field         -0.0015 Ry au, 
 
        Potential amp.        0.1592 Ry
        Total length         54.2615 bohr
 
 
     Adding external electric field

     Computed dipole along edir(3) : 
        Dipole               -2.3718 Ry au,         -6.0286 Debye
        Dipole field         -0.0015 Ry au, 
 
        Potential amp.        0.1592 Ry
        Total length         54.2615 bohr
 

     total cpu time spent up to now is       41.7 secs

     total energy              =   -7265.91367316 Ry
     estimated scf accuracy    <     142.95869364 Ry

     total magnetization       =   142.63 Bohr mag/cell
     absolute magnetization    =   195.58 Bohr mag/cell

     iteration #  3     ecut=    50.00 Ry     beta= 0.10
     Davidson diagonalization with overlap
     ethr =  1.00E-02,  avg # of iterations =  1.5

     negative rho (up, down):  2.752E-01 4.177E-06
 
     Adding external electric field

     Computed dipole along edir(3) : 
        Dipole               -1.8830 Ry au,         -4.7861 Debye
        Dipole field         -0.0012 Ry au, 
 
        Potential amp.        0.1264 Ry
        Total length         54.2615 bohr
 
 
     Adding external electric field

     Computed dipole along edir(3) : 
        Dipole               -1.8830 Ry au,         -4.7861 Debye
        Dipole field         -0.0012 Ry au, 
 
        Potential amp.        0.1264 Ry
        Total length         54.2615 bohr
 

     total cpu time spent up to now is       51.1 secs

     total energy              =   -7300.41763317 Ry
     estimated scf accuracy    <      97.35037012 Ry

     total magnetization       =   120.75 Bohr mag/cell
     absolute magnetization    =   175.25 Bohr mag/cell

     iteration #  4     ecut=    50.00 Ry     beta= 0.10
     Davidson diagonalization with overlap
     ethr =  9.03E-03,  avg # of iterations =  1.5

     negative rho (up, down):  2.035E-01 2.552E-07
 
     Adding external electric field

     Computed dipole along edir(3) : 
        Dipole               -1.8988 Ry au,         -4.8263 Debye
        Dipole field         -0.0012 Ry au, 
 
        Potential amp.        0.1274 Ry
        Total length         54.2615 bohr
 
 
     Adding external electric field

     Computed dipole along edir(3) : 
        Dipole               -1.8988 Ry au,         -4.8263 Debye
        Dipole field         -0.0012 Ry au, 
 
        Potential amp.        0.1274 Ry
        Total length         54.2615 bohr
 

     total cpu time spent up to now is       60.5 secs

     total energy              =   -7332.87377432 Ry
     estimated scf accuracy    <      75.65910219 Ry

     total magnetization       =   102.93 Bohr mag/cell
     absolute magnetization    =   159.46 Bohr mag/cell

     iteration #  5     ecut=    50.00 Ry     beta= 0.10
     Davidson diagonalization with overlap
     ethr =  7.02E-03,  avg # of iterations =  1.5

     negative rho (up, down):  2.411E-03 1.113E-08
 
     Adding external electric field

     Computed dipole along edir(3) : 
        Dipole               -1.2395 Ry au,         -3.1505 Debye
        Dipole field         -0.0008 Ry au, 
 
        Potential amp.        0.0832 Ry
        Total length         54.2615 bohr
 
 
     Adding external electric field

     Computed dipole along edir(3) : 
        Dipole               -1.2395 Ry au,         -3.1505 Debye
        Dipole field         -0.0008 Ry au, 
 
        Potential amp.        0.0832 Ry
        Total length         54.2615 bohr
 

     total cpu time spent up to now is       69.9 secs

     total energy              =   -7389.47600124 Ry
     estimated scf accuracy    <      57.64094505 Ry

     total magnetization       =    88.00 Bohr mag/cell
     absolute magnetization    =   142.85 Bohr mag/cell

     iteration #  6     ecut=    50.00 Ry     beta= 0.10
     Davidson diagonalization with overlap
     ethr =  5.35E-03,  avg # of iterations =  1.5

     negative rho (up, down):  7.625E-06 3.640E-05
 
     Adding external electric field

     Computed dipole along edir(3) : 
        Dipole               -0.9069 Ry au,         -2.3051 Debye
        Dipole field         -0.0006 Ry au, 
 
        Potential amp.        0.0609 Ry
        Total length         54.2615 bohr
 
 
     Adding external electric field

     Computed dipole along edir(3) : 
        Dipole               -0.9069 Ry au,         -2.3051 Debye
        Dipole field         -0.0006 Ry au, 
 
        Potential amp.        0.0609 Ry
        Total length         54.2615 bohr
 

     total cpu time spent up to now is       79.4 secs

     total energy              =   -7396.15103438 Ry
     estimated scf accuracy    <       8.72645681 Ry

     total magnetization       =    78.62 Bohr mag/cell
     absolute magnetization    =   108.88 Bohr mag/cell

     iteration #  7     ecut=    50.00 Ry     beta= 0.10
     Davidson diagonalization with overlap
     ethr =  8.10E-04,  avg # of iterations =  4.5

     negative rho (up, down):  8.370E-06 2.951E-05
 
     Adding external electric field

     Computed dipole along edir(3) : 
        Dipole               -0.9319 Ry au,         -2.3687 Debye
        Dipole field         -0.0006 Ry au, 
 
        Potential amp.        0.0625 Ry
        Total length         54.2615 bohr
 
 
     Adding external electric field

     Computed dipole along edir(3) : 
        Dipole               -0.9319 Ry au,         -2.3687 Debye
        Dipole field         -0.0006 Ry au, 
 
        Potential amp.        0.0625 Ry
        Total length         54.2615 bohr
 

     total cpu time spent up to now is       94.1 secs

     total energy              =   -7397.64998040 Ry
     estimated scf accuracy    <       9.08536856 Ry

     total magnetization       =    71.99 Bohr mag/cell
     absolute magnetization    =    88.98 Bohr mag/cell

     iteration #  8     ecut=    50.00 Ry     beta= 0.10
     Davidson diagonalization with overlap
     ethr =  8.10E-04,  avg # of iterations =  1.0

     negative rho (up, down):  2.216E-05 7.964E-05
 
     Adding external electric field

     Computed dipole along edir(3) : 
        Dipole               -0.6998 Ry au,         -1.7787 Debye
        Dipole field         -0.0004 Ry au, 
 
        Potential amp.        0.0470 Ry
        Total length         54.2615 bohr
 
 
     Adding external electric field

     Computed dipole along edir(3) : 
        Dipole               -0.6998 Ry au,         -1.7787 Debye
        Dipole field         -0.0004 Ry au, 
 
        Potential amp.        0.0470 Ry
        Total length         54.2615 bohr
 

     total cpu time spent up to now is      102.6 secs

     total energy              =   -7397.24173351 Ry
     estimated scf accuracy    <      10.93705662 Ry

     total magnetization       =    71.39 Bohr mag/cell
     absolute magnetization    =    88.49 Bohr mag/cell

     iteration #  9     ecut=    50.00 Ry     beta= 0.10
     Davidson diagonalization with overlap
     ethr =  8.10E-04,  avg # of iterations =  1.5

     negative rho (up, down):  1.237E-05 6.015E-05
 
     Adding external electric field

     Computed dipole along edir(3) : 
        Dipole               -0.8009 Ry au,         -2.0356 Debye
        Dipole field         -0.0005 Ry au, 
 
        Potential amp.        0.0538 Ry
        Total length         54.2615 bohr
 
 
     Adding external electric field

     Computed dipole along edir(3) : 
        Dipole               -0.8009 Ry au,         -2.0356 Debye
        Dipole field         -0.0005 Ry au, 
 
        Potential amp.        0.0538 Ry
        Total length         54.2615 bohr
 

     total cpu time spent up to now is      112.0 secs

     total energy              =   -7397.55809826 Ry
     estimated scf accuracy    <       3.24495953 Ry

     total magnetization       =    78.20 Bohr mag/cell
     absolute magnetization    =    91.53 Bohr mag/cell

     iteration # 10     ecut=    50.00 Ry     beta= 0.10
     Davidson diagonalization with overlap
     ethr =  3.01E-04,  avg # of iterations =  2.0

     negative rho (up, down):  1.953E-05 6.804E-05
 
     Adding external electric field

     Computed dipole along edir(3) : 
        Dipole               -1.0297 Ry au,         -2.6173 Debye
        Dipole field         -0.0006 Ry au, 
 
        Potential amp.        0.0691 Ry
        Total length         54.2615 bohr
 
 
     Adding external electric field

     Computed dipole along edir(3) : 
        Dipole               -1.0297 Ry au,         -2.6173 Debye
        Dipole field         -0.0006 Ry au, 
 
        Potential amp.        0.0691 Ry
        Total length         54.2615 bohr
 

     total cpu time spent up to now is      121.9 secs

     total energy              =   -7397.67125176 Ry
     estimated scf accuracy    <       2.42198078 Ry

     total magnetization       =    77.95 Bohr mag/cell
     absolute magnetization    =    90.29 Bohr mag/cell

     iteration # 11     ecut=    50.00 Ry     beta= 0.10
     Davidson diagonalization with overlap
     ethr =  2.25E-04,  avg # of iterations =  2.0

     negative rho (up, down):  2.422E-05 1.102E-04
 
     Adding external electric field

     Computed dipole along edir(3) : 
        Dipole               -1.0542 Ry au,         -2.6795 Debye
        Dipole field         -0.0007 Ry au, 
 
        Potential amp.        0.0708 Ry
        Total length         54.2615 bohr
 
 
     Adding external electric field

     Computed dipole along edir(3) : 
        Dipole               -1.0542 Ry au,         -2.6795 Debye
        Dipole field         -0.0007 Ry au, 
 
        Potential amp.        0.0708 Ry
        Total length         54.2615 bohr
 

     total cpu time spent up to now is      131.7 secs

     total energy              =   -7397.81409378 Ry
     estimated scf accuracy    <       0.55108641 Ry

     total magnetization       =    80.78 Bohr mag/cell
     absolute magnetization    =    90.55 Bohr mag/cell

     iteration # 12     ecut=    50.00 Ry     beta= 0.10
     Davidson diagonalization with overlap
     ethr =  5.11E-05,  avg # of iterations = 16.5

     negative rho (up, down):  4.375E-05 2.606E-04
 
     Adding external electric field

     Computed dipole along edir(3) : 
        Dipole               -1.0658 Ry au,         -2.7089 Debye
        Dipole field         -0.0007 Ry au, 
 
        Potential amp.        0.0715 Ry
        Total length         54.2615 bohr
 
 
     Adding external electric field

     Computed dipole along edir(3) : 
        Dipole               -1.0658 Ry au,         -2.7089 Debye
        Dipole field         -0.0007 Ry au, 
 
        Potential amp.        0.0715 Ry
        Total length         54.2615 bohr
 

     total cpu time spent up to now is      153.8 secs

     total energy              =   -7397.95451787 Ry
     estimated scf accuracy    <       0.59403967 Ry

     total magnetization       =    81.53 Bohr mag/cell
     absolute magnetization    =    88.93 Bohr mag/cell

     iteration # 13     ecut=    50.00 Ry     beta= 0.10
     Davidson diagonalization with overlap
     ethr =  5.11E-05,  avg # of iterations =  2.0

     negative rho (up, down):  2.141E-05 1.845E-04
 
     Adding external electric field

     Computed dipole along edir(3) : 
        Dipole               -1.0314 Ry au,         -2.6216 Debye
        Dipole field         -0.0006 Ry au, 
 
        Potential amp.        0.0692 Ry
        Total length         54.2615 bohr
 
 
     Adding external electric field

     Computed dipole along edir(3) : 
        Dipole               -1.0314 Ry au,         -2.6216 Debye
        Dipole field         -0.0006 Ry au, 
 
        Potential amp.        0.0692 Ry
        Total length         54.2615 bohr
 

     total cpu time spent up to now is      163.2 secs

     total energy              =   -7397.99826048 Ry
     estimated scf accuracy    <       0.31884602 Ry

     total magnetization       =    80.72 Bohr mag/cell
     absolute magnetization    =    85.24 Bohr mag/cell

     iteration # 14     ecut=    50.00 Ry     beta= 0.10
     Davidson diagonalization with overlap
     ethr =  2.96E-05,  avg # of iterations =  1.0

     negative rho (up, down):  1.581E-05 6.763E-05
 
     Adding external electric field

     Computed dipole along edir(3) : 
        Dipole               -0.8785 Ry au,         -2.2328 Debye
        Dipole field         -0.0005 Ry au, 
 
        Potential amp.        0.0590 Ry
        Total length         54.2615 bohr
 
 
     Adding external electric field

     Computed dipole along edir(3) : 
        Dipole               -0.8785 Ry au,         -2.2328 Debye
        Dipole field         -0.0005 Ry au, 
 
        Potential amp.        0.0590 Ry
        Total length         54.2615 bohr
 

     total cpu time spent up to now is      171.7 secs

     total energy              =   -7398.01577008 Ry
     estimated scf accuracy    <       0.33007838 Ry

     total magnetization       =    80.29 Bohr mag/cell
     absolute magnetization    =    84.28 Bohr mag/cell

     iteration # 15     ecut=    50.00 Ry     beta= 0.10
     Davidson diagonalization with overlap
     ethr =  2.96E-05,  avg # of iterations =  2.0

     negative rho (up, down):  4.941E-05 6.315E-05
 
     Adding external electric field

     Computed dipole along edir(3) : 
        Dipole               -0.9213 Ry au,         -2.3416 Debye
        Dipole field         -0.0006 Ry au, 
 
        Potential amp.        0.0618 Ry
        Total length         54.2615 bohr
 
 
     Adding external electric field

     Computed dipole along edir(3) : 
        Dipole               -0.9213 Ry au,         -2.3416 Debye
        Dipole field         -0.0006 Ry au, 
 
        Potential amp.        0.0618 Ry
        Total length         54.2615 bohr
 

     total cpu time spent up to now is      181.1 secs

     total energy              =   -7398.03463210 Ry
     estimated scf accuracy    <       1.36514067 Ry

     total magnetization       =    78.36 Bohr mag/cell
     absolute magnetization    =    80.99 Bohr mag/cell

     iteration # 16     ecut=    50.00 Ry     beta= 0.10
     Davidson diagonalization with overlap
     ethr =  2.96E-05,  avg # of iterations =  1.0

     negative rho (up, down):  1.312E-04 5.553E-05
 
     Adding external electric field

     Computed dipole along edir(3) : 
        Dipole               -0.9202 Ry au,         -2.3390 Debye
        Dipole field         -0.0006 Ry au, 
 
        Potential amp.        0.0618 Ry
        Total length         54.2615 bohr
 
 
     Adding external electric field

     Computed dipole along edir(3) : 
        Dipole               -0.9202 Ry au,         -2.3390 Debye
        Dipole field         -0.0006 Ry au, 
 
        Potential amp.        0.0618 Ry
        Total length         54.2615 bohr
 

     total cpu time spent up to now is      189.0 secs

     total energy              =   -7398.03749029 Ry
     estimated scf accuracy    <       0.33413867 Ry

     total magnetization       =    79.95 Bohr mag/cell
     absolute magnetization    =    82.26 Bohr mag/cell

     iteration # 17     ecut=    50.00 Ry     beta= 0.10
     Davidson diagonalization with overlap
     ethr =  2.96E-05,  avg # of iterations =  1.0

     negative rho (up, down):  1.612E-04 4.892E-05
 
     Adding external electric field

     Computed dipole along edir(3) : 
        Dipole               -0.8945 Ry au,         -2.2736 Debye
        Dipole field         -0.0006 Ry au, 
 
        Potential amp.        0.0600 Ry
        Total length         54.2615 bohr
 
 
     Adding external electric field

     Computed dipole along edir(3) : 
        Dipole               -0.8945 Ry au,         -2.2736 Debye
        Dipole field         -0.0006 Ry au, 
 
        Potential amp.        0.0600 Ry
        Total length         54.2615 bohr
 

     total cpu time spent up to now is      201.1 secs

     total energy              =   -7398.03281402 Ry
     estimated scf accuracy    <       0.31752121 Ry

     total magnetization       =    79.17 Bohr mag/cell
     absolute magnetization    =    81.10 Bohr mag/cell

     iteration # 18     ecut=    50.00 Ry     beta= 0.10
     Davidson diagonalization with overlap
     ethr =  2.95E-05,  avg # of iterations =  1.0

     negative rho (up, down):  1.858E-04 3.812E-05
 
     Adding external electric field

     Computed dipole along edir(3) : 
        Dipole               -0.8917 Ry au,         -2.2664 Debye
        Dipole field         -0.0006 Ry au, 
 
        Potential amp.        0.0598 Ry
        Total length         54.2615 bohr
 
 
     Adding external electric field

     Computed dipole along edir(3) : 
        Dipole               -0.8917 Ry au,         -2.2664 Debye
        Dipole field         -0.0006 Ry au, 
 
        Potential amp.        0.0598 Ry
        Total length         54.2615 bohr
 

     total cpu time spent up to now is      209.2 secs

     total energy              =   -7398.03671147 Ry
     estimated scf accuracy    <       0.12406768 Ry

     total magnetization       =    80.46 Bohr mag/cell
     absolute magnetization    =    82.13 Bohr mag/cell

     iteration # 19     ecut=    50.00 Ry     beta= 0.10
     Davidson diagonalization with overlap
     ethr =  1.15E-05,  avg # of iterations =  2.0

     negative rho (up, down):  1.587E-04 2.288E-05
 
     Adding external electric field

     Computed dipole along edir(3) : 
        Dipole               -0.8686 Ry au,         -2.2076 Debye
        Dipole field         -0.0005 Ry au, 
 
        Potential amp.        0.0583 Ry
        Total length         54.2615 bohr
 
 
     Adding external electric field

     Computed dipole along edir(3) : 
        Dipole               -0.8686 Ry au,         -2.2076 Debye
        Dipole field         -0.0005 Ry au, 
 
        Potential amp.        0.0583 Ry
        Total length         54.2615 bohr
 

     total cpu time spent up to now is      218.9 secs

     total energy              =   -7398.03661298 Ry
     estimated scf accuracy    <       0.04148054 Ry

     total magnetization       =    80.68 Bohr mag/cell
     absolute magnetization    =    82.26 Bohr mag/cell

     iteration # 20     ecut=    50.00 Ry     beta= 0.10
     Davidson diagonalization with overlap
     c_bands:  3 eigenvalues not converged
     ethr =  3.85E-06,  avg # of iterations = 11.0

     negative rho (up, down):  4.459E-05 4.318E-06
 
     Adding external electric field

     Computed dipole along edir(3) : 
        Dipole               -0.8005 Ry au,         -2.0348 Debye
        Dipole field         -0.0005 Ry au, 
 
        Potential amp.        0.0537 Ry
        Total length         54.2615 bohr
 
 
     Adding external electric field

     Computed dipole along edir(3) : 
        Dipole               -0.8005 Ry au,         -2.0348 Debye
        Dipole field         -0.0005 Ry au, 
 
        Potential amp.        0.0537 Ry
        Total length         54.2615 bohr
 

     total cpu time spent up to now is      232.0 secs

     total energy              =   -7398.03892767 Ry
     estimated scf accuracy    <       0.02067435 Ry

     total magnetization       =    80.53 Bohr mag/cell
     absolute magnetization    =    82.06 Bohr mag/cell

     iteration # 21     ecut=    50.00 Ry     beta= 0.10
     Davidson diagonalization with overlap
     c_bands:  2 eigenvalues not converged
     c_bands:  4 eigenvalues not converged
     ethr =  1.92E-06,  avg # of iterations = 30.0

     negative rho (up, down):  4.657E-05 7.187E-06
 
     Adding external electric field

     Computed dipole along edir(3) : 
        Dipole               -0.7614 Ry au,         -1.9352 Debye
        Dipole field         -0.0005 Ry au, 
 
        Potential amp.        0.0511 Ry
        Total length         54.2615 bohr
 
 
     Adding external electric field

     Computed dipole along edir(3) : 
        Dipole               -0.7614 Ry au,         -1.9352 Debye
        Dipole field         -0.0005 Ry au, 
 
        Potential amp.        0.0511 Ry
        Total length         54.2615 bohr
 

     total cpu time spent up to now is      258.5 secs

     total energy              =   -7398.03947991 Ry
     estimated scf accuracy    <       0.02549345 Ry

     total magnetization       =    80.40 Bohr mag/cell
     absolute magnetization    =    81.92 Bohr mag/cell

     iteration # 22     ecut=    50.00 Ry     beta= 0.10
     Davidson diagonalization with overlap
     c_bands:  1 eigenvalues not converged
     ethr =  1.92E-06,  avg # of iterations = 17.0

     negative rho (up, down):  5.762E-05 1.370E-05
 
     Adding external electric field

     Computed dipole along edir(3) : 
        Dipole               -0.7403 Ry au,         -1.8817 Debye
        Dipole field         -0.0005 Ry au, 
 
        Potential amp.        0.0497 Ry
        Total length         54.2615 bohr
 
 
     Adding external electric field

     Computed dipole along edir(3) : 
        Dipole               -0.7403 Ry au,         -1.8817 Debye
        Dipole field         -0.0005 Ry au, 
 
        Potential amp.        0.0497 Ry
        Total length         54.2615 bohr
 

     total cpu time spent up to now is      274.2 secs

     total energy              =   -7398.03934338 Ry
     estimated scf accuracy    <       0.03598770 Ry

     total magnetization       =    80.45 Bohr mag/cell
     absolute magnetization    =    81.90 Bohr mag/cell

     iteration # 23     ecut=    50.00 Ry     beta= 0.10
     Davidson diagonalization with overlap
     ethr =  1.92E-06,  avg # of iterations =  5.0

     negative rho (up, down):  6.510E-05 1.793E-05
 
     Adding external electric field

     Computed dipole along edir(3) : 
        Dipole               -0.7204 Ry au,         -1.8310 Debye
        Dipole field         -0.0004 Ry au, 
 
        Potential amp.        0.0483 Ry
        Total length         54.2615 bohr
 
 
     Adding external electric field

     Computed dipole along edir(3) : 
        Dipole               -0.7204 Ry au,         -1.8310 Debye
        Dipole field         -0.0004 Ry au, 
 
        Potential amp.        0.0483 Ry
        Total length         54.2615 bohr
 

     total cpu time spent up to now is      284.2 secs

     total energy              =   -7398.03907217 Ry
     estimated scf accuracy    <       0.03574852 Ry

     total magnetization       =    80.37 Bohr mag/cell
     absolute magnetization    =    81.76 Bohr mag/cell

     iteration # 24     ecut=    50.00 Ry     beta= 0.10
     Davidson diagonalization with overlap
     ethr =  1.92E-06,  avg # of iterations =  1.5

     negative rho (up, down):  1.448E-04 9.267E-05
 
     Adding external electric field

     Computed dipole along edir(3) : 
        Dipole               -0.6276 Ry au,         -1.5952 Debye
        Dipole field         -0.0004 Ry au, 
 
        Potential amp.        0.0421 Ry
        Total length         54.2615 bohr
 
 
     Adding external electric field

     Computed dipole along edir(3) : 
        Dipole               -0.6276 Ry au,         -1.5952 Debye
        Dipole field         -0.0004 Ry au, 
 
        Potential amp.        0.0421 Ry
        Total length         54.2615 bohr
 

     total cpu time spent up to now is      293.4 secs

     total energy              =   -7398.03891876 Ry
     estimated scf accuracy    <       0.03060471 Ry

     total magnetization       =    80.22 Bohr mag/cell
     absolute magnetization    =    81.61 Bohr mag/cell

     iteration # 25     ecut=    50.00 Ry     beta= 0.10
     Davidson diagonalization with overlap
     ethr =  1.92E-06,  avg # of iterations =  3.0

     negative rho (up, down):  1.338E-04 9.133E-05
 
     Adding external electric field

     Computed dipole along edir(3) : 
        Dipole               -0.6267 Ry au,         -1.5928 Debye
        Dipole field         -0.0004 Ry au, 
 
        Potential amp.        0.0421 Ry
        Total length         54.2615 bohr
 
 
     Adding external electric field

     Computed dipole along edir(3) : 
        Dipole               -0.6267 Ry au,         -1.5928 Debye
        Dipole field         -0.0004 Ry au, 
 
        Potential amp.        0.0421 Ry
        Total length         54.2615 bohr
 

     total cpu time spent up to now is      303.1 secs

     total energy              =   -7398.03921347 Ry
     estimated scf accuracy    <       0.03402667 Ry

     total magnetization       =    80.19 Bohr mag/cell
     absolute magnetization    =    81.62 Bohr mag/cell

     iteration # 26     ecut=    50.00 Ry     beta= 0.10
     Davidson diagonalization with overlap
     ethr =  1.92E-06,  avg # of iterations =  1.5

     negative rho (up, down):  5.070E-05 4.829E-05
 
     Adding external electric field

     Computed dipole along edir(3) : 
        Dipole               -0.6115 Ry au,         -1.5544 Debye
        Dipole field         -0.0004 Ry au, 
 
        Potential amp.        0.0410 Ry
        Total length         54.2615 bohr
 
 
     Adding external electric field

     Computed dipole along edir(3) : 
        Dipole               -0.6115 Ry au,         -1.5544 Debye
        Dipole field         -0.0004 Ry au, 
 
        Potential amp.        0.0410 Ry
        Total length         54.2615 bohr
 

     total cpu time spent up to now is      312.1 secs

     total energy              =   -7398.03912592 Ry
     estimated scf accuracy    <       0.02943406 Ry

     total magnetization       =    80.20 Bohr mag/cell
     absolute magnetization    =    81.65 Bohr mag/cell

     iteration # 27     ecut=    50.00 Ry     beta= 0.10
     Davidson diagonalization with overlap
     ethr =  1.92E-06,  avg # of iterations =  2.0

     negative rho (up, down):  9.544E-05 8.988E-05
 
     Adding external electric field

     Computed dipole along edir(3) : 
        Dipole               -0.6087 Ry au,         -1.5470 Debye
        Dipole field         -0.0004 Ry au, 
 
        Potential amp.        0.0408 Ry
        Total length         54.2615 bohr
 
 
     Adding external electric field

     Computed dipole along edir(3) : 
        Dipole               -0.6087 Ry au,         -1.5470 Debye
        Dipole field         -0.0004 Ry au, 
 
        Potential amp.        0.0408 Ry
        Total length         54.2615 bohr
 

     total cpu time spent up to now is      321.5 secs

     total energy              =   -7398.03938017 Ry
     estimated scf accuracy    <       0.03109097 Ry

     total magnetization       =    80.37 Bohr mag/cell
     absolute magnetization    =    81.93 Bohr mag/cell

     iteration # 28     ecut=    50.00 Ry     beta= 0.10
     Davidson diagonalization with overlap
     ethr =  1.92E-06,  avg # of iterations =  1.0

     negative rho (up, down):  7.911E-05 6.766E-05
 
     Adding external electric field

     Computed dipole along edir(3) : 
        Dipole               -0.5911 Ry au,         -1.5024 Debye
        Dipole field         -0.0004 Ry au, 
 
        Potential amp.        0.0397 Ry
        Total length         54.2615 bohr
 
 
     Adding external electric field

     Computed dipole along edir(3) : 
        Dipole               -0.5911 Ry au,         -1.5024 Debye
        Dipole field         -0.0004 Ry au, 
 
        Potential amp.        0.0397 Ry
        Total length         54.2615 bohr
 

     total cpu time spent up to now is      330.3 secs

     total energy              =   -7398.03914719 Ry
     estimated scf accuracy    <       0.02584753 Ry

     total magnetization       =    80.36 Bohr mag/cell
     absolute magnetization    =    81.91 Bohr mag/cell

     iteration # 29     ecut=    50.00 Ry     beta= 0.10
     Davidson diagonalization with overlap
     ethr =  1.92E-06,  avg # of iterations =  1.5

     negative rho (up, down):  1.448E-03 1.258E-03
 
     Adding external electric field

     Computed dipole along edir(3) : 
        Dipole               -0.4538 Ry au,         -1.1534 Debye
        Dipole field         -0.0003 Ry au, 
 
        Potential amp.        0.0305 Ry
        Total length         54.2615 bohr
 
 
     Adding external electric field

     Computed dipole along edir(3) : 
        Dipole               -0.4538 Ry au,         -1.1534 Debye
        Dipole field         -0.0003 Ry au, 
 
        Potential amp.        0.0305 Ry
        Total length         54.2615 bohr
 

     total cpu time spent up to now is      340.2 secs

     total energy              =   -7398.03760119 Ry
     estimated scf accuracy    <       0.02180362 Ry

     total magnetization       =    80.34 Bohr mag/cell
     absolute magnetization    =    81.90 Bohr mag/cell

     iteration # 30     ecut=    50.00 Ry     beta= 0.10
     Davidson diagonalization with overlap
     ethr =  1.92E-06,  avg # of iterations =  8.0

     negative rho (up, down):  1.456E-03 1.194E-03
 
     Adding external electric field

     Computed dipole along edir(3) : 
        Dipole               -0.4197 Ry au,         -1.0669 Debye
        Dipole field         -0.0003 Ry au, 
 
        Potential amp.        0.0282 Ry
        Total length         54.2615 bohr
 
 
     Adding external electric field

     Computed dipole along edir(3) : 
        Dipole               -0.4197 Ry au,         -1.0669 Debye
        Dipole field         -0.0003 Ry au, 
 
        Potential amp.        0.0282 Ry
        Total length         54.2615 bohr
 

     total cpu time spent up to now is      354.0 secs

     total energy              =   -7398.03731540 Ry
     estimated scf accuracy    <       0.01448573 Ry

     total magnetization       =    80.31 Bohr mag/cell
     absolute magnetization    =    81.91 Bohr mag/cell

     iteration # 31     ecut=    50.00 Ry     beta= 0.10
     Davidson diagonalization with overlap
     ethr =  1.34E-06,  avg # of iterations =  2.0

     negative rho (up, down):  9.871E-04 6.960E-04
 
     Adding external electric field

     Computed dipole along edir(3) : 
        Dipole               -0.3855 Ry au,         -0.9799 Debye
        Dipole field         -0.0002 Ry au, 
 
        Potential amp.        0.0259 Ry
        Total length         54.2615 bohr
 
 
     Adding external electric field

     Computed dipole along edir(3) : 
        Dipole               -0.3855 Ry au,         -0.9799 Debye
        Dipole field         -0.0002 Ry au, 
 
        Potential amp.        0.0259 Ry
        Total length         54.2615 bohr
 

     total cpu time spent up to now is      364.5 secs

     total energy              =   -7398.03681225 Ry
     estimated scf accuracy    <       0.01422950 Ry

     total magnetization       =    80.39 Bohr mag/cell
     absolute magnetization    =    82.01 Bohr mag/cell

     iteration # 32     ecut=    50.00 Ry     beta= 0.10
     Davidson diagonalization with overlap
     ethr =  1.32E-06,  avg # of iterations =  2.0

     negative rho (up, down):  7.895E-04 6.138E-04
 
     Adding external electric field

     Computed dipole along edir(3) : 
        Dipole               -0.2713 Ry au,         -0.6895 Debye
        Dipole field         -0.0002 Ry au, 
 
        Potential amp.        0.0182 Ry
        Total length         54.2615 bohr
 
 
     Adding external electric field

     Computed dipole along edir(3) : 
        Dipole               -0.2713 Ry au,         -0.6895 Debye
        Dipole field         -0.0002 Ry au, 
 
        Potential amp.        0.0182 Ry
        Total length         54.2615 bohr
 

     total cpu time spent up to now is      374.8 secs

     total energy              =   -7398.03681119 Ry
     estimated scf accuracy    <       0.01154677 Ry

     total magnetization       =    80.36 Bohr mag/cell
     absolute magnetization    =    82.00 Bohr mag/cell

     iteration # 33     ecut=    50.00 Ry     beta= 0.10
     Davidson diagonalization with overlap
     ethr =  1.07E-06,  avg # of iterations =  5.0

     negative rho (up, down):  1.894E-03 1.817E-03
 
     Adding external electric field

     Computed dipole along edir(3) : 
        Dipole               -0.1964 Ry au,         -0.4992 Debye
        Dipole field         -0.0001 Ry au, 
 
        Potential amp.        0.0132 Ry
        Total length         54.2615 bohr
 
 
     Adding external electric field

     Computed dipole along edir(3) : 
        Dipole               -0.1964 Ry au,         -0.4992 Debye
        Dipole field         -0.0001 Ry au, 
 
        Potential amp.        0.0132 Ry
        Total length         54.2615 bohr
 

     total cpu time spent up to now is      387.1 secs

     total energy              =   -7398.03723162 Ry
     estimated scf accuracy    <       0.00581278 Ry

     total magnetization       =    80.38 Bohr mag/cell
     absolute magnetization    =    82.03 Bohr mag/cell

     iteration # 34     ecut=    50.00 Ry     beta= 0.10
     Davidson diagonalization with overlap
     ethr =  5.39E-07,  avg # of iterations =  2.0

     negative rho (up, down):  5.970E-04 5.199E-04
 
     Adding external electric field

     Computed dipole along edir(3) : 
        Dipole               -0.1963 Ry au,         -0.4988 Debye
        Dipole field         -0.0001 Ry au, 
 
        Potential amp.        0.0132 Ry
        Total length         54.2615 bohr
 
 
     Adding external electric field

     Computed dipole along edir(3) : 
        Dipole               -0.1963 Ry au,         -0.4988 Debye
        Dipole field         -0.0001 Ry au, 
 
        Potential amp.        0.0132 Ry
        Total length         54.2615 bohr
 

     total cpu time spent up to now is      397.7 secs

     total energy              =   -7398.03722212 Ry
     estimated scf accuracy    <       0.00473128 Ry

     total magnetization       =    80.36 Bohr mag/cell
     absolute magnetization    =    81.99 Bohr mag/cell

     iteration # 35     ecut=    50.00 Ry     beta= 0.10
     Davidson diagonalization with overlap
     ethr =  4.39E-07,  avg # of iterations =  2.0

     negative rho (up, down):  3.971E-04 2.668E-04
 
     Adding external electric field

     Computed dipole along edir(3) : 
        Dipole               -0.1788 Ry au,         -0.4544 Debye
        Dipole field         -0.0001 Ry au, 
 
        Potential amp.        0.0120 Ry
        Total length         54.2615 bohr
 
 
     Adding external electric field

     Computed dipole along edir(3) : 
        Dipole               -0.1788 Ry au,         -0.4544 Debye
        Dipole field         -0.0001 Ry au, 
 
        Potential amp.        0.0120 Ry
        Total length         54.2615 bohr
 

     total cpu time spent up to now is      408.6 secs

     total energy              =   -7398.03718763 Ry
     estimated scf accuracy    <       0.00302287 Ry

     total magnetization       =    80.34 Bohr mag/cell
     absolute magnetization    =    81.88 Bohr mag/cell

     iteration # 36     ecut=    50.00 Ry     beta= 0.10
     Davidson diagonalization with overlap
     ethr =  2.80E-07,  avg # of iterations =  2.0

     negative rho (up, down):  2.572E-04 1.587E-04
 
     Adding external electric field

     Computed dipole along edir(3) : 
        Dipole               -0.1875 Ry au,         -0.4766 Debye
        Dipole field         -0.0001 Ry au, 
 
        Potential amp.        0.0126 Ry
        Total length         54.2615 bohr
 
 
     Adding external electric field

     Computed dipole along edir(3) : 
        Dipole               -0.1875 Ry au,         -0.4766 Debye
        Dipole field         -0.0001 Ry au, 
 
        Potential amp.        0.0126 Ry
        Total length         54.2615 bohr
 

     total cpu time spent up to now is      419.5 secs

     total energy              =   -7398.03714800 Ry
     estimated scf accuracy    <       0.00171635 Ry

     total magnetization       =    80.36 Bohr mag/cell
     absolute magnetization    =    81.84 Bohr mag/cell

     iteration # 37     ecut=    50.00 Ry     beta= 0.10
     Davidson diagonalization with overlap
     c_bands:  1 eigenvalues not converged
     ethr =  1.59E-07,  avg # of iterations = 11.0

     negative rho (up, down):  1.318E-04 6.495E-05
 
     Adding external electric field

     Computed dipole along edir(3) : 
        Dipole               -0.1926 Ry au,         -0.4895 Debye
        Dipole field         -0.0001 Ry au, 
 
        Potential amp.        0.0129 Ry
        Total length         54.2615 bohr
 
 
     Adding external electric field

     Computed dipole along edir(3) : 
        Dipole               -0.1926 Ry au,         -0.4895 Debye
        Dipole field         -0.0001 Ry au, 
 
        Potential amp.        0.0129 Ry
        Total length         54.2615 bohr
 

     total cpu time spent up to now is      433.7 secs

     total energy              =   -7398.03712774 Ry
     estimated scf accuracy    <       0.00117142 Ry

     total magnetization       =    80.36 Bohr mag/cell
     absolute magnetization    =    81.83 Bohr mag/cell

     iteration # 38     ecut=    50.00 Ry     beta= 0.10
     Davidson diagonalization with overlap
     ethr =  1.09E-07,  avg # of iterations =  4.0

     negative rho (up, down):  5.313E-04 4.137E-04
 
     Adding external electric field

     Computed dipole along edir(3) : 
        Dipole               -0.1884 Ry au,         -0.4788 Debye
        Dipole field         -0.0001 Ry au, 
 
        Potential amp.        0.0126 Ry
        Total length         54.2615 bohr
 
 
     Adding external electric field

     Computed dipole along edir(3) : 
        Dipole               -0.1884 Ry au,         -0.4788 Debye
        Dipole field         -0.0001 Ry au, 
 
        Potential amp.        0.0126 Ry
        Total length         54.2615 bohr
 

     total cpu time spent up to now is      445.1 secs

     total energy              =   -7398.03718207 Ry
     estimated scf accuracy    <       0.00078450 Ry

     total magnetization       =    80.33 Bohr mag/cell
     absolute magnetization    =    81.81 Bohr mag/cell

     iteration # 39     ecut=    50.00 Ry     beta= 0.10
     Davidson diagonalization with overlap
     ethr =  7.28E-08,  avg # of iterations = 10.0

     negative rho (up, down):  3.146E-04 2.360E-04
 
     Adding external electric field

     Computed dipole along edir(3) : 
        Dipole               -0.1986 Ry au,         -0.5049 Debye
        Dipole field         -0.0001 Ry au, 
 
        Potential amp.        0.0133 Ry
        Total length         54.2615 bohr
 
 
     Adding external electric field

     Computed dipole along edir(3) : 
        Dipole               -0.1986 Ry au,         -0.5049 Debye
        Dipole field         -0.0001 Ry au, 
 
        Potential amp.        0.0133 Ry
        Total length         54.2615 bohr
 

     total cpu time spent up to now is      464.3 secs

     total energy              =   -7398.03721360 Ry
     estimated scf accuracy    <       0.00041440 Ry

     total magnetization       =    80.32 Bohr mag/cell
     absolute magnetization    =    81.81 Bohr mag/cell

     iteration # 40     ecut=    50.00 Ry     beta= 0.10
     Davidson diagonalization with overlap
     ethr =  3.84E-08,  avg # of iterations =  2.0

     negative rho (up, down):  4.114E-04 3.327E-04
 
     Adding external electric field

     Computed dipole along edir(3) : 
        Dipole               -0.2008 Ry au,         -0.5104 Debye
        Dipole field         -0.0001 Ry au, 
 
        Potential amp.        0.0135 Ry
        Total length         54.2615 bohr
 
 
     Adding external electric field

     Computed dipole along edir(3) : 
        Dipole               -0.2008 Ry au,         -0.5104 Debye
        Dipole field         -0.0001 Ry au, 
 
        Potential amp.        0.0135 Ry
        Total length         54.2615 bohr
 

     total cpu time spent up to now is      479.2 secs

     total energy              =   -7398.03721147 Ry
     estimated scf accuracy    <       0.00034633 Ry

     total magnetization       =    80.31 Bohr mag/cell
     absolute magnetization    =    81.82 Bohr mag/cell

     iteration # 41     ecut=    50.00 Ry     beta= 0.10
     Davidson diagonalization with overlap
     ethr =  3.21E-08,  avg # of iterations =  2.0

     negative rho (up, down):  1.313E-03 1.247E-03
 
     Adding external electric field

     Computed dipole along edir(3) : 
        Dipole               -0.1776 Ry au,         -0.4514 Debye
        Dipole field         -0.0001 Ry au, 
 
        Potential amp.        0.0119 Ry
        Total length         54.2615 bohr
 
 
     Adding external electric field

     Computed dipole along edir(3) : 
        Dipole               -0.1776 Ry au,         -0.4514 Debye
        Dipole field         -0.0001 Ry au, 
 
        Potential amp.        0.0119 Ry
        Total length         54.2615 bohr
 

     total cpu time spent up to now is      490.7 secs

     total energy              =   -7398.03726119 Ry
     estimated scf accuracy    <       0.00028389 Ry

     total magnetization       =    80.31 Bohr mag/cell
     absolute magnetization    =    81.83 Bohr mag/cell

     iteration # 42     ecut=    50.00 Ry     beta= 0.10
     Davidson diagonalization with overlap
     ethr =  2.63E-08,  avg # of iterations =  2.0

     negative rho (up, down):  1.822E-03 1.707E-03
 
     Adding external electric field

     Computed dipole along edir(3) : 
        Dipole               -0.1660 Ry au,         -0.4220 Debye
        Dipole field         -0.0001 Ry au, 
 
        Potential amp.        0.0111 Ry
        Total length         54.2615 bohr
 
 
     Adding external electric field

     Computed dipole along edir(3) : 
        Dipole               -0.1660 Ry au,         -0.4220 Debye
        Dipole field         -0.0001 Ry au, 
 
        Potential amp.        0.0111 Ry
        Total length         54.2615 bohr
 

     total cpu time spent up to now is      503.5 secs

     total energy              =   -7398.03731927 Ry
     estimated scf accuracy    <       0.00010956 Ry

     total magnetization       =    80.31 Bohr mag/cell
     absolute magnetization    =    81.84 Bohr mag/cell

     iteration # 43     ecut=    50.00 Ry     beta= 0.10
     Davidson diagonalization with overlap
     ethr =  1.02E-08,  avg # of iterations =  2.0

     negative rho (up, down):  1.090E-03 8.775E-04
 
     Adding external electric field

     Computed dipole along edir(3) : 
        Dipole               -0.1623 Ry au,         -0.4126 Debye
        Dipole field         -0.0001 Ry au, 
 
        Potential amp.        0.0109 Ry
        Total length         54.2615 bohr
 
 
     Adding external electric field

     Computed dipole along edir(3) : 
        Dipole               -0.1623 Ry au,         -0.4126 Debye
        Dipole field         -0.0001 Ry au, 
 
        Potential amp.        0.0109 Ry
        Total length         54.2615 bohr
 

     total cpu time spent up to now is      516.8 secs

     total energy              =   -7398.03735778 Ry
     estimated scf accuracy    <       0.00007644 Ry

     total magnetization       =    80.31 Bohr mag/cell
     absolute magnetization    =    81.85 Bohr mag/cell

     iteration # 44     ecut=    50.00 Ry     beta= 0.10
     Davidson diagonalization with overlap
     ethr =  7.09E-09,  avg # of iterations =  3.0

     negative rho (up, down):  9.293E-04 6.915E-04
 
     Adding external electric field

     Computed dipole along edir(3) : 
        Dipole               -0.1606 Ry au,         -0.4083 Debye
        Dipole field         -0.0001 Ry au, 
 
        Potential amp.        0.0108 Ry
        Total length         54.2615 bohr
 
 
     Adding external electric field

     Computed dipole along edir(3) : 
        Dipole               -0.1606 Ry au,         -0.4083 Debye
        Dipole field         -0.0001 Ry au, 
 
        Potential amp.        0.0108 Ry
        Total length         54.2615 bohr
 

     total cpu time spent up to now is      530.9 secs

     total energy              =   -7398.03737006 Ry
     estimated scf accuracy    <       0.00003941 Ry

     total magnetization       =    80.31 Bohr mag/cell
     absolute magnetization    =    81.86 Bohr mag/cell

     iteration # 45     ecut=    50.00 Ry     beta= 0.10
     Davidson diagonalization with overlap
     ethr =  3.66E-09,  avg # of iterations =  2.0

     negative rho (up, down):  1.204E-03 9.270E-04
 
     Adding external electric field

     Computed dipole along edir(3) : 
        Dipole               -0.1562 Ry au,         -0.3969 Debye
        Dipole field         -0.0001 Ry au, 
 
        Potential amp.        0.0105 Ry
        Total length         54.2615 bohr
 
 
     Adding external electric field

     Computed dipole along edir(3) : 
        Dipole               -0.1562 Ry au,         -0.3969 Debye
        Dipole field         -0.0001 Ry au, 
 
        Potential amp.        0.0105 Ry
        Total length         54.2615 bohr
 

     total cpu time spent up to now is      544.7 secs

     total energy              =   -7398.03737800 Ry
     estimated scf accuracy    <       0.00002985 Ry

     total magnetization       =    80.31 Bohr mag/cell
     absolute magnetization    =    81.85 Bohr mag/cell

     iteration # 46     ecut=    50.00 Ry     beta= 0.10
     Davidson diagonalization with overlap
     ethr =  2.77E-09,  avg # of iterations =  2.0

     negative rho (up, down):  9.575E-04 6.073E-04
 
     Adding external electric field

     Computed dipole along edir(3) : 
        Dipole               -0.1576 Ry au,         -0.4005 Debye
        Dipole field         -0.0001 Ry au, 
 
        Potential amp.        0.0106 Ry
        Total length         54.2615 bohr
 
 
     Adding external electric field

     Computed dipole along edir(3) : 
        Dipole               -0.1576 Ry au,         -0.4005 Debye
        Dipole field         -0.0001 Ry au, 
 
        Potential amp.        0.0106 Ry
        Total length         54.2615 bohr
 

     total cpu time spent up to now is      558.0 secs

     total energy              =   -7398.03737935 Ry
     estimated scf accuracy    <       0.00001880 Ry

     total magnetization       =    80.31 Bohr mag/cell
     absolute magnetization    =    81.86 Bohr mag/cell

     iteration # 47     ecut=    50.00 Ry     beta= 0.10
     Davidson diagonalization with overlap
     ethr =  1.74E-09,  avg # of iterations =  2.0

     negative rho (up, down):  8.027E-04 4.159E-04
 
     Adding external electric field

     Computed dipole along edir(3) : 
        Dipole               -0.1589 Ry au,         -0.4039 Debye
        Dipole field         -0.0001 Ry au, 
 
        Potential amp.        0.0107 Ry
        Total length         54.2615 bohr
 
 
     Adding external electric field

     Computed dipole along edir(3) : 
        Dipole               -0.1589 Ry au,         -0.4039 Debye
        Dipole field         -0.0001 Ry au, 
 
        Potential amp.        0.0107 Ry
        Total length         54.2615 bohr
 

     total cpu time spent up to now is      571.4 secs

     total energy              =   -7398.03737912 Ry
     estimated scf accuracy    <       0.00000946 Ry

     total magnetization       =    80.32 Bohr mag/cell
     absolute magnetization    =    81.85 Bohr mag/cell

     iteration # 48     ecut=    50.00 Ry     beta= 0.10
     Davidson diagonalization with overlap
     ethr =  8.78E-10,  avg # of iterations =  5.5

     negative rho (up, down):  7.190E-04 3.361E-04
 
     Adding external electric field

     Computed dipole along edir(3) : 
        Dipole               -0.1593 Ry au,         -0.4049 Debye
        Dipole field         -0.0001 Ry au, 
 
        Potential amp.        0.0107 Ry
        Total length         54.2615 bohr
 
 
     Adding external electric field

     Computed dipole along edir(3) : 
        Dipole               -0.1593 Ry au,         -0.4049 Debye
        Dipole field         -0.0001 Ry au, 
 
        Potential amp.        0.0107 Ry
        Total length         54.2615 bohr
 

     total cpu time spent up to now is      586.0 secs

     total energy              =   -7398.03737850 Ry
     estimated scf accuracy    <       0.00000498 Ry

     total magnetization       =    80.32 Bohr mag/cell
     absolute magnetization    =    81.85 Bohr mag/cell

     iteration # 49     ecut=    50.00 Ry     beta= 0.10
     Davidson diagonalization with overlap
     ethr =  4.62E-10,  avg # of iterations =  2.0

     negative rho (up, down):  8.855E-04 4.840E-04
 
     Adding external electric field

     Computed dipole along edir(3) : 
        Dipole               -0.1563 Ry au,         -0.3973 Debye
        Dipole field         -0.0001 Ry au, 
 
        Potential amp.        0.0105 Ry
        Total length         54.2615 bohr
 
 
     Adding external electric field

     Computed dipole along edir(3) : 
        Dipole               -0.1563 Ry au,         -0.3973 Debye
        Dipole field         -0.0001 Ry au, 
 
        Potential amp.        0.0105 Ry
        Total length         54.2615 bohr
 

     total cpu time spent up to now is      599.0 secs

     total energy              =   -7398.03737967 Ry
     estimated scf accuracy    <       0.00000457 Ry

     total magnetization       =    80.32 Bohr mag/cell
     absolute magnetization    =    81.85 Bohr mag/cell

     iteration # 50     ecut=    50.00 Ry     beta= 0.10
     Davidson diagonalization with overlap
     ethr =  4.24E-10,  avg # of iterations =  1.5

     negative rho (up, down):  8.689E-04 4.706E-04
 
     Adding external electric field

     Computed dipole along edir(3) : 
        Dipole               -0.1552 Ry au,         -0.3946 Debye
        Dipole field         -0.0001 Ry au, 
 
        Potential amp.        0.0104 Ry
        Total length         54.2615 bohr
 
 
     Adding external electric field

     Computed dipole along edir(3) : 
        Dipole               -0.1552 Ry au,         -0.3946 Debye
        Dipole field         -0.0001 Ry au, 
 
        Potential amp.        0.0104 Ry
        Total length         54.2615 bohr
 

     total cpu time spent up to now is      610.9 secs

     total energy              =   -7398.03737956 Ry
     estimated scf accuracy    <       0.00000269 Ry

     total magnetization       =    80.32 Bohr mag/cell
     absolute magnetization    =    81.85 Bohr mag/cell

     iteration # 51     ecut=    50.00 Ry     beta= 0.10
     Davidson diagonalization with overlap
     ethr =  2.49E-10,  avg # of iterations =  2.0

     negative rho (up, down):  9.531E-04 5.541E-04
 
     Adding external electric field

     Computed dipole along edir(3) : 
        Dipole               -0.1532 Ry au,         -0.3893 Debye
        Dipole field         -0.0001 Ry au, 
 
        Potential amp.        0.0103 Ry
        Total length         54.2615 bohr
 
 
     Adding external electric field

     Computed dipole along edir(3) : 
        Dipole               -0.1532 Ry au,         -0.3893 Debye
        Dipole field         -0.0001 Ry au, 
 
        Potential amp.        0.0103 Ry
        Total length         54.2615 bohr
 

     total cpu time spent up to now is      623.2 secs

     total energy              =   -7398.03738025 Ry
     estimated scf accuracy    <       0.00000192 Ry

     total magnetization       =    80.32 Bohr mag/cell
     absolute magnetization    =    81.85 Bohr mag/cell

     iteration # 52     ecut=    50.00 Ry     beta= 0.10
     Davidson diagonalization with overlap
     ethr =  1.78E-10,  avg # of iterations =  1.5

     negative rho (up, down):  1.086E-03 6.886E-04
 
     Adding external electric field

     Computed dipole along edir(3) : 
        Dipole               -0.1503 Ry au,         -0.3820 Debye
        Dipole field         -0.0001 Ry au, 
 
        Potential amp.        0.0101 Ry
        Total length         54.2615 bohr
 
 
     Adding external electric field

     Computed dipole along edir(3) : 
        Dipole               -0.1503 Ry au,         -0.3820 Debye
        Dipole field         -0.0001 Ry au, 
 
        Potential amp.        0.0101 Ry
        Total length         54.2615 bohr
 

     total cpu time spent up to now is      635.6 secs

     total energy              =   -7398.03738102 Ry
     estimated scf accuracy    <       0.00000131 Ry

     total magnetization       =    80.31 Bohr mag/cell
     absolute magnetization    =    81.85 Bohr mag/cell

     iteration # 53     ecut=    50.00 Ry     beta= 0.10
     Davidson diagonalization with overlap
     ethr =  1.21E-10,  avg # of iterations =  2.0

     negative rho (up, down):  9.275E-04 5.461E-04
 
     Adding external electric field

     Computed dipole along edir(3) : 
        Dipole               -0.1514 Ry au,         -0.3847 Debye
        Dipole field         -0.0001 Ry au, 
 
        Potential amp.        0.0102 Ry
        Total length         54.2615 bohr
 
 
     Adding external electric field

     Computed dipole along edir(3) : 
        Dipole               -0.1514 Ry au,         -0.3847 Debye
        Dipole field         -0.0001 Ry au, 
 
        Potential amp.        0.0102 Ry
        Total length         54.2615 bohr
 
 
     Magnetic moment per site  (integrated on atomic sphere of radius R)
     atom   1 (R=0.087)  charge= 12.0345  magn=  3.8861
     atom   2 (R=0.080)  charge=  7.1319  magn=  1.5381
     atom   3 (R=0.080)  charge=  7.1441  magn=  1.4464
     atom   4 (R=0.080)  charge=  7.1308  magn=  1.5477
     atom   5 (R=0.080)  charge=  7.1582  magn=  1.5033
     atom   6 (R=0.080)  charge=  7.1492  magn=  1.5004
     atom   7 (R=0.080)  charge=  7.1515  magn=  1.4258
     atom   8 (R=0.080)  charge=  7.1333  magn=  1.5356
     atom   9 (R=0.080)  charge=  7.1437  magn=  1.4516
     atom  10 (R=0.080)  charge=  7.1323  magn=  1.5443
     atom  11 (R=0.080)  charge=  7.1544  magn=  1.4994
     atom  12 (R=0.080)  charge=  7.1499  magn=  1.5017
     atom  13 (R=0.065)  charge=  0.7513  magn=  0.0078
     atom  14 (R=0.065)  charge=  0.7307  magn=  0.0042
     atom  15 (R=0.065)  charge=  0.7507  magn=  0.0034
     atom  16 (R=0.065)  charge=  0.7368  magn=  0.0055
     atom  17 (R=0.044)  charge=  1.9826  magn=  0.0622
     atom  18 (R=0.044)  charge=  1.9724  magn=  0.0741
     atom  19 (R=0.044)  charge=  1.9750  magn=  0.0931
     atom  20 (R=0.044)  charge=  1.9759  magn=  0.0770
     atom  21 (R=0.044)  charge=  1.9906  magn=  0.0458
     atom  22 (R=0.044)  charge=  1.9697  magn=  0.0345
     atom  23 (R=0.044)  charge=  1.9687  magn=  0.0489
     atom  24 (R=0.044)  charge=  1.9840  magn=  0.0576
     atom  25 (R=0.044)  charge=  1.9811  magn=  0.0573
     atom  26 (R=0.044)  charge=  2.0032  magn=  0.0415
     atom  27 (R=0.044)  charge=  1.9819  magn=  0.0504
     atom  28 (R=0.044)  charge=  1.9814  magn=  0.0491
     atom  29 (R=0.044)  charge=  1.9946  magn=  0.0369
     atom  30 (R=0.044)  charge=  1.9759  magn=  0.0521
     atom  31 (R=0.044)  charge=  2.0011  magn=  0.0529
     atom  32 (R=0.044)  charge=  1.9841  magn=  0.0467
     atom  33 (R=0.065)  charge=  0.7467  magn=  0.0055
     atom  34 (R=0.065)  charge=  0.7404  magn=  0.0035
     atom  35 (R=0.065)  charge=  0.7497  magn=  0.0026
     atom  36 (R=0.065)  charge=  0.7265  magn=  0.0056
     atom  37 (R=0.044)  charge=  1.9753  magn=  0.0781
     atom  38 (R=0.044)  charge=  1.9755  magn=  0.0933
     atom  39 (R=0.044)  charge=  1.9771  magn=  0.0971
     atom  40 (R=0.044)  charge=  1.9737  magn=  0.0776
     atom  41 (R=0.044)  charge=  1.9802  magn=  0.0568
     atom  42 (R=0.044)  charge=  1.9662  magn=  0.0473
     atom  43 (R=0.044)  charge=  1.9686  magn=  0.0516
     atom  44 (R=0.044)  charge=  1.9827  magn=  0.0572
     atom  45 (R=0.044)  charge=  1.9805  magn=  0.0581
     atom  46 (R=0.044)  charge=  1.9998  magn=  0.0523
     atom  47 (R=0.044)  charge=  1.9930  magn=  0.0471
     atom  48 (R=0.044)  charge=  1.9812  magn=  0.0492
     atom  49 (R=0.044)  charge=  1.9795  magn=  0.0458
     atom  50 (R=0.044)  charge=  1.9798  magn=  0.0500
     atom  51 (R=0.044)  charge=  2.0004  magn=  0.0550
     atom  52 (R=0.044)  charge=  1.9868  magn=  0.0507
     atom  53 (R=0.087)  charge= 12.0537  magn=  3.8600
     atom  54 (R=0.080)  charge=  7.1286  magn=  1.5411
     atom  55 (R=0.080)  charge=  7.1321  magn=  1.5465
     atom  56 (R=0.080)  charge=  7.1306  magn=  1.5423
     atom  57 (R=0.080)  charge=  7.1579  magn=  1.5054
     atom  58 (R=0.080)  charge=  7.1494  magn=  1.5029
     atom  59 (R=0.080)  charge=  7.1317  magn=  1.5418
     atom  60 (R=0.080)  charge=  7.1317  magn=  1.5381
     atom  61 (R=0.080)  charge=  7.1312  magn=  1.5479
     atom  62 (R=0.080)  charge=  7.1320  magn=  1.5404
     atom  63 (R=0.080)  charge=  7.1542  magn=  1.5019
     atom  64 (R=0.080)  charge=  7.1509  magn=  1.5040
     atom  65 (R=0.065)  charge=  0.7501  magn=  0.0075
     atom  66 (R=0.065)  charge=  0.7287  magn=  0.0062
     atom  67 (R=0.065)  charge=  0.7481  magn=  0.0063
     atom  68 (R=0.065)  charge=  0.7361  magn=  0.0054
     atom  69 (R=0.044)  charge=  1.9845  magn=  0.0672
     atom  70 (R=0.044)  charge=  1.9796  magn=  0.0662
     atom  71 (R=0.044)  charge=  1.9764  magn=  0.0781
     atom  72 (R=0.044)  charge=  1.9759  magn=  0.0817
     atom  73 (R=0.044)  charge=  1.9887  magn=  0.0487
     atom  74 (R=0.044)  charge=  1.9859  magn=  0.0479
     atom  75 (R=0.044)  charge=  1.9851  magn=  0.0577
     atom  76 (R=0.044)  charge=  1.9817  magn=  0.0568
     atom  77 (R=0.044)  charge=  1.9793  magn=  0.0577
     atom  78 (R=0.044)  charge=  2.0054  magn=  0.0436
     atom  79 (R=0.044)  charge=  1.9802  magn=  0.0505
     atom  80 (R=0.044)  charge=  1.9824  magn=  0.0498
     atom  81 (R=0.044)  charge=  1.9931  magn=  0.0370
     atom  82 (R=0.044)  charge=  1.9811  magn=  0.0563
     atom  83 (R=0.044)  charge=  2.0002  magn=  0.0535
[...]
    -6.0018  -5.9780  -5.9508  -5.9414  -5.8986  -5.8979  -5.8649  -5.8583
    -5.8151  -5.7983  -5.7625  -5.7363  -5.7319  -5.7237  -5.7005  -5.6884
    -5.6803  -5.6686  -5.6477  -5.6290  -5.6230  -5.5978  -5.5533  -5.5111
    -5.4777  -5.4434  -5.4241  -5.3997  -5.3876  -5.3504  -5.3302  -5.2919
    -5.2460  -5.2196  -5.1956  -5.1838  -5.1706  -5.0840  -5.0800  -5.0587
    -4.9873  -4.9831  -4.9486  -4.9149  -4.8955  -4.8809  -4.8675  -4.8086
    -4.7795  -4.7685  -4.7424  -4.7339  -4.6475  -4.6438  -4.5767  -4.5599
    -4.5462  -4.5216  -4.4803  -4.4652  -4.4254  -4.3960  -4.3849  -4.3747
    -4.3394  -4.2976  -4.2796  -4.2248  -4.1783  -4.1554  -4.1381  -4.0894
    -4.0829  -4.0456  -4.0328  -4.0101  -3.9623  -3.9556  -3.9187  -3.9053
    -3.8993  -3.8537  -3.8354  -3.8210  -3.7986  -3.7742  -3.7462  -3.7362
    -3.7121  -3.7023  -3.6634  -3.6505  -3.6428  -3.6285  -3.6196  -3.5841
    -3.5525  -3.5302  -3.5274  -3.5237  -3.5047  -3.4872  -3.4479  -3.4391
    -3.4247  -3.4057  -3.3960  -3.3496  -3.3363  -3.3130  -3.2877  -3.2543
    -3.2436  -3.2185  -3.2076  -3.1895  -3.1760  -3.1691  -3.1589  -3.1494
    -3.1387  -3.0753  -3.0444  -3.0369  -3.0240  -3.0029  -2.9730  -2.9550
    -2.9373  -2.9143  -2.9034  -2.8748  -2.8634  -2.8527  -2.8296  -2.8198
    -2.7969  -2.7906  -2.7881  -2.7578  -2.7534  -2.7471  -2.7344  -2.6996
    -2.6901  -2.6817  -2.6577  -2.6448  -2.6341  -2.6222  -2.6037  -2.5795
    -2.5554  -2.5474  -2.5346  -2.4974  -2.4906  -2.4841  -2.4781  -2.4447
    -2.4277  -2.4060  -2.3985  -2.3717  -2.3529  -2.3243  -2.3049  -2.2910
    -2.2637  -2.2490  -2.2438  -2.2056  -2.1882  -2.1561  -2.1357  -2.1281
    -2.1092  -2.0976  -2.0817  -2.0779  -2.0688  -2.0569  -2.0118  -1.9958
    -1.9845  -1.9757  -1.9616  -1.9454  -1.9316  -1.9210  -1.8946  -1.8655
    -1.8363  -1.8196  -1.7938  -1.7720  -1.7494  -1.7388  -1.7014  -1.6965
    -1.6883  -1.6565  -1.6402  -1.6304  -1.6174  -1.6094  -1.5830  -1.5538
    -1.5436  -1.5309  -1.4942  -1.4765  -1.4494  -1.4379  -1.4315  -1.4274
    -1.4108  -1.3811  -1.3275  -1.3208  -1.2992  -1.2500  -1.2380  -1.2154
    -1.1541  -1.1040  -1.0772  -1.0523  -1.0135  -0.9261  -0.8889  -0.8759
    -0.7770  -0.6666  -0.6132  -0.5976  -0.4630  -0.3664  -0.2994  -0.2587
     0.0983   0.1189   0.1530   0.1864   0.2270   0.2398   0.2544   0.2580
     0.2723   0.2814   0.2952   0.2987   0.3053   0.3243   0.3404   0.3422
     0.3490   0.3507   0.3688   0.3752   0.3820   0.3846   0.3899   0.4006
     0.4123   0.4142   0.4215   0.4348   0.4431   0.4436   0.4535   0.4578
     0.4622   0.4712   0.4731   0.4784   0.4923   0.4959   0.5039   0.5096
     0.5127   0.5260   0.5346   0.5451   0.5501   0.5538   0.5584   0.5672
     0.5797   0.5832   0.5955   0.5998   0.6059   0.6120   0.6185   0.6297
     0.6371   0.6518   0.6625   0.6712   0.6738   0.6773   0.6820   0.6871
     0.6941   0.7030   0.7067   0.7142   0.7160   0.7365   0.7396   0.7435
     0.7471   0.7506   0.7768   0.7822   0.7870   0.7950   0.7992   0.8144
     0.8234   0.8310   0.8431   0.8479   0.8603   0.8635   0.8755   0.8784
     0.8931   0.9120   0.9201   0.9265   0.9517   0.9863   0.9868   1.0344
     1.0720   1.1359   1.5957   1.6583   1.6965   1.7008   1.7139   1.7397
     1.7484   1.8356   1.8613   1.8780   1.8894   1.9291   1.9357   1.9591
     1.9855   1.9890   2.0066   2.0201   2.0385   2.0645   2.0783   2.1234
     2.1487   2.1505   2.1711   2.1958   2.2080   2.2115   2.2201   2.2287
     2.2444   2.2517   2.2581   2.2782   2.2872   2.2966   2.3117   2.3213
     2.3312   2.3469   2.3721   2.3869   2.3975   2.4053   2.4180   2.4404
     2.4436   2.4630   2.4736   2.4907   2.5030   2.5173   2.5368   2.5448
     2.5715   2.5848   2.6066   2.6316   2.6673   2.7223   2.7294   2.7594
     2.7873   2.8189   2.8355   2.9043   2.9305   3.4707   3.5911   3.6371
     3.6656   3.7612   3.8289   3.8444   3.8625   4.0025   4.0657   4.4904
     4.6052   4.6468   4.7725   4.9239   4.9470   5.0216   5.4157   6.2945
     6.3599   6.5432   6.5809   6.7689   6.8275   6.8554   6.8684   6.9336
     6.9860   7.0673   7.1049   7.1635   7.2788   7.3226   7.3619   7.4712
     7.4997   7.5494   7.6401   7.6653   7.6930   7.7293   7.7850   7.8001
     7.8479   7.9209   7.9363   7.9922   8.0078   8.0275   8.0468   8.0647
     8.0931   8.1049   8.1539   8.1985   8.2366   8.2527   8.2938   8.3264
     8.3657   8.3929   8.4242   8.4424   8.4582   8.4733   8.4916   8.5073
     8.5394   8.5521   8.5758   8.6076   8.6152   8.6473   8.6511   8.6856
     8.6987   8.7554   8.7769   8.7935   8.8176   8.8349   8.8896

     the Fermi energy is     1.5656 ev

!    total energy              =   -7398.03737990 Ry
     estimated scf accuracy    <       0.00000068 Ry
     smearing contrib. (-TS)   =      -0.01456617 Ry
     internal energy E=F+TS    =   -7398.02281373 Ry

     The total energy is F=E-TS. E is the sum of the following terms:
     one-electron contribution =  -91727.17272692 Ry
     hartree contribution      =   46511.28942128 Ry
     xc contribution           =   -2260.25854638 Ry
     ewald contribution        =   40079.95267655 Ry
     Dispersion Correction     =      -1.83365243 Ry
     electric field correction =       0.00001417 Ry

     total magnetization       =    80.32 Bohr mag/cell
     absolute magnetization    =    81.85 Bohr mag/cell

     convergence has been achieved in  53 iterations

     negative rho (up, down):  9.275E-04 5.461E-04

     Forces acting on atoms (cartesian axes, Ry/au):

     atom    1 type  2   force =     0.03096014   -0.01966785   -0.01643073
     atom    2 type  1   force =     0.00213294   -0.00394818   -0.01064285
     atom    3 type  1   force =    -0.02159525   -0.02070590    0.01799392
     atom    4 type  1   force =     0.00143130    0.01019679   -0.01269869
     atom    5 type  1   force =    -0.00478082    0.02902316   -0.01858424
     atom    6 type  1   force =     0.00586955    0.00055528   -0.00057059
     atom    7 type  1   force =     0.02695899   -0.02101468    0.01727124
     atom    8 type  1   force =    -0.00960957   -0.00307170   -0.01100687
     atom    9 type  1   force =    -0.02984402   -0.01824826    0.01596613
     atom   10 type  1   force =    -0.00112171    0.00802990   -0.01300192
     atom   11 type  1   force =    -0.01319748    0.03041057   -0.02076473
     atom   12 type  1   force =     0.00130632    0.00664585   -0.00422512
     atom   13 type  3   force =     0.05100934   -0.11007859    0.00914292
     atom   14 type  3   force =    -0.02903154    0.03594845   -0.06521098
     atom   15 type  3   force =    -0.00919982    0.17548207   -0.08319569
     atom   16 type  3   force =     0.06069200    0.00061740   -0.00447476
     atom   17 type  4   force =     0.01517635   -0.02184185   -0.00980310
     atom   18 type  4   force =    -0.00540503    0.00482565    0.02967676
     atom   19 type  4   force =     0.00216163    0.00102414    0.03078438
     atom   20 type  4   force =     0.00515399    0.00185191    0.00236749
     atom   21 type  4   force =     0.00055925   -0.01199056    0.00001961
     atom   22 type  4   force =    -0.00091636    0.00386405    0.03251593
     atom   23 type  4   force =    -0.00607400    0.01466629    0.02743836
     atom   24 type  4   force =     0.00870201    0.00317113   -0.00415524
     atom   25 type  4   force =     0.00650882   -0.00323121    0.00158270
     atom   26 type  4   force =     0.03118240   -0.17832226    0.00723511
     atom   27 type  4   force =     0.00283472    0.00098691    0.00172614
     atom   28 type  4   force =    -0.01704377    0.00167834    0.00474382
     atom   29 type  4   force =     0.09135062    0.00313568    0.00805026
     atom   30 type  4   force =     0.01306220   -0.02516313   -0.00091035
     atom   31 type  4   force =    -0.03847860    0.13344832   -0.00014669
     atom   32 type  4   force =    -0.00546737   -0.01185364    0.00653818
     atom   33 type  3   force =     0.04156525   -0.11924954    0.00958470
     atom   34 type  3   force =    -0.10167396    0.04258863   -0.07576447
     atom   35 type  3   force =    -0.01351133    0.16599148   -0.08813526
     atom   36 type  3   force =    -0.00359693    0.00264230   -0.01053265
     atom   37 type  4   force =     0.00823165   -0.01468347   -0.00240444
     atom   38 type  4   force =    -0.00586274   -0.00170330    0.02744291
     atom   39 type  4   force =    -0.00467142    0.00725829    0.03220566
     atom   40 type  4   force =     0.00132093    0.00000859    0.00247546
     atom   41 type  4   force =    -0.00151722   -0.00961618   -0.00147641
     atom   42 type  4   force =     0.00542695   -0.00052902    0.02935674
     atom   43 type  4   force =    -0.01044927    0.01349596    0.02707271
     atom   44 type  4   force =     0.00448833    0.00342379   -0.00433138
     atom   45 type  4   force =    -0.00028492   -0.00061518    0.00204067
     atom   46 type  4   force =     0.02816808   -0.17056278    0.00540047
     atom   47 type  4   force =    -0.06557274   -0.00074856   -0.00307499
     atom   48 type  4   force =    -0.01987022    0.00391513    0.00529746
     atom   49 type  4   force =     0.01408984    0.00083968    0.00204328
     atom   50 type  4   force =     0.00793662   -0.02438227   -0.00016767
     atom   51 type  4   force =    -0.03977203    0.13343617   -0.00131940
     atom   52 type  4   force =    -0.00774281   -0.01064451    0.00877846
     atom   53 type  2   force =     0.00629913   -0.00727821    0.00580069
     atom   54 type  1   force =     0.00043614   -0.00389125    0.00829867
     atom   55 type  1   force =     0.00498394   -0.00629715    0.00675749
     atom   56 type  1   force =    -0.00060339    0.00738758   -0.00123502
     atom   57 type  1   force =     0.00062295    0.02188820   -0.01394034
     atom   58 type  1   force =     0.00131525   -0.00316868    0.00259201
     atom   59 type  1   force =     0.00248987   -0.01017112    0.00399127
     atom   60 type  1   force =    -0.00802475   -0.00421783    0.00610266
     atom   61 type  1   force =    -0.00482059   -0.00503583    0.00666958
     atom   62 type  1   force =    -0.00302416    0.00583185   -0.00111069
     atom   63 type  1   force =    -0.01104905    0.02495332   -0.01743397
     atom   64 type  1   force =    -0.00206785    0.00137373   -0.00066933
     atom   65 type  3   force =     0.04596698   -0.12120167    0.01729742
     atom   66 type  3   force =     0.00146372   -0.00420189    0.00049527
     atom   67 type  3   force =    -0.04065286    0.12349463   -0.00707317
     atom   68 type  3   force =     0.06302930    0.00000253    0.00882572
     atom   69 type  4   force =     0.01305268   -0.01668924   -0.00236314
     atom   70 type  4   force =    -0.00166136    0.00331716   -0.00060329
     atom   71 type  4   force =    -0.00186785    0.00345630    0.00533113
     atom   72 type  4   force =     0.00480769    0.00121944    0.00115106
     atom   73 type  4   force =     0.00812594   -0.01719372    0.01182996
     atom   74 type  4   force =    -0.00423887   -0.00350560    0.00936370
     atom   75 type  4   force =     0.00357008    0.00868297    0.00463252
     atom   76 type  4   force =     0.00565338    0.00023852    0.00055583
     atom   77 type  4   force =     0.00602278   -0.00224270   -0.00117995
     atom   78 type  4   force =     0.04532697   -0.14067915    0.00581494
     atom   79 type  4   force =     0.00067380    0.00018897   -0.00062060
     atom   80 type  4   force =     0.00154946    0.00191549    0.00228938
     atom   81 type  4   force =     0.06736175    0.00007194    0.00648671
     atom   82 type  4   force =     0.00024040    0.00228286    0.00135971
     atom   83 type  4   force =    -0.03927231    0.13792532   -0.00243707
     atom   84 type  4   force =    -0.00169473   -0.01026115    0.00326083
     atom   85 type  3   force =     0.03898440   -0.12509661    0.02574309
     atom   86 type  3   force =    -0.06320813   -0.00150889   -0.00368404
     atom   87 type  3   force =    -0.04614116    0.12073335   -0.01063156
     atom   88 type  3   force =    -0.00054631   -0.00007872    0.00133287
     atom   89 type  4   force =     0.00873297   -0.01510099   -0.00516080
     atom   90 type  4   force =    -0.00455148    0.00095527   -0.00094472
     atom   91 type  4   force =    -0.00953296    0.00840596    0.00563220
     atom   92 type  4   force =     0.00029528   -0.00012601    0.00066617
     atom   93 type  4   force =     0.00145140   -0.01153696    0.00029796
     atom   94 type  4   force =    -0.00903230   -0.00298439    0.00829817
     atom   95 type  4   force =    -0.00029418    0.00776921    0.00307621
     atom   96 type  4   force =    -0.00024646    0.00155910   -0.00075818
     atom   97 type  4   force =    -0.00134973    0.00151179    0.00044754
     atom   98 type  4   force =     0.04060409   -0.13907270    0.00490763
     atom   99 type  4   force =    -0.06744910   -0.00102795   -0.00535888
     atom  100 type  4   force =    -0.00044568    0.00285421    0.00296892
     atom  101 type  4   force =    -0.00117685    0.00003030    0.00151622
     atom  102 type  4   force =    -0.00690473    0.00536719    0.00161155
     atom  103 type  4   force =    -0.03996900    0.13606180   -0.00423134
     atom  104 type  4   force =    -0.00582330   -0.00974747    0.00498861
     atom  105 type  2   force =     0.00041885   -0.00030664   -0.00059187
     atom  106 type  1   force =     0.00022716   -0.00026161   -0.00001681
     atom  107 type  1   force =     0.00019554   -0.00013396    0.00034342
     atom  108 type  1   force =    -0.00006060   -0.00048059   -0.00022921
     atom  109 type  1   force =     0.00015592   -0.00019293   -0.00014646
     atom  110 type  1   force =     0.00038869    0.00042741   -0.00028712
     atom  111 type  1   force =     0.00011468   -0.00026878   -0.00003372
     atom  112 type  1   force =    -0.00211702   -0.00193077    0.00249586
     atom  113 type  1   force =     0.00010736    0.00005270   -0.00004411
     atom  114 type  1   force =    -0.00011879   -0.00063786    0.00017076
     atom  115 type  1   force =     0.00004896   -0.00024841    0.00028194
     atom  116 type  1   force =    -0.00033982   -0.00016888   -0.00022073
     atom  117 type  3   force =    -0.00020737   -0.00038330   -0.00007143
     atom  118 type  3   force =     0.00013780    0.00014948    0.00007658
     atom  119 type  3   force =    -0.00023339   -0.00039525    0.00021813
     atom  120 type  3   force =     0.00037340   -0.00016110   -0.00010783
     atom  121 type  4   force =     0.00010316    0.00059002   -0.00061585
     atom  122 type  4   force =    -0.00030047   -0.00022369    0.00011387
     atom  123 type  4   force =     0.00019884   -0.00003888   -0.00013437
     atom  124 type  4   force =    -0.00067688    0.00014943   -0.00047031
     atom  125 type  4   force =     0.00011195   -0.00004826   -0.00003512
     atom  126 type  4   force =    -0.00000043   -0.00002949    0.00021484
     atom  127 type  4   force =     0.00000061   -0.00003440   -0.00015708
     atom  128 type  4   force =    -0.00003458    0.00022554    0.00028940
     atom  129 type  4   force =    -0.00099539    0.00053917    0.00026146
     atom  130 type  4   force =    -0.00006953   -0.00009369    0.00008338
     atom  131 type  4   force =    -0.00025789   -0.00005677   -0.00004430
     atom  132 type  4   force =     0.00035448    0.00021710   -0.00008130
     atom  133 type  4   force =    -0.00023294   -0.00053139   -0.00010068
     atom  134 type  4   force =    -0.00014494    0.00005472    0.00029973
     atom  135 type  4   force =    -0.00009097   -0.00027841   -0.00020069
     atom  136 type  4   force =    -0.00000959   -0.00058096    0.00016256
     atom  137 type  3   force =    -0.00066646    0.00034134   -0.00011535
     atom  138 type  3   force =     0.00007029   -0.00029034   -0.00025666
     atom  139 type  3   force =     0.00033986   -0.00020324   -0.00009404
     atom  140 type  3   force =     0.00017158   -0.00058055    0.00019625
     atom  141 type  4   force =    -0.00018612   -0.00042537   -0.00007567
     atom  142 type  4   force =    -0.00014410   -0.00048111    0.00026586
     atom  143 type  4   force =     0.00006640    0.00006554   -0.00020485
     atom  144 type  4   force =    -0.00001525   -0.00010170   -0.00019372
     atom  145 type  4   force =     0.00025562    0.00011420   -0.00058053
     atom  146 type  4   force =     0.00010680    0.00008123   -0.00004195
     atom  147 type  4   force =    -0.00010577   -0.00016461    0.00013265
     atom  148 type  4   force =    -0.00023598    0.00013317   -0.00028478
     atom  149 type  4   force =     0.00029235   -0.00019334   -0.00016946
     atom  150 type  4   force =     0.00010704   -0.00018459   -0.00006684
     atom  151 type  4   force =     0.00033895    0.00048446    0.00000964
     atom  152 type  4   force =     0.00002115   -0.00022304    0.00005122
     atom  153 type  4   force =    -0.00013959   -0.00008622   -0.00021976
     atom  154 type  4   force =    -0.00018086   -0.00015946   -0.00007759
     atom  155 type  4   force =     0.00066571    0.00042523   -0.00035171
     atom  156 type  4   force =    -0.00006710   -0.00025794   -0.00010718
     atom  157 type  4   force =     0.00528810   -0.00010043   -0.00351478
     atom  158 type  5   force =    -0.00242990    0.00243478    0.00159655

     Total force =     0.665533     Total SCF correction =     0.003566
 
     init_run     :      5.71s CPU      6.35s WALL (       1 calls)
     electrons    :    609.23s CPU    640.49s WALL (       1 calls)
     forces       :      4.26s CPU      4.64s WALL (       1 calls)
     force_london :      0.08s CPU      0.08s WALL (       1 calls)

     Called by init_run:
     wfcinit      :      3.28s CPU      3.45s WALL (       1 calls)
     potinit      :      0.55s CPU      0.72s WALL (       1 calls)
     hinit0       :      0.95s CPU      1.05s WALL (       1 calls)

     Called by electrons:
     c_bands      :    478.53s CPU    498.03s WALL (      53 calls)
     sum_band     :     83.45s CPU     89.99s WALL (      53 calls)
     v_of_rho     :      9.29s CPU     10.10s WALL (      54 calls)
     newd         :     26.45s CPU     31.06s WALL (      54 calls)
     mix_rho      :     11.19s CPU     11.27s WALL (      53 calls)
     energy_londo :      0.07s CPU      0.07s WALL (       1 calls)

     Called by c_bands:
     init_us_2    :      1.37s CPU      1.40s WALL (     216 calls)
     init_us_2:cp :      1.37s CPU      1.40s WALL (     216 calls)
     regterg      :    468.32s CPU    487.71s WALL (     107 calls)

     Called by *egterg:
     rdiaghg      :    141.09s CPU    153.51s WALL (     516 calls)
     h_psi        :    174.48s CPU    178.20s WALL (     518 calls)
     s_psi        :     31.56s CPU     31.61s WALL (     518 calls)
     g_psi        :      0.22s CPU      0.23s WALL (     409 calls)

     Called by h_psi:
     h_psi:calbec :     49.40s CPU     52.69s WALL (     518 calls)
     vloc_psi     :     92.24s CPU     92.61s WALL (     518 calls)
     add_vuspsi   :     32.43s CPU     32.47s WALL (     518 calls)

     General routines
     calbec       :     73.93s CPU     78.95s WALL (     632 calls)
     fft          :     16.79s CPU     17.95s WALL (     985 calls)
     ffts         :      7.18s CPU      7.20s WALL (    6557 calls)
     fftw         :    106.51s CPU    106.92s WALL (  180736 calls)
     interpolate  :      0.82s CPU      0.88s WALL (     108 calls)
 
     Parallel routines
 
     PWSCF        :  10m21.17s CPU  10m53.64s WALL

 
   This run was terminated on:   1:58:18  20Nov2025            

=------------------------------------------------------------------------------=
   JOB DONE.
=------------------------------------------------------------------------------=
