
     Program PWSCF v.7.2 starts on 18Nov2025 at  1: 1: 3 

     This program is part of the open-source Quantum ESPRESSO suite
     for quantum simulation of materials; please cite
         "P. Giannozzi et al., J. Phys.:Condens. Matter 21 395502 (2009);
         "P. Giannozzi et al., J. Phys.:Condens. Matter 29 465901 (2017);
         "P. Giannozzi et al., J. Chem. Phys. 152 154105 (2020);
          URL http://www.quantum-espresso.org", 
     in publications or presentations arising from this work. More details at
     http://www.quantum-espresso.org/quote

     Parallel version (MPI), running on    64 processors

     MPI processes distributed on     4 nodes
     464454 MiB available memory on the printing compute node when the environment starts
 
     Reading input from ./H2_removed/PW.in

     Current dimensions of program PWSCF are:
     Max number of different atomic species (ntypx) = 10
     Max number of k-points (npk) =  40000
     Max angular momentum in pseudopotentials (lmaxx) =  4
     Presently no symmetry can be used with electric field

     Presently stress not available with electric field and gates

     file Ni.pbe-n-rrkjus_psl.1.0.0.UPF: wavefunction(s)  3D renormalized
     file Mn.pbe-spn-rrkjus_psl.0.3.1.UPF: wavefunction(s)  3D renormalized
     file O.pbe-rrkjus.UPF: wavefunction(s)  2S renormalized
     file H.pbe-rrkjus.UPF: wavefunction(s)  1S renormalized

     gamma-point specific algorithms are used
 
     R & G space division:  proc/nbgrp/npool/nimage =      64
     Subspace diagonalization in iterative solution of the eigenvalue problem:
     one sub-group per band group will be used
     custom distributed-memory algorithm (size of sub-group:  6*  6 procs)

 
     Parallelization info
     --------------------
     sticks:   dense  smooth     PW     G-vecs:    dense   smooth      PW
     Min         208      82     20                59912    15118    1876
     Max         210      84     22                59974    15196    1926
     Sum       13399    5355   1345              3836275   970529  121367
 
     Using Slab Decomposition
 


     bravais-lattice index     =            0
     lattice parameter (alat)  =      17.7004  a.u.
     unit-cell volume          =   20319.7251 (a.u.)^3
     number of atoms/cell      =          158
     number of atomic types    =            5
     number of electrons       =      1078.00
     number of Kohn-Sham states=          647
     kinetic-energy cutoff     =      50.0000  Ry
     charge density cutoff     =     500.0000  Ry
     scf convergence threshold =      1.0E-06
     mixing beta               =       0.1000
     number of iterations used =            8  local-TF  mixing
     energy convergence thresh.=      1.0E-04
     force convergence thresh. =      1.0E-03
     Exchange-correlation=  SLA  PW   PBE  PBE
                           (   1   4   3   4   0   0   0)
     nstep                     =         1000


     celldm(1)=  17.700384  celldm(2)=   0.000000  celldm(3)=   0.000000
     celldm(4)=   0.000000  celldm(5)=   0.000000  celldm(6)=   0.000000

     crystal axes: (cart. coord. in units of alat)
               a(1) = (   1.000000   0.000000   0.000000 )  
               a(2) = (   0.000000   1.075730   0.000000 )  
               a(3) = (   0.000000   0.000000   3.406172 )  

     reciprocal axes: (cart. coord. in units 2 pi/alat)
               b(1) = (  1.000000  0.000000  0.000000 )  
               b(2) = (  0.000000  0.929602  0.000000 )  
               b(3) = (  0.000000  0.000000  0.293585 )  


     PseudoPot. # 1 for Ni read from file:
     ~/PSEUDO/Ni.pbe-n-rrkjus_psl.1.0.0.UPF
     MD5 check sum: Not computed, couldn't open file
     Pseudo is Ultrasoft + core correction, Zval = 10.0
     Generated using "atomic" code by A. Dal Corso  v.5.1.2
     Using radial grid of 1195 points,  6 beta functions with: 
                l(1) =   0
                l(2) =   0
                l(3) =   1
                l(4) =   1
                l(5) =   2
                l(6) =   2
     Q(r) pseudized with 0 coefficients 


     PseudoPot. # 2 for Mn read from file:
     ~/PSEUDO/Mn.pbe-spn-rrkjus_psl.0.3.1.UPF
     MD5 check sum: Not computed, couldn't open file
     Pseudo is Ultrasoft + core correction, Zval = 15.0
     Generated using &quot;atomic&quot; code by A. Dal Corso  v.6.2.2
     Using radial grid of 1187 points,  6 beta functions with: 
                l(1) =   0
                l(2) =   0
                l(3) =   1
                l(4) =   1
                l(5) =   2
                l(6) =   2
     Q(r) pseudized with 0 coefficients 


     PseudoPot. # 3 for P  read from file:
     ~/PSEUDO/P.pbe-n-rrkjus_psl.1.0.0.UPF
     MD5 check sum: Not computed, couldn't open file
     Pseudo is Ultrasoft + core correction, Zval =  5.0
     Generated using "atomic" code by A. Dal Corso  v.5.1
     Using radial grid of 1147 points,  6 beta functions with: 
                l(1) =   0
                l(2) =   0
                l(3) =   1
                l(4) =   1
                l(5) =   2
                l(6) =   2
     Q(r) pseudized with 0 coefficients 


     PseudoPot. # 4 for O  read from file:
     ~/PSEUDO/O.pbe-rrkjus.UPF
     MD5 check sum: Not computed, couldn't open file
     Pseudo is Ultrasoft, Zval =  6.0
     Generated by new atomic code, or converted to UPF format
     Using radial grid of 1269 points,  4 beta functions with: 
                l(1) =   0
                l(2) =   0
                l(3) =   1
                l(4) =   1
     Q(r) pseudized with 0 coefficients 


     PseudoPot. # 5 for H  read from file:
     ~/PSEUDO/H.pbe-rrkjus.UPF
     MD5 check sum: Not computed, couldn't open file
     Pseudo is Ultrasoft, Zval =  1.0
     Generated by new atomic code, or converted to UPF format
     Using radial grid of 1061 points,  2 beta functions with: 
                l(1) =   0
                l(2) =   0
     Q(r) pseudized with 0 coefficients 


     atomic species   valence    mass     pseudopotential
     Ni               10.00    58.69300     Ni( 1.00)
     Mn               15.00    54.93800     Mn( 1.00)
     P                 5.00    30.97300     P ( 1.00)
     O                 6.00    15.99900     O ( 1.00)
     H                 1.00     1.00790     H ( 1.00)

     Starting magnetic structure 
     atomic species   magnetization
     Ni              1.000
     Mn              1.000
     P               1.000
     O               1.000
     H               0.000

     No symmetry found



   Cartesian axes

     site n.     atom                  positions (alat units)
         1        Mn     tau(   1) = (   0.2513289   0.8366376   1.6982279  )
         2        Ni     tau(   2) = (   0.4974347   0.7723839   1.3701531  )
         3        Ni     tau(   3) = (  -0.0016537   0.2963953   1.6764594  )
         4        Ni     tau(   4) = (   0.2604220   0.2375534   1.3681487  )
         5        Ni     tau(   5) = (   0.9954117   1.0756244   1.5353125  )
         6        Ni     tau(   6) = (   0.2569654   0.5361531   1.5328723  )
         7        Ni     tau(   7) = (   0.7543844   0.8338739   1.6764382  )
         8        Ni     tau(   8) = (   0.9922922   0.7734910   1.3718820  )
         9        Ni     tau(   9) = (   0.5014511   0.2956340   1.6760077  )
        10        Ni     tau(  10) = (   0.7604933   0.2356255   1.3669515  )
        11        Ni     tau(  11) = (   0.4971974   1.0741612   1.5345749  )
        12        Ni     tau(  12) = (   0.7569191   0.5343818   1.5309066  )
        13        P      tau(  13) = (   0.2096362   0.9715230   1.3807877  )
        14        P      tau(  14) = (   0.4710194   0.6431274   1.6899378  )
        15        P      tau(  15) = (   0.2847153   0.1151508   1.6957068  )
        16        P      tau(  16) = (   0.0445456   0.4320131   1.3714300  )
        17        O      tau(  17) = (   0.1334356   0.9002885   1.5169172  )
        18        O      tau(  18) = (   0.3926182   0.7054243   1.5474691  )
        19        O      tau(  19) = (   0.3639058   0.1699622   1.5487876  )
        20        O      tau(  20) = (   0.1221049   0.3614621   1.5080673  )
        21        O      tau(  21) = (   0.1477480   0.8817313   1.2565423  )
        22        O      tau(  22) = (   0.4119722   0.7392621   1.8082309  )
        23        O      tau(  23) = (   0.3444866   0.2141960   1.8091665  )
        24        O      tau(  24) = (   0.1045391   0.3443406   1.2448549  )
        25        O      tau(  25) = (   0.1037772   0.5873887   1.3757980  )
        26        O      tau(  26) = (   0.3397715   1.0324826   1.7000312  )
        27        O      tau(  27) = (   0.3810787   0.4249964   1.3830919  )
        28        O      tau(  28) = (   0.1196363   0.1153211   1.6813146  )
        29        O      tau(  29) = (   0.1310806   0.6478075   1.6825103  )
        30        O      tau(  30) = (   0.4128735   0.4867754   1.6905549  )
        31        O      tau(  31) = (   0.1507046   0.0504537   1.3800901  )
        32        O      tau(  32) = (   0.3735794   0.9622515   1.3891638  )
        33        P      tau(  33) = (   0.7095090   0.9704854   1.3728229  )
        34        P      tau(  34) = (   0.9654025   0.6444507   1.6939605  )
        35        P      tau(  35) = (   0.7849321   0.1090040   1.6936958  )
        36        P      tau(  36) = (   0.5450392   0.4306804   1.3701996  )
        37        O      tau(  37) = (   0.6318297   0.8987284   1.5089154  )
        38        O      tau(  38) = (   0.8894512   0.7058717   1.5478295  )
        39        O      tau(  39) = (   0.8629732   0.1696259   1.5477250  )
        40        O      tau(  40) = (   0.6225557   0.3590806   1.5063180  )
        41        O      tau(  41) = (   0.6495130   0.8822283   1.2463624  )
        42        O      tau(  42) = (   0.9072573   0.7437041   1.8086290  )
        43        O      tau(  43) = (   0.8447109   0.2070383   1.8083352  )
        44        O      tau(  44) = (   0.6054679   0.3423905   1.2440758  )
        45        O      tau(  45) = (   0.6058702   0.5854133   1.3737827  )
        46        O      tau(  46) = (   0.8416734   1.0271064   1.6929087  )
        47        O      tau(  47) = (   0.8806248   0.4243226   1.3833224  )
        48        O      tau(  48) = (   0.6196773   0.1112384   1.6798667  )
        49        O      tau(  49) = (   0.6356349   0.6477455   1.6777229  )
        50        O      tau(  50) = (   0.9087158   0.4874631   1.6918036  )
        51        O      tau(  51) = (   0.6493520   0.0493492   1.3760559  )
        52        O      tau(  52) = (   0.8734341   0.9630724   1.3858163  )
        53        Mn     tau(  53) = (   0.2404744   0.8246335   1.0701417  )
        54        Ni     tau(  54) = (   0.4968126   0.7601755   0.7454373  )
        55        Ni     tau(  55) = (   0.0066150   0.2811828   1.0628866  )
        56        Ni     tau(  56) = (   0.2585722   0.2230943   0.7421070  )
        57        Ni     tau(  57) = (   0.9987350   1.0571496   0.9014992  )
        58        Ni     tau(  58) = (   0.2517397   0.5205596   0.9040596  )
        59        Ni     tau(  59) = (   0.7451645   0.8212628   1.0648168  )
        60        Ni     tau(  60) = (   0.9939181   0.7613889   0.7462324  )
        61        Ni     tau(  61) = (   0.5111533   0.2799173   1.0618053  )
        62        Ni     tau(  62) = (   0.7606326   0.2194352   0.7418547  )
        63        Ni     tau(  63) = (   0.5024065   1.0563218   0.8999416  )
        64        Ni     tau(  64) = (   0.7529977   0.5192985   0.9024691  )
        65        P      tau(  65) = (   0.2092944   0.9606182   0.7524883  )
        66        P      tau(  66) = (   0.4655727   0.6234620   1.0595283  )
        67        P      tau(  67) = (   0.2910699   0.0902448   1.0573821  )
        68        P      tau(  68) = (   0.0396216   0.4163480   0.7471080  )
        69        O      tau(  69) = (   0.1294378   0.8888345   0.8859300  )
        70        O      tau(  70) = (   0.3874505   0.6929859   0.9232915  )
        71        O      tau(  71) = (   0.3702540   0.1589885   0.9209891  )
        72        O      tau(  72) = (   0.1184398   0.3458043   0.8831565  )
        73        O      tau(  73) = (   0.1451572   0.8725966   0.6282341  )
        74        O      tau(  74) = (   0.4048762   0.7120670   1.1852426  )
        75        O      tau(  75) = (   0.3523506   0.1775664   1.1834175  )
        76        O      tau(  76) = (   0.1017610   0.3285569   0.6213347  )
        77        O      tau(  77) = (   0.0975396   0.5724373   0.7511996  )
        78        O      tau(  78) = (   0.3483552   1.0190030   1.0599597  )
        79        O      tau(  79) = (   0.3784305   0.4100203   0.7560991  )
        80        O      tau(  80) = (   0.1268237   0.0943029   1.0477175  )
        81        O      tau(  81) = (   0.1212267   0.6299255   1.0507023  )
        82        O      tau(  82) = (   0.4053315   0.4684472   1.0569297  )
        83        O      tau(  83) = (   0.1536621   0.0322003   0.7496532  )
        84        O      tau(  84) = (   0.3732349   0.9506802   0.7613277  )
        85        P      tau(  85) = (   0.7119823   0.9571059   0.7496908  )
        86        P      tau(  86) = (   0.9615208   0.6238477   1.0606987  )
        87        P      tau(  87) = (   0.7927710   0.0845145   1.0577754  )
        88        P      tau(  88) = (   0.5426404   0.4144760   0.7459181  )
        89        O      tau(  89) = (   0.6326879   0.8866267   0.8856678  )
        90        O      tau(  90) = (   0.8842163   0.6958291   0.9244764  )
        91        O      tau(  91) = (   0.8716178   0.1552836   0.9216415  )
        92        O      tau(  92) = (   0.6212010   0.3433751   0.8818834  )
        93        O      tau(  93) = (   0.6507714   0.8687427   0.6238197  )
        94        O      tau(  94) = (   0.9014054   0.7139543   1.1859242  )
        95        O      tau(  95) = (   0.8548963   0.1722994   1.1834447  )
        96        O      tau(  96) = (   0.6044469   0.3253792   0.6209553  )
        97        O      tau(  97) = (   0.6024424   0.5698225   0.7490903  )
        98        O      tau(  98) = (   0.8498940   1.0129567   1.0594762  )
        99        O      tau(  99) = (   0.8798395   0.4080910   0.7564148  )
       100        O      tau( 100) = (   0.6286921   0.0909721   1.0472573  )
       101        O      tau( 101) = (   0.6294973   0.6302838   1.0497366  )
       102        O      tau( 102) = (   0.9024339   0.4685397   1.0573501  )
       103        O      tau( 103) = (   0.6547812   0.0286072   0.7473283  )
       104        O      tau( 104) = (   0.8760507   0.9507690   0.7605412  )
       105        Mn     tau( 105) = (   0.2404744   0.8121420   0.4502541  )
       106        Ni     tau( 106) = (   0.4968126   0.7476840   0.1255496  )
       107        Ni     tau( 107) = (   0.0066150   0.2686914   0.4429989  )
       108        Ni     tau( 108) = (   0.2585722   0.2106028   0.1222194  )
       109        Ni     tau( 109) = (   0.9987350   1.0446581   0.2816116  )
       110        Ni     tau( 110) = (   0.2517397   0.5080681   0.2841720  )
       111        Ni     tau( 111) = (   0.7451645   0.8087713   0.4449291  )
       112        Ni     tau( 112) = (   0.9939181   0.7488974   0.1263448  )
       113        Ni     tau( 113) = (   0.5111533   0.2674258   0.4419177  )
       114        Ni     tau( 114) = (   0.7606326   0.2069438   0.1219670  )
       115        Ni     tau( 115) = (   0.5024065   1.0438304   0.2800540  )
       116        Ni     tau( 116) = (   0.7529977   0.5068070   0.2825815  )
       117        P      tau( 117) = (   0.2092944   0.9481267   0.1326007  )
       118        P      tau( 118) = (   0.4655727   0.6109705   0.4396407  )
       119        P      tau( 119) = (   0.2910699   0.0777534   0.4374945  )
       120        P      tau( 120) = (   0.0396216   0.4038566   0.1272204  )
       121        O      tau( 121) = (   0.1294378   0.8763430   0.2660424  )
       122        O      tau( 122) = (   0.3874505   0.6804944   0.3034039  )
       123        O      tau( 123) = (   0.3702540   0.1464970   0.3011014  )
       124        O      tau( 124) = (   0.1184398   0.3333129   0.2632689  )
       125        O      tau( 125) = (   0.1451572   0.8601051   0.0083464  )
       126        O      tau( 126) = (   0.4048762   0.6995756   0.5653550  )
       127        O      tau( 127) = (   0.3523506   0.1650749   0.5635298  )
       128        O      tau( 128) = (   0.1017610   0.3160655   0.0014470  )
       129        O      tau( 129) = (   0.0975396   0.5599458   0.1313120  )
       130        O      tau( 130) = (   0.3483552   1.0065115   0.4400720  )
       131        O      tau( 131) = (   0.3784305   0.3975288   0.1362114  )
       132        O      tau( 132) = (   0.1268237   0.0818115   0.4278298  )
       133        O      tau( 133) = (   0.1212267   0.6174340   0.4308146  )
       134        O      tau( 134) = (   0.4053315   0.4559557   0.4370420  )
       135        O      tau( 135) = (   0.1536621   0.0197088   0.1297656  )
       136        O      tau( 136) = (   0.3732349   0.9381887   0.1414400  )
       137        P      tau( 137) = (   0.7119823   0.9446144   0.1298032  )
       138        P      tau( 138) = (   0.9615208   0.6113562   0.4408111  )
       139        P      tau( 139) = (   0.7927710   0.0720230   0.4378878  )
       140        P      tau( 140) = (   0.5426404   0.4019845   0.1260304  )
       141        O      tau( 141) = (   0.6326879   0.8741353   0.2657802  )
       142        O      tau( 142) = (   0.8842163   0.6833376   0.3045887  )
       143        O      tau( 143) = (   0.8716178   0.1427921   0.3017538  )
       144        O      tau( 144) = (   0.6212010   0.3308836   0.2619957  )
       145        O      tau( 145) = (   0.6507714   0.8562512   0.0039320  )
       146        O      tau( 146) = (   0.9014054   0.7014628   0.5660366  )
       147        O      tau( 147) = (   0.8548963   0.1598079   0.5635571  )
       148        O      tau( 148) = (   0.6044469   0.3128877   0.0010676  )
       149        O      tau( 149) = (   0.6024424   0.5573310   0.1292027  )
       150        O      tau( 150) = (   0.8498940   1.0004653   0.4395886  )
       151        O      tau( 151) = (   0.8798395   0.3955995   0.1365272  )
       152        O      tau( 152) = (   0.6286921   0.0784807   0.4273696  )
       153        O      tau( 153) = (   0.6294973   0.6177923   0.4298489  )
       154        O      tau( 154) = (   0.9024339   0.4560482   0.4374624  )
       155        O      tau( 155) = (   0.6547812   0.0161158   0.1274406  )
       156        O      tau( 156) = (   0.8760507   0.9382775   0.1406535  )
       157        O      tau( 157) = (   1.1551301   0.9435631   1.8947253  )
       158        H      tau( 158) = (   1.0796194   0.8749977   1.8983655  )

     -------------------------------------------------
     Parameters for Dispersion (Grimme-D2) Correction:
     -------------------------------------------------
       atom      VdW radius       C_6     

        Ni         2.952        374.666
        Mn         2.952        374.666
        P          3.222        271.980
        O          2.536         24.284
        H          1.892          4.857

     number of k points=     1  Gaussian smearing, width (Ry)=  0.0100
                       cart. coord. in units 2pi/alat
        k(    1) = (   0.0000000   0.0000000   0.0000000), wk =   1.0000000

     Dense  grid:  1918138 G-vectors     FFT dimensions: ( 125, 135, 432)

     Smooth grid:   485265 G-vectors     FFT dimensions: (  80,  90, 288)

     Estimated max dynamical RAM per process >     320.12 MB

     Estimated total dynamical RAM >      20.01 GB
     Generating pointlists ...
     new r_m :   0.0866 (alat units)  1.5324 (a.u.) for type    1
     new r_m :   0.0869 (alat units)  1.5388 (a.u.) for type    2
     new r_m :   0.0650 (alat units)  1.1499 (a.u.) for type    3
     new r_m :   0.0421 (alat units)  0.7452 (a.u.) for type    4
     new r_m :   0.0421 (alat units)  0.7452 (a.u.) for type    5

     Initial potential from superposition of free atoms

     starting charge    1077.8900, renormalised to    1078.0000

     negative rho (up, down):  1.202E-03 4.527E-04
 
     Adding external electric field

     Computed dipole along edir(3) : 
        Dipole                1.6751 Ry au,          4.2578 Debye
        Dipole field          0.0010 Ry au, 
 
        Potential amp.       -0.1124 Ry
        Total length         54.2615 bohr
 
 
     Adding external electric field

     Computed dipole along edir(3) : 
        Dipole                1.6751 Ry au,          4.2578 Debye
        Dipole field          0.0010 Ry au, 
 
        Potential amp.       -0.1124 Ry
        Total length         54.2615 bohr
 
     Starting wfcs are  812 randomized atomic wfcs

     total cpu time spent up to now is       13.3 secs

     Self-consistent Calculation

     iteration #  1     ecut=    50.00 Ry     beta= 0.10
     Davidson diagonalization with overlap
     ethr =  1.00E-02,  avg # of iterations =  6.0

     negative rho (up, down):  3.577E-01 3.313E-07
 
     Adding external electric field

     Computed dipole along edir(3) : 
        Dipole               -3.5786 Ry au,         -9.0959 Debye
        Dipole field         -0.0022 Ry au, 
 
        Potential amp.        0.2402 Ry
        Total length         54.2615 bohr
 
 
     Adding external electric field

     Computed dipole along edir(3) : 
        Dipole               -3.5786 Ry au,         -9.0959 Debye
        Dipole field         -0.0022 Ry au, 
 
        Potential amp.        0.2402 Ry
        Total length         54.2615 bohr
 

     total cpu time spent up to now is       47.9 secs

     total energy              =   -7176.45522403 Ry
     estimated scf accuracy    <     734.00680597 Ry

     total magnetization       =   216.00 Bohr mag/cell
     absolute magnetization    =   299.08 Bohr mag/cell

     iteration #  2     ecut=    50.00 Ry     beta= 0.10
     Davidson diagonalization with overlap
     ethr =  1.00E-02,  avg # of iterations =  2.0

     negative rho (up, down):  3.440E-01 1.802E-07
 
     Adding external electric field

     Computed dipole along edir(3) : 
        Dipole               -2.2974 Ry au,         -5.8393 Debye
        Dipole field         -0.0014 Ry au, 
 
        Potential amp.        0.1542 Ry
        Total length         54.2615 bohr
 
 
     Adding external electric field

     Computed dipole along edir(3) : 
        Dipole               -2.2974 Ry au,         -5.8393 Debye
        Dipole field         -0.0014 Ry au, 
 
        Potential amp.        0.1542 Ry
        Total length         54.2615 bohr
 

     total cpu time spent up to now is       68.7 secs

     total energy              =   -7261.71453918 Ry
     estimated scf accuracy    <     231.99434512 Ry

     total magnetization       =   151.88 Bohr mag/cell
     absolute magnetization    =   200.27 Bohr mag/cell

     iteration #  3     ecut=    50.00 Ry     beta= 0.10
     Davidson diagonalization with overlap
     ethr =  1.00E-02,  avg # of iterations =  1.5

     negative rho (up, down):  3.061E-01 1.427E-07
 
     Adding external electric field

     Computed dipole along edir(3) : 
        Dipole               -1.9855 Ry au,         -5.0467 Debye
        Dipole field         -0.0012 Ry au, 
 
        Potential amp.        0.1333 Ry
        Total length         54.2615 bohr
 
 
     Adding external electric field

     Computed dipole along edir(3) : 
        Dipole               -1.9855 Ry au,         -5.0467 Debye
        Dipole field         -0.0012 Ry au, 
 
        Potential amp.        0.1333 Ry
        Total length         54.2615 bohr
 

     total cpu time spent up to now is       84.7 secs

     total energy              =   -7291.69599998 Ry
     estimated scf accuracy    <      99.07223323 Ry

     total magnetization       =   126.72 Bohr mag/cell
     absolute magnetization    =   178.94 Bohr mag/cell

     iteration #  4     ecut=    50.00 Ry     beta= 0.10
     Davidson diagonalization with overlap
     ethr =  9.19E-03,  avg # of iterations =  1.0

     negative rho (up, down):  2.352E-01 4.063E-08
 
     Adding external electric field

     Computed dipole along edir(3) : 
        Dipole               -1.9540 Ry au,         -4.9667 Debye
        Dipole field         -0.0012 Ry au, 
 
        Potential amp.        0.1311 Ry
        Total length         54.2615 bohr
 
 
     Adding external electric field

     Computed dipole along edir(3) : 
        Dipole               -1.9540 Ry au,         -4.9667 Debye
        Dipole field         -0.0012 Ry au, 
 
        Potential amp.        0.1311 Ry
        Total length         54.2615 bohr
 

     total cpu time spent up to now is       99.3 secs

     total energy              =   -7325.01704879 Ry
     estimated scf accuracy    <      80.09110029 Ry

     total magnetization       =   111.57 Bohr mag/cell
     absolute magnetization    =   164.97 Bohr mag/cell

     iteration #  5     ecut=    50.00 Ry     beta= 0.10
     Davidson diagonalization with overlap
     ethr =  7.43E-03,  avg # of iterations =  1.0

     negative rho (up, down):  1.932E-02 1.352E-06
 
     Adding external electric field

     Computed dipole along edir(3) : 
        Dipole               -1.6149 Ry au,         -4.1046 Debye
        Dipole field         -0.0010 Ry au, 
 
        Potential amp.        0.1084 Ry
        Total length         54.2615 bohr
 
 
     Adding external electric field

     Computed dipole along edir(3) : 
        Dipole               -1.6149 Ry au,         -4.1046 Debye
        Dipole field         -0.0010 Ry au, 
 
        Potential amp.        0.1084 Ry
        Total length         54.2615 bohr
 

     total cpu time spent up to now is      114.3 secs

     total energy              =   -7384.75645309 Ry
     estimated scf accuracy    <      63.54317595 Ry

     total magnetization       =    88.11 Bohr mag/cell
     absolute magnetization    =   145.78 Bohr mag/cell

     iteration #  6     ecut=    50.00 Ry     beta= 0.10
     Davidson diagonalization with overlap
     ethr =  5.89E-03,  avg # of iterations =  1.5

     negative rho (up, down):  1.244E-03 1.338E-03
 
     Adding external electric field

     Computed dipole along edir(3) : 
        Dipole               -1.3419 Ry au,         -3.4107 Debye
        Dipole field         -0.0008 Ry au, 
 
        Potential amp.        0.0901 Ry
        Total length         54.2615 bohr
 
 
     Adding external electric field

     Computed dipole along edir(3) : 
        Dipole               -1.3419 Ry au,         -3.4107 Debye
        Dipole field         -0.0008 Ry au, 
 
        Potential amp.        0.0901 Ry
        Total length         54.2615 bohr
 

     total cpu time spent up to now is      131.0 secs

     total energy              =   -7395.32490039 Ry
     estimated scf accuracy    <      12.03191621 Ry

     total magnetization       =    82.00 Bohr mag/cell
     absolute magnetization    =   116.38 Bohr mag/cell

     iteration #  7     ecut=    50.00 Ry     beta= 0.10
     Davidson diagonalization with overlap
     ethr =  1.12E-03,  avg # of iterations =  5.0

     negative rho (up, down):  1.183E-03 1.251E-03
 
     Adding external electric field

     Computed dipole along edir(3) : 
        Dipole               -1.3266 Ry au,         -3.3718 Debye
        Dipole field         -0.0008 Ry au, 
 
        Potential amp.        0.0890 Ry
        Total length         54.2615 bohr
 
 
     Adding external electric field

     Computed dipole along edir(3) : 
        Dipole               -1.3266 Ry au,         -3.3718 Debye
        Dipole field         -0.0008 Ry au, 
 
        Potential amp.        0.0890 Ry
        Total length         54.2615 bohr
 

     total cpu time spent up to now is      158.1 secs

     total energy              =   -7397.68043738 Ry
     estimated scf accuracy    <      16.31312797 Ry

     total magnetization       =    68.06 Bohr mag/cell
     absolute magnetization    =    85.33 Bohr mag/cell

     iteration #  8     ecut=    50.00 Ry     beta= 0.10
     Davidson diagonalization with overlap
     ethr =  1.12E-03,  avg # of iterations =  1.0

     negative rho (up, down):  8.045E-04 8.960E-04
 
     Adding external electric field

     Computed dipole along edir(3) : 
        Dipole               -1.2089 Ry au,         -3.0727 Debye
        Dipole field         -0.0007 Ry au, 
 
        Potential amp.        0.0811 Ry
        Total length         54.2615 bohr
 
 
     Adding external electric field

     Computed dipole along edir(3) : 
        Dipole               -1.2089 Ry au,         -3.0727 Debye
        Dipole field         -0.0007 Ry au, 
 
        Potential amp.        0.0811 Ry
        Total length         54.2615 bohr
 

     total cpu time spent up to now is      173.8 secs

     total energy              =   -7397.63247483 Ry
     estimated scf accuracy    <      14.62983468 Ry

     total magnetization       =    68.99 Bohr mag/cell
     absolute magnetization    =    85.89 Bohr mag/cell

     iteration #  9     ecut=    50.00 Ry     beta= 0.10
     Davidson diagonalization with overlap
     ethr =  1.12E-03,  avg # of iterations =  1.0

     negative rho (up, down):  2.198E-04 3.241E-04
 
     Adding external electric field

     Computed dipole along edir(3) : 
        Dipole               -0.8870 Ry au,         -2.2546 Debye
        Dipole field         -0.0005 Ry au, 
 
        Potential amp.        0.0595 Ry
        Total length         54.2615 bohr
 
 
     Adding external electric field

     Computed dipole along edir(3) : 
        Dipole               -0.8870 Ry au,         -2.2546 Debye
        Dipole field         -0.0005 Ry au, 
 
        Potential amp.        0.0595 Ry
        Total length         54.2615 bohr
 

     total cpu time spent up to now is      190.1 secs

     total energy              =   -7397.49429572 Ry
     estimated scf accuracy    <      11.54881813 Ry

     total magnetization       =    69.90 Bohr mag/cell
     absolute magnetization    =    85.97 Bohr mag/cell

     iteration # 10     ecut=    50.00 Ry     beta= 0.10
     Davidson diagonalization with overlap
     ethr =  1.07E-03,  avg # of iterations =  1.0

     negative rho (up, down):  1.657E-04 3.427E-04
 
     Adding external electric field

     Computed dipole along edir(3) : 
        Dipole               -0.8947 Ry au,         -2.2740 Debye
        Dipole field         -0.0006 Ry au, 
 
        Potential amp.        0.0600 Ry
        Total length         54.2615 bohr
 
 
     Adding external electric field

     Computed dipole along edir(3) : 
        Dipole               -0.8947 Ry au,         -2.2740 Debye
        Dipole field         -0.0006 Ry au, 
 
        Potential amp.        0.0600 Ry
        Total length         54.2615 bohr
 

     total cpu time spent up to now is      205.8 secs

     total energy              =   -7397.56873551 Ry
     estimated scf accuracy    <       7.25081343 Ry

     total magnetization       =    72.55 Bohr mag/cell
     absolute magnetization    =    86.03 Bohr mag/cell

     iteration # 11     ecut=    50.00 Ry     beta= 0.10
     Davidson diagonalization with overlap
     ethr =  6.73E-04,  avg # of iterations =  1.5

     negative rho (up, down):  4.717E-05 2.429E-04
 
     Adding external electric field

     Computed dipole along edir(3) : 
        Dipole               -0.7970 Ry au,         -2.0259 Debye
        Dipole field         -0.0005 Ry au, 
 
        Potential amp.        0.0535 Ry
        Total length         54.2615 bohr
 
 
     Adding external electric field

     Computed dipole along edir(3) : 
        Dipole               -0.7970 Ry au,         -2.0259 Debye
        Dipole field         -0.0005 Ry au, 
 
        Potential amp.        0.0535 Ry
        Total length         54.2615 bohr
 

     total cpu time spent up to now is      222.1 secs

     total energy              =   -7397.55124442 Ry
     estimated scf accuracy    <       5.84621342 Ry

     total magnetization       =    73.35 Bohr mag/cell
     absolute magnetization    =    85.70 Bohr mag/cell

     iteration # 12     ecut=    50.00 Ry     beta= 0.10
     Davidson diagonalization with overlap
     ethr =  5.42E-04,  avg # of iterations =  1.0

     negative rho (up, down):  2.266E-05 3.639E-04
 
     Adding external electric field

     Computed dipole along edir(3) : 
        Dipole               -0.7028 Ry au,         -1.7863 Debye
        Dipole field         -0.0004 Ry au, 
 
        Potential amp.        0.0472 Ry
        Total length         54.2615 bohr
 
 
     Adding external electric field

     Computed dipole along edir(3) : 
        Dipole               -0.7028 Ry au,         -1.7863 Debye
        Dipole field         -0.0004 Ry au, 
 
        Potential amp.        0.0472 Ry
        Total length         54.2615 bohr
 

     total cpu time spent up to now is      237.4 secs

     total energy              =   -7397.74383336 Ry
     estimated scf accuracy    <       1.35235025 Ry

     total magnetization       =    79.87 Bohr mag/cell
     absolute magnetization    =    89.03 Bohr mag/cell

     iteration # 13     ecut=    50.00 Ry     beta= 0.10
     Davidson diagonalization with overlap
     ethr =  1.25E-04,  avg # of iterations = 12.0

     negative rho (up, down):  1.559E-04 9.276E-04
 
     Adding external electric field

     Computed dipole along edir(3) : 
        Dipole               -0.8119 Ry au,         -2.0635 Debye
        Dipole field         -0.0005 Ry au, 
 
        Potential amp.        0.0545 Ry
        Total length         54.2615 bohr
 
 
     Adding external electric field

     Computed dipole along edir(3) : 
        Dipole               -0.8119 Ry au,         -2.0635 Debye
        Dipole field         -0.0005 Ry au, 
 
        Potential amp.        0.0545 Ry
        Total length         54.2615 bohr
 

     total cpu time spent up to now is      269.4 secs

     total energy              =   -7397.82329053 Ry
     estimated scf accuracy    <       2.22773353 Ry

     total magnetization       =    80.44 Bohr mag/cell
     absolute magnetization    =    87.60 Bohr mag/cell

     iteration # 14     ecut=    50.00 Ry     beta= 0.10
     Davidson diagonalization with overlap
     ethr =  1.25E-04,  avg # of iterations =  1.5

     negative rho (up, down):  4.577E-04 1.634E-03
 
     Adding external electric field

     Computed dipole along edir(3) : 
        Dipole               -0.9369 Ry au,         -2.3814 Debye
        Dipole field         -0.0006 Ry au, 
 
        Potential amp.        0.0629 Ry
        Total length         54.2615 bohr
 
 
     Adding external electric field

     Computed dipole along edir(3) : 
        Dipole               -0.9369 Ry au,         -2.3814 Debye
        Dipole field         -0.0006 Ry au, 
 
        Potential amp.        0.0629 Ry
        Total length         54.2615 bohr
 

     total cpu time spent up to now is      285.6 secs

     total energy              =   -7397.85583503 Ry
     estimated scf accuracy    <       0.48686595 Ry

     total magnetization       =    79.36 Bohr mag/cell
     absolute magnetization    =    85.60 Bohr mag/cell

     iteration # 15     ecut=    50.00 Ry     beta= 0.10
     Davidson diagonalization with overlap
     ethr =  4.52E-05,  avg # of iterations = 12.0

     negative rho (up, down):  2.747E-04 1.831E-03
 
     Adding external electric field

     Computed dipole along edir(3) : 
        Dipole               -0.9054 Ry au,         -2.3012 Debye
        Dipole field         -0.0006 Ry au, 
 
        Potential amp.        0.0608 Ry
        Total length         54.2615 bohr
 
 
     Adding external electric field

     Computed dipole along edir(3) : 
        Dipole               -0.9054 Ry au,         -2.3012 Debye
        Dipole field         -0.0006 Ry au, 
 
        Potential amp.        0.0608 Ry
        Total length         54.2615 bohr
 

     total cpu time spent up to now is      318.2 secs

     total energy              =   -7397.83939275 Ry
     estimated scf accuracy    <       0.65216611 Ry

     total magnetization       =    78.28 Bohr mag/cell
     absolute magnetization    =    83.94 Bohr mag/cell

     iteration # 16     ecut=    50.00 Ry     beta= 0.10
     Davidson diagonalization with overlap
     ethr =  4.52E-05,  avg # of iterations =  1.5

     negative rho (up, down):  1.214E-03 1.965E-03
 
     Adding external electric field

     Computed dipole along edir(3) : 
        Dipole               -0.9299 Ry au,         -2.3635 Debye
        Dipole field         -0.0006 Ry au, 
 
        Potential amp.        0.0624 Ry
        Total length         54.2615 bohr
 
 
     Adding external electric field

     Computed dipole along edir(3) : 
        Dipole               -0.9299 Ry au,         -2.3635 Debye
        Dipole field         -0.0006 Ry au, 
 
        Potential amp.        0.0624 Ry
        Total length         54.2615 bohr
 

     total cpu time spent up to now is      334.2 secs

     total energy              =   -7397.93579108 Ry
     estimated scf accuracy    <       0.58022993 Ry

     total magnetization       =    78.23 Bohr mag/cell
     absolute magnetization    =    83.79 Bohr mag/cell

     iteration # 17     ecut=    50.00 Ry     beta= 0.10
     Davidson diagonalization with overlap
     ethr =  4.52E-05,  avg # of iterations =  1.5

     negative rho (up, down):  9.354E-04 1.348E-03
 
     Adding external electric field

     Computed dipole along edir(3) : 
        Dipole               -0.8627 Ry au,         -2.1928 Debye
        Dipole field         -0.0005 Ry au, 
 
        Potential amp.        0.0579 Ry
        Total length         54.2615 bohr
 
 
     Adding external electric field

     Computed dipole along edir(3) : 
        Dipole               -0.8627 Ry au,         -2.1928 Debye
        Dipole field         -0.0005 Ry au, 
 
        Potential amp.        0.0579 Ry
        Total length         54.2615 bohr
 

     total cpu time spent up to now is      350.5 secs

     total energy              =   -7397.92700558 Ry
     estimated scf accuracy    <       0.60888054 Ry

     total magnetization       =    78.38 Bohr mag/cell
     absolute magnetization    =    83.20 Bohr mag/cell

     iteration # 18     ecut=    50.00 Ry     beta= 0.10
     Davidson diagonalization with overlap
     ethr =  4.52E-05,  avg # of iterations =  1.0

     negative rho (up, down):  9.073E-04 1.298E-03
 
     Adding external electric field

     Computed dipole along edir(3) : 
        Dipole               -0.8942 Ry au,         -2.2728 Debye
        Dipole field         -0.0006 Ry au, 
 
        Potential amp.        0.0600 Ry
        Total length         54.2615 bohr
 
 
     Adding external electric field

     Computed dipole along edir(3) : 
        Dipole               -0.8942 Ry au,         -2.2728 Debye
        Dipole field         -0.0006 Ry au, 
 
        Potential amp.        0.0600 Ry
        Total length         54.2615 bohr
 

     total cpu time spent up to now is      365.9 secs

     total energy              =   -7397.92845615 Ry
     estimated scf accuracy    <       0.46819748 Ry

     total magnetization       =    78.98 Bohr mag/cell
     absolute magnetization    =    83.89 Bohr mag/cell

     iteration # 19     ecut=    50.00 Ry     beta= 0.10
     Davidson diagonalization with overlap
     ethr =  4.34E-05,  avg # of iterations =  1.5

     negative rho (up, down):  9.311E-04 1.638E-03
 
     Adding external electric field

     Computed dipole along edir(3) : 
        Dipole               -0.9909 Ry au,         -2.5186 Debye
        Dipole field         -0.0006 Ry au, 
 
        Potential amp.        0.0665 Ry
        Total length         54.2615 bohr
 
 
     Adding external electric field

     Computed dipole along edir(3) : 
        Dipole               -0.9909 Ry au,         -2.5186 Debye
        Dipole field         -0.0006 Ry au, 
 
        Potential amp.        0.0665 Ry
        Total length         54.2615 bohr
 

     total cpu time spent up to now is      382.4 secs

     total energy              =   -7397.93252296 Ry
     estimated scf accuracy    <       0.39233452 Ry

     total magnetization       =    79.53 Bohr mag/cell
     absolute magnetization    =    84.37 Bohr mag/cell

     iteration # 20     ecut=    50.00 Ry     beta= 0.10
     Davidson diagonalization with overlap
     ethr =  3.64E-05,  avg # of iterations =  2.0

     negative rho (up, down):  3.606E-04 8.686E-04
 
     Adding external electric field

     Computed dipole along edir(3) : 
        Dipole               -0.9066 Ry au,         -2.3042 Debye
        Dipole field         -0.0006 Ry au, 
 
        Potential amp.        0.0608 Ry
        Total length         54.2615 bohr
 
 
     Adding external electric field

     Computed dipole along edir(3) : 
        Dipole               -0.9066 Ry au,         -2.3042 Debye
        Dipole field         -0.0006 Ry au, 
 
        Potential amp.        0.0608 Ry
        Total length         54.2615 bohr
 

     total cpu time spent up to now is      399.4 secs

     total energy              =   -7397.92039561 Ry
     estimated scf accuracy    <       0.88415519 Ry

     total magnetization       =    78.51 Bohr mag/cell
     absolute magnetization    =    82.99 Bohr mag/cell

     iteration # 21     ecut=    50.00 Ry     beta= 0.10
     Davidson diagonalization with overlap
     ethr =  3.64E-05,  avg # of iterations =  1.5

     negative rho (up, down):  1.604E-04 1.249E-04
 
     Adding external electric field

     Computed dipole along edir(3) : 
        Dipole               -0.8242 Ry au,         -2.0950 Debye
        Dipole field         -0.0005 Ry au, 
 
        Potential amp.        0.0553 Ry
        Total length         54.2615 bohr
 
 
     Adding external electric field

     Computed dipole along edir(3) : 
        Dipole               -0.8242 Ry au,         -2.0950 Debye
        Dipole field         -0.0005 Ry au, 
 
        Potential amp.        0.0553 Ry
        Total length         54.2615 bohr
 

     total cpu time spent up to now is      415.9 secs

     total energy              =   -7397.94572215 Ry
     estimated scf accuracy    <       0.22554572 Ry

     total magnetization       =    79.56 Bohr mag/cell
     absolute magnetization    =    83.82 Bohr mag/cell

     iteration # 22     ecut=    50.00 Ry     beta= 0.10
     Davidson diagonalization with overlap
     ethr =  2.09E-05,  avg # of iterations =  3.0

     negative rho (up, down):  2.511E-04 2.391E-04
 
     Adding external electric field

     Computed dipole along edir(3) : 
        Dipole               -0.8327 Ry au,         -2.1165 Debye
        Dipole field         -0.0005 Ry au, 
 
        Potential amp.        0.0559 Ry
        Total length         54.2615 bohr
 
 
     Adding external electric field

     Computed dipole along edir(3) : 
        Dipole               -0.8327 Ry au,         -2.1165 Debye
        Dipole field         -0.0005 Ry au, 
 
        Potential amp.        0.0559 Ry
        Total length         54.2615 bohr
 

     total cpu time spent up to now is      434.6 secs

     total energy              =   -7397.96712297 Ry
     estimated scf accuracy    <       0.53994226 Ry

     total magnetization       =    77.69 Bohr mag/cell
     absolute magnetization    =    80.67 Bohr mag/cell

     iteration # 23     ecut=    50.00 Ry     beta= 0.10
     Davidson diagonalization with overlap
     ethr =  2.09E-05,  avg # of iterations =  1.5

     negative rho (up, down):  4.390E-04 3.971E-04
 
     Adding external electric field

     Computed dipole along edir(3) : 
        Dipole               -0.8016 Ry au,         -2.0374 Debye
        Dipole field         -0.0005 Ry au, 
 
        Potential amp.        0.0538 Ry
        Total length         54.2615 bohr
 
 
     Adding external electric field

     Computed dipole along edir(3) : 
        Dipole               -0.8016 Ry au,         -2.0374 Debye
        Dipole field         -0.0005 Ry au, 
 
        Potential amp.        0.0538 Ry
        Total length         54.2615 bohr
 

     total cpu time spent up to now is      450.7 secs

     total energy              =   -7397.96663938 Ry
     estimated scf accuracy    <       0.22964578 Ry

     total magnetization       =    78.24 Bohr mag/cell
     absolute magnetization    =    81.24 Bohr mag/cell

     iteration # 24     ecut=    50.00 Ry     beta= 0.10
     Davidson diagonalization with overlap
     ethr =  2.09E-05,  avg # of iterations =  1.5

     negative rho (up, down):  4.972E-04 3.198E-04
 
     Adding external electric field

     Computed dipole along edir(3) : 
        Dipole               -0.7439 Ry au,         -1.8908 Debye
        Dipole field         -0.0005 Ry au, 
 
        Potential amp.        0.0499 Ry
        Total length         54.2615 bohr
 
 
     Adding external electric field

     Computed dipole along edir(3) : 
        Dipole               -0.7439 Ry au,         -1.8908 Debye
        Dipole field         -0.0005 Ry au, 
 
        Potential amp.        0.0499 Ry
        Total length         54.2615 bohr
 

     total cpu time spent up to now is      466.3 secs

     total energy              =   -7397.97132801 Ry
     estimated scf accuracy    <       0.05337563 Ry

     total magnetization       =    78.68 Bohr mag/cell
     absolute magnetization    =    81.48 Bohr mag/cell

     iteration # 25     ecut=    50.00 Ry     beta= 0.10
     Davidson diagonalization with overlap
     c_bands:  3 eigenvalues not converged
     ethr =  4.95E-06,  avg # of iterations = 19.5

     negative rho (up, down):  2.677E-04 1.890E-04
 
     Adding external electric field

     Computed dipole along edir(3) : 
        Dipole               -0.7281 Ry au,         -1.8507 Debye
        Dipole field         -0.0005 Ry au, 
 
        Potential amp.        0.0489 Ry
        Total length         54.2615 bohr
 
 
     Adding external electric field

     Computed dipole along edir(3) : 
        Dipole               -0.7281 Ry au,         -1.8507 Debye
        Dipole field         -0.0005 Ry au, 
 
        Potential amp.        0.0489 Ry
        Total length         54.2615 bohr
 

     total cpu time spent up to now is      499.8 secs

     total energy              =   -7397.97327931 Ry
     estimated scf accuracy    <       0.04598008 Ry

     total magnetization       =    78.55 Bohr mag/cell
     absolute magnetization    =    80.88 Bohr mag/cell

     iteration # 26     ecut=    50.00 Ry     beta= 0.10
     Davidson diagonalization with overlap
     c_bands:  1 eigenvalues not converged
     ethr =  4.27E-06,  avg # of iterations = 10.5

     negative rho (up, down):  1.360E-04 7.632E-05
 
     Adding external electric field

     Computed dipole along edir(3) : 
        Dipole               -0.6527 Ry au,         -1.6590 Debye
        Dipole field         -0.0004 Ry au, 
 
        Potential amp.        0.0438 Ry
        Total length         54.2615 bohr
 
 
     Adding external electric field

     Computed dipole along edir(3) : 
        Dipole               -0.6527 Ry au,         -1.6590 Debye
        Dipole field         -0.0004 Ry au, 
 
        Potential amp.        0.0438 Ry
        Total length         54.2615 bohr
 

     total cpu time spent up to now is      522.1 secs

     total energy              =   -7397.97126427 Ry
     estimated scf accuracy    <       0.02980990 Ry

     total magnetization       =    78.62 Bohr mag/cell
     absolute magnetization    =    80.79 Bohr mag/cell

     iteration # 27     ecut=    50.00 Ry     beta= 0.10
     Davidson diagonalization with overlap
     ethr =  2.77E-06,  avg # of iterations =  3.0

     negative rho (up, down):  4.714E-05 1.540E-05
 
     Adding external electric field

     Computed dipole along edir(3) : 
        Dipole               -0.6394 Ry au,         -1.6252 Debye
        Dipole field         -0.0004 Ry au, 
 
        Potential amp.        0.0429 Ry
        Total length         54.2615 bohr
 
 
     Adding external electric field

     Computed dipole along edir(3) : 
        Dipole               -0.6394 Ry au,         -1.6252 Debye
        Dipole field         -0.0004 Ry au, 
 
        Potential amp.        0.0429 Ry
        Total length         54.2615 bohr
 

     total cpu time spent up to now is      540.5 secs

     total energy              =   -7397.97273274 Ry
     estimated scf accuracy    <       0.08283581 Ry

     total magnetization       =    78.76 Bohr mag/cell
     absolute magnetization    =    80.86 Bohr mag/cell

     iteration # 28     ecut=    50.00 Ry     beta= 0.10
     Davidson diagonalization with overlap
     ethr =  2.77E-06,  avg # of iterations =  1.5

     negative rho (up, down):  1.280E-05 4.660E-06
 
     Adding external electric field

     Computed dipole along edir(3) : 
        Dipole               -0.6437 Ry au,         -1.6362 Debye
        Dipole field         -0.0004 Ry au, 
 
        Potential amp.        0.0432 Ry
        Total length         54.2615 bohr
 
 
     Adding external electric field

     Computed dipole along edir(3) : 
        Dipole               -0.6437 Ry au,         -1.6362 Debye
        Dipole field         -0.0004 Ry au, 
 
        Potential amp.        0.0432 Ry
        Total length         54.2615 bohr
 

     total cpu time spent up to now is      556.7 secs

     total energy              =   -7397.97238164 Ry
     estimated scf accuracy    <       0.05300974 Ry

     total magnetization       =    78.86 Bohr mag/cell
     absolute magnetization    =    80.92 Bohr mag/cell

     iteration # 29     ecut=    50.00 Ry     beta= 0.10
     Davidson diagonalization with overlap
     ethr =  2.77E-06,  avg # of iterations =  1.5

     negative rho (up, down):  2.576E-06 2.337E-06
 
     Adding external electric field

     Computed dipole along edir(3) : 
        Dipole               -0.6391 Ry au,         -1.6244 Debye
        Dipole field         -0.0004 Ry au, 
 
        Potential amp.        0.0429 Ry
        Total length         54.2615 bohr
 
 
     Adding external electric field

     Computed dipole along edir(3) : 
        Dipole               -0.6391 Ry au,         -1.6244 Debye
        Dipole field         -0.0004 Ry au, 
 
        Potential amp.        0.0429 Ry
        Total length         54.2615 bohr
 

     total cpu time spent up to now is      573.3 secs

     total energy              =   -7397.97265813 Ry
     estimated scf accuracy    <       0.03100963 Ry

     total magnetization       =    78.78 Bohr mag/cell
     absolute magnetization    =    80.83 Bohr mag/cell

     iteration # 30     ecut=    50.00 Ry     beta= 0.10
     Davidson diagonalization with overlap
     ethr =  2.77E-06,  avg # of iterations =  1.5

     negative rho (up, down):  2.023E-06 3.272E-06
 
     Adding external electric field

     Computed dipole along edir(3) : 
        Dipole               -0.6427 Ry au,         -1.6337 Debye
        Dipole field         -0.0004 Ry au, 
 
        Potential amp.        0.0431 Ry
        Total length         54.2615 bohr
 
 
     Adding external electric field

     Computed dipole along edir(3) : 
        Dipole               -0.6427 Ry au,         -1.6337 Debye
        Dipole field         -0.0004 Ry au, 
 
        Potential amp.        0.0431 Ry
        Total length         54.2615 bohr
 

     total cpu time spent up to now is      589.6 secs

     total energy              =   -7397.97274740 Ry
     estimated scf accuracy    <       0.02962151 Ry

     total magnetization       =    78.73 Bohr mag/cell
     absolute magnetization    =    80.80 Bohr mag/cell

     iteration # 31     ecut=    50.00 Ry     beta= 0.10
     Davidson diagonalization with overlap
     ethr =  2.75E-06,  avg # of iterations =  1.5

     negative rho (up, down):  4.865E-06 5.473E-06
 
     Adding external electric field

     Computed dipole along edir(3) : 
        Dipole               -0.5579 Ry au,         -1.4182 Debye
        Dipole field         -0.0003 Ry au, 
 
        Potential amp.        0.0374 Ry
        Total length         54.2615 bohr
 
 
     Adding external electric field

     Computed dipole along edir(3) : 
        Dipole               -0.5579 Ry au,         -1.4182 Debye
        Dipole field         -0.0003 Ry au, 
 
        Potential amp.        0.0374 Ry
        Total length         54.2615 bohr
 

     total cpu time spent up to now is      606.2 secs

     total energy              =   -7397.97236851 Ry
     estimated scf accuracy    <       0.01821001 Ry

     total magnetization       =    78.76 Bohr mag/cell
     absolute magnetization    =    80.88 Bohr mag/cell

     iteration # 32     ecut=    50.00 Ry     beta= 0.10
     Davidson diagonalization with overlap
     ethr =  1.69E-06,  avg # of iterations =  3.0

     negative rho (up, down):  3.272E-06 3.711E-06
 
     Adding external electric field

     Computed dipole along edir(3) : 
        Dipole               -0.5425 Ry au,         -1.3790 Debye
        Dipole field         -0.0003 Ry au, 
 
        Potential amp.        0.0364 Ry
        Total length         54.2615 bohr
 
 
     Adding external electric field

     Computed dipole along edir(3) : 
        Dipole               -0.5425 Ry au,         -1.3790 Debye
        Dipole field         -0.0003 Ry au, 
 
        Potential amp.        0.0364 Ry
        Total length         54.2615 bohr
 

     total cpu time spent up to now is      624.0 secs

     total energy              =   -7397.97258769 Ry
     estimated scf accuracy    <       0.01475096 Ry

     total magnetization       =    78.77 Bohr mag/cell
     absolute magnetization    =    81.03 Bohr mag/cell

     iteration # 33     ecut=    50.00 Ry     beta= 0.10
     Davidson diagonalization with overlap
     ethr =  1.37E-06,  avg # of iterations =  1.5

     negative rho (up, down):  6.049E-06 5.480E-06
 
     Adding external electric field

     Computed dipole along edir(3) : 
        Dipole               -0.5188 Ry au,         -1.3188 Debye
        Dipole field         -0.0003 Ry au, 
 
        Potential amp.        0.0348 Ry
        Total length         54.2615 bohr
 
 
     Adding external electric field

     Computed dipole along edir(3) : 
        Dipole               -0.5188 Ry au,         -1.3188 Debye
        Dipole field         -0.0003 Ry au, 
 
        Potential amp.        0.0348 Ry
        Total length         54.2615 bohr
 

     total cpu time spent up to now is      640.6 secs

     total energy              =   -7397.97262952 Ry
     estimated scf accuracy    <       0.01763832 Ry

     total magnetization       =    78.84 Bohr mag/cell
     absolute magnetization    =    81.08 Bohr mag/cell

     iteration # 34     ecut=    50.00 Ry     beta= 0.10
     Davidson diagonalization with overlap
     ethr =  1.37E-06,  avg # of iterations =  2.0

     negative rho (up, down):  1.274E-05 1.172E-05
 
     Adding external electric field

     Computed dipole along edir(3) : 
        Dipole               -0.5031 Ry au,         -1.2788 Debye
        Dipole field         -0.0003 Ry au, 
 
        Potential amp.        0.0338 Ry
        Total length         54.2615 bohr
 
 
     Adding external electric field

     Computed dipole along edir(3) : 
        Dipole               -0.5031 Ry au,         -1.2788 Debye
        Dipole field         -0.0003 Ry au, 
 
        Potential amp.        0.0338 Ry
        Total length         54.2615 bohr
 

     total cpu time spent up to now is      658.0 secs

     total energy              =   -7397.97246493 Ry
     estimated scf accuracy    <       0.01878325 Ry

     total magnetization       =    78.87 Bohr mag/cell
     absolute magnetization    =    81.14 Bohr mag/cell

     iteration # 35     ecut=    50.00 Ry     beta= 0.10
     Davidson diagonalization with overlap
     ethr =  1.37E-06,  avg # of iterations = 15.5

     negative rho (up, down):  1.711E-05 1.865E-05
 
     Adding external electric field

     Computed dipole along edir(3) : 
        Dipole               -0.4650 Ry au,         -1.1820 Debye
        Dipole field         -0.0003 Ry au, 
 
        Potential amp.        0.0312 Ry
        Total length         54.2615 bohr
 
 
     Adding external electric field

     Computed dipole along edir(3) : 
        Dipole               -0.4650 Ry au,         -1.1820 Debye
        Dipole field         -0.0003 Ry au, 
 
        Potential amp.        0.0312 Ry
        Total length         54.2615 bohr
 

     total cpu time spent up to now is      690.9 secs

     total energy              =   -7397.97214292 Ry
     estimated scf accuracy    <       0.01562205 Ry

     total magnetization       =    78.82 Bohr mag/cell
     absolute magnetization    =    81.12 Bohr mag/cell

     iteration # 36     ecut=    50.00 Ry     beta= 0.10
     Davidson diagonalization with overlap
     ethr =  1.37E-06,  avg # of iterations =  2.0

     negative rho (up, down):  1.902E-05 2.121E-05
 
     Adding external electric field

     Computed dipole along edir(3) : 
        Dipole               -0.4601 Ry au,         -1.1694 Debye
        Dipole field         -0.0003 Ry au, 
 
        Potential amp.        0.0309 Ry
        Total length         54.2615 bohr
 
 
     Adding external electric field

     Computed dipole along edir(3) : 
        Dipole               -0.4601 Ry au,         -1.1694 Debye
        Dipole field         -0.0003 Ry au, 
 
        Potential amp.        0.0309 Ry
        Total length         54.2615 bohr
 

     total cpu time spent up to now is      708.5 secs

     total energy              =   -7397.97212772 Ry
     estimated scf accuracy    <       0.01851514 Ry

     total magnetization       =    78.84 Bohr mag/cell
     absolute magnetization    =    81.13 Bohr mag/cell

     iteration # 37     ecut=    50.00 Ry     beta= 0.10
     Davidson diagonalization with overlap
     ethr =  1.37E-06,  avg # of iterations =  1.0

     negative rho (up, down):  7.419E-05 7.359E-05
 
     Adding external electric field

     Computed dipole along edir(3) : 
        Dipole               -0.3801 Ry au,         -0.9661 Debye
        Dipole field         -0.0002 Ry au, 
 
        Potential amp.        0.0255 Ry
        Total length         54.2615 bohr
 
 
     Adding external electric field

     Computed dipole along edir(3) : 
        Dipole               -0.3801 Ry au,         -0.9661 Debye
        Dipole field         -0.0002 Ry au, 
 
        Potential amp.        0.0255 Ry
        Total length         54.2615 bohr
 

     total cpu time spent up to now is      723.5 secs

     total energy              =   -7397.97145804 Ry
     estimated scf accuracy    <       0.01715596 Ry

     total magnetization       =    78.83 Bohr mag/cell
     absolute magnetization    =    81.11 Bohr mag/cell

     iteration # 38     ecut=    50.00 Ry     beta= 0.10
     Davidson diagonalization with overlap
     ethr =  1.37E-06,  avg # of iterations = 11.0

     negative rho (up, down):  6.399E-05 7.843E-05
 
     Adding external electric field

     Computed dipole along edir(3) : 
        Dipole               -0.3713 Ry au,         -0.9436 Debye
        Dipole field         -0.0002 Ry au, 
 
        Potential amp.        0.0249 Ry
        Total length         54.2615 bohr
 
 
     Adding external electric field

     Computed dipole along edir(3) : 
        Dipole               -0.3713 Ry au,         -0.9436 Debye
        Dipole field         -0.0002 Ry au, 
 
        Potential amp.        0.0249 Ry
        Total length         54.2615 bohr
 

     total cpu time spent up to now is      748.3 secs

     total energy              =   -7397.97142739 Ry
     estimated scf accuracy    <       0.01675567 Ry

     total magnetization       =    78.82 Bohr mag/cell
     absolute magnetization    =    81.04 Bohr mag/cell

     iteration # 39     ecut=    50.00 Ry     beta= 0.10
     Davidson diagonalization with overlap
     ethr =  1.37E-06,  avg # of iterations =  1.0

     negative rho (up, down):  1.175E-04 2.390E-04
 
     Adding external electric field

     Computed dipole along edir(3) : 
        Dipole               -0.2956 Ry au,         -0.7514 Debye
        Dipole field         -0.0002 Ry au, 
 
        Potential amp.        0.0198 Ry
        Total length         54.2615 bohr
 
 
     Adding external electric field

     Computed dipole along edir(3) : 
        Dipole               -0.2956 Ry au,         -0.7514 Debye
        Dipole field         -0.0002 Ry au, 
 
        Potential amp.        0.0198 Ry
        Total length         54.2615 bohr
 

     total cpu time spent up to now is      763.6 secs

     total energy              =   -7397.97025169 Ry
     estimated scf accuracy    <       0.01412818 Ry

     total magnetization       =    78.80 Bohr mag/cell
     absolute magnetization    =    81.04 Bohr mag/cell

     iteration # 40     ecut=    50.00 Ry     beta= 0.10
     Davidson diagonalization with overlap
     ethr =  1.31E-06,  avg # of iterations =  2.0

     negative rho (up, down):  1.494E-04 2.720E-04
 
     Adding external electric field

     Computed dipole along edir(3) : 
        Dipole               -0.2894 Ry au,         -0.7356 Debye
        Dipole field         -0.0002 Ry au, 
 
        Potential amp.        0.0194 Ry
        Total length         54.2615 bohr
 
 
     Adding external electric field

     Computed dipole along edir(3) : 
        Dipole               -0.2894 Ry au,         -0.7356 Debye
        Dipole field         -0.0002 Ry au, 
 
        Potential amp.        0.0194 Ry
        Total length         54.2615 bohr
 

     total cpu time spent up to now is      781.1 secs

     total energy              =   -7397.97054666 Ry
     estimated scf accuracy    <       0.01333751 Ry

     total magnetization       =    78.75 Bohr mag/cell
     absolute magnetization    =    81.04 Bohr mag/cell

     iteration # 41     ecut=    50.00 Ry     beta= 0.10
     Davidson diagonalization with overlap
     ethr =  1.24E-06,  avg # of iterations =  1.0

     negative rho (up, down):  2.097E-04 3.934E-04
 
     Adding external electric field

     Computed dipole along edir(3) : 
        Dipole               -0.2885 Ry au,         -0.7333 Debye
        Dipole field         -0.0002 Ry au, 
 
        Potential amp.        0.0194 Ry
        Total length         54.2615 bohr
 
 
     Adding external electric field

     Computed dipole along edir(3) : 
        Dipole               -0.2885 Ry au,         -0.7333 Debye
        Dipole field         -0.0002 Ry au, 
 
        Potential amp.        0.0194 Ry
        Total length         54.2615 bohr
 

     total cpu time spent up to now is      796.3 secs

     total energy              =   -7397.97025285 Ry
     estimated scf accuracy    <       0.01357154 Ry

     total magnetization       =    78.75 Bohr mag/cell
     absolute magnetization    =    81.05 Bohr mag/cell

     iteration # 42     ecut=    50.00 Ry     beta= 0.10
     Davidson diagonalization with overlap
     ethr =  1.24E-06,  avg # of iterations =  2.0

     negative rho (up, down):  4.991E-04 7.376E-04
 
     Adding external electric field

     Computed dipole along edir(3) : 
        Dipole               -0.2788 Ry au,         -0.7086 Debye
        Dipole field         -0.0002 Ry au, 
 
        Potential amp.        0.0187 Ry
        Total length         54.2615 bohr
 
 
     Adding external electric field

     Computed dipole along edir(3) : 
        Dipole               -0.2788 Ry au,         -0.7086 Debye
        Dipole field         -0.0002 Ry au, 
 
        Potential amp.        0.0187 Ry
        Total length         54.2615 bohr
 

     total cpu time spent up to now is      813.3 secs

     total energy              =   -7397.97051574 Ry
     estimated scf accuracy    <       0.01141809 Ry

     total magnetization       =    78.77 Bohr mag/cell
     absolute magnetization    =    81.04 Bohr mag/cell

     iteration # 43     ecut=    50.00 Ry     beta= 0.10
     Davidson diagonalization with overlap
     ethr =  1.06E-06,  avg # of iterations =  2.0

     negative rho (up, down):  7.404E-04 1.045E-03
 
     Adding external electric field

     Computed dipole along edir(3) : 
        Dipole               -0.2429 Ry au,         -0.6175 Debye
        Dipole field         -0.0002 Ry au, 
 
        Potential amp.        0.0163 Ry
        Total length         54.2615 bohr
 
 
     Adding external electric field

     Computed dipole along edir(3) : 
        Dipole               -0.2429 Ry au,         -0.6175 Debye
        Dipole field         -0.0002 Ry au, 
 
        Potential amp.        0.0163 Ry
        Total length         54.2615 bohr
 

     total cpu time spent up to now is      831.0 secs

     total energy              =   -7397.97051387 Ry
     estimated scf accuracy    <       0.00983672 Ry

     total magnetization       =    78.79 Bohr mag/cell
     absolute magnetization    =    81.04 Bohr mag/cell

     iteration # 44     ecut=    50.00 Ry     beta= 0.10
     Davidson diagonalization with overlap
     ethr =  9.12E-07,  avg # of iterations =  2.0

     negative rho (up, down):  1.478E-03 1.895E-03
 
     Adding external electric field

     Computed dipole along edir(3) : 
        Dipole               -0.1702 Ry au,         -0.4327 Debye
        Dipole field         -0.0001 Ry au, 
 
        Potential amp.        0.0114 Ry
        Total length         54.2615 bohr
 
 
     Adding external electric field

     Computed dipole along edir(3) : 
        Dipole               -0.1702 Ry au,         -0.4327 Debye
        Dipole field         -0.0001 Ry au, 
 
        Potential amp.        0.0114 Ry
        Total length         54.2615 bohr
 

     total cpu time spent up to now is      848.5 secs

     total energy              =   -7397.97050409 Ry
     estimated scf accuracy    <       0.00908815 Ry

     total magnetization       =    78.80 Bohr mag/cell
     absolute magnetization    =    81.06 Bohr mag/cell

     iteration # 45     ecut=    50.00 Ry     beta= 0.10
     Davidson diagonalization with overlap
     ethr =  8.43E-07,  avg # of iterations =  2.0

     negative rho (up, down):  1.570E-03 1.997E-03
 
     Adding external electric field

     Computed dipole along edir(3) : 
        Dipole               -0.1477 Ry au,         -0.3755 Debye
        Dipole field         -0.0001 Ry au, 
 
        Potential amp.        0.0099 Ry
        Total length         54.2615 bohr
 
 
     Adding external electric field

     Computed dipole along edir(3) : 
        Dipole               -0.1477 Ry au,         -0.3755 Debye
        Dipole field         -0.0001 Ry au, 
 
        Potential amp.        0.0099 Ry
        Total length         54.2615 bohr
 

     total cpu time spent up to now is      866.3 secs

     total energy              =   -7397.97047423 Ry
     estimated scf accuracy    <       0.00798798 Ry

     total magnetization       =    78.82 Bohr mag/cell
     absolute magnetization    =    81.11 Bohr mag/cell

     iteration # 46     ecut=    50.00 Ry     beta= 0.10
     Davidson diagonalization with overlap
     ethr =  7.41E-07,  avg # of iterations =  2.0

     negative rho (up, down):  8.988E-04 1.054E-03
 
     Adding external electric field

     Computed dipole along edir(3) : 
        Dipole               -0.1649 Ry au,         -0.4191 Debye
        Dipole field         -0.0001 Ry au, 
 
        Potential amp.        0.0111 Ry
        Total length         54.2615 bohr
 
 
     Adding external electric field

     Computed dipole along edir(3) : 
        Dipole               -0.1649 Ry au,         -0.4191 Debye
        Dipole field         -0.0001 Ry au, 
 
        Potential amp.        0.0111 Ry
        Total length         54.2615 bohr
 

     total cpu time spent up to now is      883.6 secs

     total energy              =   -7397.97039542 Ry
     estimated scf accuracy    <       0.00681483 Ry

     total magnetization       =    78.82 Bohr mag/cell
     absolute magnetization    =    81.14 Bohr mag/cell

     iteration # 47     ecut=    50.00 Ry     beta= 0.10
     Davidson diagonalization with overlap
     c_bands:  5 eigenvalues not converged
     ethr =  6.32E-07,  avg # of iterations = 11.0

     negative rho (up, down):  1.091E-03 1.075E-03
 
     Adding external electric field

     Computed dipole along edir(3) : 
        Dipole               -0.1737 Ry au,         -0.4415 Debye
        Dipole field         -0.0001 Ry au, 
 
        Potential amp.        0.0117 Ry
        Total length         54.2615 bohr
 
 
     Adding external electric field

     Computed dipole along edir(3) : 
        Dipole               -0.1737 Ry au,         -0.4415 Debye
        Dipole field         -0.0001 Ry au, 
 
        Potential amp.        0.0117 Ry
        Total length         54.2615 bohr
 

     total cpu time spent up to now is      907.6 secs

     total energy              =   -7397.97034635 Ry
     estimated scf accuracy    <       0.00464312 Ry

     total magnetization       =    78.82 Bohr mag/cell
     absolute magnetization    =    81.19 Bohr mag/cell

     iteration # 48     ecut=    50.00 Ry     beta= 0.10
     Davidson diagonalization with overlap
     ethr =  4.31E-07,  avg # of iterations =  5.0

     negative rho (up, down):  9.679E-04 9.984E-04
 
     Adding external electric field

     Computed dipole along edir(3) : 
        Dipole               -0.1539 Ry au,         -0.3911 Debye
        Dipole field         -0.0001 Ry au, 
 
        Potential amp.        0.0103 Ry
        Total length         54.2615 bohr
 
 
     Adding external electric field

     Computed dipole along edir(3) : 
        Dipole               -0.1539 Ry au,         -0.3911 Debye
        Dipole field         -0.0001 Ry au, 
 
        Potential amp.        0.0103 Ry
        Total length         54.2615 bohr
 

     total cpu time spent up to now is      927.0 secs

     total energy              =   -7397.97076832 Ry
     estimated scf accuracy    <       0.00174009 Ry

     total magnetization       =    78.80 Bohr mag/cell
     absolute magnetization    =    81.14 Bohr mag/cell

     iteration # 49     ecut=    50.00 Ry     beta= 0.10
     Davidson diagonalization with overlap
     ethr =  1.61E-07,  avg # of iterations =  2.0

     negative rho (up, down):  3.102E-04 2.793E-04
 
     Adding external electric field

     Computed dipole along edir(3) : 
        Dipole               -0.1686 Ry au,         -0.4287 Debye
        Dipole field         -0.0001 Ry au, 
 
        Potential amp.        0.0113 Ry
        Total length         54.2615 bohr
 
 
     Adding external electric field

     Computed dipole along edir(3) : 
        Dipole               -0.1686 Ry au,         -0.4287 Debye
        Dipole field         -0.0001 Ry au, 
 
        Potential amp.        0.0113 Ry
        Total length         54.2615 bohr
 

     total cpu time spent up to now is      944.5 secs

     total energy              =   -7397.97087966 Ry
     estimated scf accuracy    <       0.00091081 Ry

     total magnetization       =    78.76 Bohr mag/cell
     absolute magnetization    =    81.06 Bohr mag/cell

     iteration # 50     ecut=    50.00 Ry     beta= 0.10
     Davidson diagonalization with overlap
     ethr =  8.45E-08,  avg # of iterations =  2.0

     negative rho (up, down):  3.236E-04 2.402E-04
 
     Adding external electric field

     Computed dipole along edir(3) : 
        Dipole               -0.1591 Ry au,         -0.4043 Debye
        Dipole field         -0.0001 Ry au, 
 
        Potential amp.        0.0107 Ry
        Total length         54.2615 bohr
 
 
     Adding external electric field

     Computed dipole along edir(3) : 
        Dipole               -0.1591 Ry au,         -0.4043 Debye
        Dipole field         -0.0001 Ry au, 
 
        Potential amp.        0.0107 Ry
        Total length         54.2615 bohr
 

     total cpu time spent up to now is      962.4 secs

     total energy              =   -7397.97101153 Ry
     estimated scf accuracy    <       0.00063888 Ry

     total magnetization       =    78.77 Bohr mag/cell
     absolute magnetization    =    81.05 Bohr mag/cell

     iteration # 51     ecut=    50.00 Ry     beta= 0.10
     Davidson diagonalization with overlap
     ethr =  5.93E-08,  avg # of iterations =  3.0

     negative rho (up, down):  2.550E-04 1.361E-04
 
     Adding external electric field

     Computed dipole along edir(3) : 
        Dipole               -0.1603 Ry au,         -0.4074 Debye
        Dipole field         -0.0001 Ry au, 
 
        Potential amp.        0.0108 Ry
        Total length         54.2615 bohr
 
 
     Adding external electric field

     Computed dipole along edir(3) : 
        Dipole               -0.1603 Ry au,         -0.4074 Debye
        Dipole field         -0.0001 Ry au, 
 
        Potential amp.        0.0108 Ry
        Total length         54.2615 bohr
 

     total cpu time spent up to now is      980.7 secs

     total energy              =   -7397.97101392 Ry
     estimated scf accuracy    <       0.00046771 Ry

     total magnetization       =    78.77 Bohr mag/cell
     absolute magnetization    =    81.03 Bohr mag/cell

     iteration # 52     ecut=    50.00 Ry     beta= 0.10
     Davidson diagonalization with overlap
     ethr =  4.34E-08,  avg # of iterations =  2.0

     negative rho (up, down):  3.617E-04 1.584E-04
 
     Adding external electric field

     Computed dipole along edir(3) : 
        Dipole               -0.1527 Ry au,         -0.3881 Debye
        Dipole field         -0.0001 Ry au, 
 
        Potential amp.        0.0102 Ry
        Total length         54.2615 bohr
 
 
     Adding external electric field

     Computed dipole along edir(3) : 
        Dipole               -0.1527 Ry au,         -0.3881 Debye
        Dipole field         -0.0001 Ry au, 
 
        Potential amp.        0.0102 Ry
        Total length         54.2615 bohr
 

     total cpu time spent up to now is      998.2 secs

     total energy              =   -7397.97106927 Ry
     estimated scf accuracy    <       0.00038793 Ry

     total magnetization       =    78.79 Bohr mag/cell
     absolute magnetization    =    81.04 Bohr mag/cell

     iteration # 53     ecut=    50.00 Ry     beta= 0.10
     Davidson diagonalization with overlap
     ethr =  3.60E-08,  avg # of iterations =  2.0

     negative rho (up, down):  5.033E-04 2.561E-04
 
     Adding external electric field

     Computed dipole along edir(3) : 
        Dipole               -0.1494 Ry au,         -0.3797 Debye
        Dipole field         -0.0001 Ry au, 
 
        Potential amp.        0.0100 Ry
        Total length         54.2615 bohr
 
 
     Adding external electric field

     Computed dipole along edir(3) : 
        Dipole               -0.1494 Ry au,         -0.3797 Debye
        Dipole field         -0.0001 Ry au, 
 
        Potential amp.        0.0100 Ry
        Total length         54.2615 bohr
 

     total cpu time spent up to now is     1015.7 secs

     total energy              =   -7397.97110368 Ry
     estimated scf accuracy    <       0.00027017 Ry

     total magnetization       =    78.78 Bohr mag/cell
     absolute magnetization    =    81.05 Bohr mag/cell

     iteration # 54     ecut=    50.00 Ry     beta= 0.10
     Davidson diagonalization with overlap
     ethr =  2.51E-08,  avg # of iterations =  4.5

     negative rho (up, down):  6.804E-04 3.940E-04
 
     Adding external electric field

     Computed dipole along edir(3) : 
        Dipole               -0.1481 Ry au,         -0.3765 Debye
        Dipole field         -0.0001 Ry au, 
 
        Potential amp.        0.0099 Ry
        Total length         54.2615 bohr
 
 
     Adding external electric field

     Computed dipole along edir(3) : 
        Dipole               -0.1481 Ry au,         -0.3765 Debye
        Dipole field         -0.0001 Ry au, 
 
        Potential amp.        0.0099 Ry
        Total length         54.2615 bohr
 

     total cpu time spent up to now is     1034.4 secs

     total energy              =   -7397.97111530 Ry
     estimated scf accuracy    <       0.00022986 Ry

     total magnetization       =    78.78 Bohr mag/cell
     absolute magnetization    =    81.06 Bohr mag/cell

     iteration # 55     ecut=    50.00 Ry     beta= 0.10
     Davidson diagonalization with overlap
     ethr =  2.13E-08,  avg # of iterations =  2.0

     negative rho (up, down):  1.746E-04 4.135E-05
 
     Adding external electric field

     Computed dipole along edir(3) : 
        Dipole               -0.1716 Ry au,         -0.4362 Debye
        Dipole field         -0.0001 Ry au, 
 
        Potential amp.        0.0115 Ry
        Total length         54.2615 bohr
 
 
     Adding external electric field

     Computed dipole along edir(3) : 
        Dipole               -0.1716 Ry au,         -0.4362 Debye
        Dipole field         -0.0001 Ry au, 
 
        Potential amp.        0.0115 Ry
        Total length         54.2615 bohr
 

     total cpu time spent up to now is     1051.6 secs

     total energy              =   -7397.97108023 Ry
     estimated scf accuracy    <       0.00018235 Ry

     total magnetization       =    78.78 Bohr mag/cell
     absolute magnetization    =    81.07 Bohr mag/cell

     iteration # 56     ecut=    50.00 Ry     beta= 0.10
     Davidson diagonalization with overlap
     ethr =  1.69E-08,  avg # of iterations =  2.0

     negative rho (up, down):  3.648E-04 1.682E-04
 
     Adding external electric field

     Computed dipole along edir(3) : 
        Dipole               -0.1690 Ry au,         -0.4296 Debye
        Dipole field         -0.0001 Ry au, 
 
        Potential amp.        0.0113 Ry
        Total length         54.2615 bohr
 
 
     Adding external electric field

     Computed dipole along edir(3) : 
        Dipole               -0.1690 Ry au,         -0.4296 Debye
        Dipole field         -0.0001 Ry au, 
 
        Potential amp.        0.0113 Ry
        Total length         54.2615 bohr
 

     total cpu time spent up to now is     1069.1 secs

     total energy              =   -7397.97109179 Ry
     estimated scf accuracy    <       0.00010351 Ry

     total magnetization       =    78.78 Bohr mag/cell
     absolute magnetization    =    81.05 Bohr mag/cell

     iteration # 57     ecut=    50.00 Ry     beta= 0.10
     Davidson diagonalization with overlap
     ethr =  9.60E-09,  avg # of iterations =  2.0

     negative rho (up, down):  6.711E-04 4.472E-04
 
     Adding external electric field

     Computed dipole along edir(3) : 
        Dipole               -0.1622 Ry au,         -0.4122 Debye
        Dipole field         -0.0001 Ry au, 
 
        Potential amp.        0.0109 Ry
        Total length         54.2615 bohr
 
 
     Adding external electric field

     Computed dipole along edir(3) : 
        Dipole               -0.1622 Ry au,         -0.4122 Debye
        Dipole field         -0.0001 Ry au, 
 
        Potential amp.        0.0109 Ry
        Total length         54.2615 bohr
 

     total cpu time spent up to now is     1087.0 secs

     total energy              =   -7397.97109596 Ry
     estimated scf accuracy    <       0.00008145 Ry

     total magnetization       =    78.78 Bohr mag/cell
     absolute magnetization    =    81.05 Bohr mag/cell

     iteration # 58     ecut=    50.00 Ry     beta= 0.10
     Davidson diagonalization with overlap
     ethr =  7.56E-09,  avg # of iterations =  2.0

     negative rho (up, down):  5.231E-04 3.112E-04
 
[...]
     atom   99 type  4   force =    -0.06664764   -0.00000332    0.00637175
     atom  100 type  4   force =    -0.00166547    0.00404367   -0.00241712
     atom  101 type  4   force =     0.00015606    0.00071009   -0.00080651
     atom  102 type  4   force =    -0.00628132    0.00385301   -0.00140158
     atom  103 type  4   force =    -0.04022613    0.13343037    0.00434792
     atom  104 type  4   force =    -0.00702037   -0.00986093   -0.00517120
     atom  105 type  2   force =     0.00415218   -0.00658101   -0.01795411
     atom  106 type  1   force =     0.02819512    0.01428537    0.01165923
     atom  107 type  1   force =     0.00870313   -0.00611935   -0.01397529
     atom  108 type  1   force =    -0.02841490    0.02168943    0.01869936
     atom  109 type  1   force =     0.00505162    0.01614631    0.00945894
     atom  110 type  1   force =    -0.00256109   -0.00879871   -0.00675194
     atom  111 type  1   force =    -0.00086247   -0.00950303   -0.01143179
     atom  112 type  1   force =     0.02918687    0.01753649    0.01136617
     atom  113 type  1   force =    -0.00068951   -0.00498461   -0.01381130
     atom  114 type  1   force =    -0.02965502    0.02074493    0.01850373
     atom  115 type  1   force =    -0.00718647    0.01855477    0.01218500
     atom  116 type  1   force =    -0.00555385   -0.00437719   -0.00292582
     atom  117 type  3   force =     0.01422971   -0.17391112   -0.10882254
     atom  118 type  3   force =     0.00517941   -0.00851011   -0.01262142
     atom  119 type  3   force =    -0.04466600    0.12489921   -0.00190266
     atom  120 type  3   force =     0.09507632   -0.04105855   -0.07975344
     atom  121 type  4   force =     0.00611736   -0.01706881    0.03719324
     atom  122 type  4   force =    -0.00351597    0.00373265    0.00450998
     atom  123 type  4   force =    -0.00086556    0.00257619   -0.00283377
     atom  124 type  4   force =     0.00848749    0.00218328    0.02696916
     atom  125 type  4   force =     0.00988174   -0.01689506    0.01596156
     atom  126 type  4   force =    -0.00748559    0.00097898   -0.00309108
     atom  127 type  4   force =     0.00396160    0.00968740    0.00046384
     atom  128 type  4   force =    -0.00062482   -0.00108218    0.03019772
     atom  129 type  4   force =    -0.00766824    0.02550258    0.00120291
     atom  130 type  4   force =     0.04340072   -0.14587251   -0.00189936
     atom  131 type  4   force =    -0.01740536   -0.00039307    0.00287437
     atom  132 type  4   force =     0.00341446    0.00266772    0.00201423
     atom  133 type  4   force =     0.06966881    0.00365796   -0.00190376
     atom  134 type  4   force =     0.00095902    0.00367767    0.00273001
     atom  135 type  4   force =    -0.02755033    0.17223243    0.00607376
     atom  136 type  4   force =     0.01957706   -0.00861665    0.00402327
     atom  137 type  3   force =     0.00909147   -0.16687357   -0.09427463
     atom  138 type  3   force =    -0.06464775   -0.00209378   -0.00495095
     atom  139 type  3   force =    -0.04873702    0.11823206    0.00150687
     atom  140 type  3   force =     0.03144774   -0.04324423   -0.07371936
     atom  141 type  4   force =     0.00466540   -0.01329887    0.03212227
     atom  142 type  4   force =    -0.00543242   -0.00034003    0.00432447
     atom  143 type  4   force =    -0.00820913    0.00809972   -0.00349549
     atom  144 type  4   force =     0.00383020    0.00138310    0.02756960
     atom  145 type  4   force =     0.00690337   -0.01300096    0.03235560
     atom  146 type  4   force =    -0.00873549   -0.00179022   -0.00305629
     atom  147 type  4   force =     0.00030461    0.00988866    0.00266146
     atom  148 type  4   force =    -0.00791611    0.00122680    0.02910942
     atom  149 type  4   force =    -0.01317460    0.02942023    0.00051428
     atom  150 type  4   force =     0.03979244   -0.13829442   -0.00138829
     atom  151 type  4   force =    -0.08615127   -0.00173608    0.00917015
     atom  152 type  4   force =     0.00123145    0.00390452    0.00144195
     atom  153 type  4   force =    -0.00355897    0.00084518    0.00297950
     atom  154 type  4   force =    -0.00588885    0.00601588    0.00132953
     atom  155 type  4   force =    -0.02796348    0.16644296    0.00485474
     atom  156 type  4   force =     0.01054955   -0.00972154   -0.00136267
     atom  157 type  4   force =    -0.00062909    0.00015380    0.00051380
     atom  158 type  5   force =     0.00025801    0.00080209   -0.00041963

     Total force =     0.003879     Total SCF correction =     0.000275
     Energy error            =      3.2E-05 Ry
     Gradient error          =      9.7E-04 Ry/Bohr

     bfgs converged in  36 scf cycles and  35 bfgs steps
     (criteria: energy <  1.0E-04 Ry, force <  1.0E-03 Ry/Bohr)

     End of BFGS Geometry Optimization

     Final energy             =   -7398.0788330695 Ry

     File ./tmp/pwscf.bfgs deleted, as requested
Begin final coordinates

ATOMIC_POSITIONS (angstrom)
Mn               2.3576643414        7.8409218873       16.0068379343
Ni               4.6330195083        7.2619305918       12.8564851642
Ni               0.0145000459        2.7736226479       15.6890015328
Ni               2.4479910552        2.2444665584       12.8120260408
Ni               9.3525269341       10.0685545233       14.3830441163
Ni               2.4096526318        5.0619145260       14.3556735961
Ni               7.0521550473        7.8261031738       15.6917954745
Ni               9.3066309575        7.2652796489       12.8511617721
Ni               4.7064951019        2.7765920466       15.6848874481
Ni               7.1364226150        2.2249808518       12.8016344407
Ni               4.6740994702       10.0861679455       14.3359183270
Ni               7.0855779478        5.0194327310       14.3403853506
P                1.9684396886        9.1045196635       12.9232717823
P                4.4084479778        6.0428459092       15.8817162068
P                2.7016420535        1.0558744461       15.8516278034
P                0.4274343498        4.0659812294       12.8397074551
O                1.2505014778        8.4272601398       14.1817019083
O                3.6228546051        6.7274749017       14.6063564662
O                3.4376069061        1.6277930896       14.4837309024
O                1.1616848831        3.4062493030       14.1158736320
O                1.3798561357        8.2781839069       11.7483848914
O                3.8842083391        6.8755658131       17.0443322189
O                3.2739738971        1.9609231596       16.9295207803
O                0.9859177160        3.2448773949       11.6519888222
O                0.9826702426        5.5220741874       12.8860114488
O                3.2536973030        9.6558361688       15.7899552230
O                3.5687232001        4.0105739631       12.9500322092
O                1.1603159027        1.0856312605       15.7131192377
O                1.2227575673        6.0901491376       15.7556105467
O                3.8707419701        4.5767009440       15.7945857099
O                1.4280664035        0.4830487738       12.9250351939
O                3.5065686842        9.0234987726       12.9725593763
P                6.6537261499        9.0993176370       12.8440717740
P                9.0380659338        6.0326383031       15.8552723046
P                7.3733110781        1.0292302592       15.8487345573
P                5.1049833222        4.0605607023       12.8344823919
O                5.9194809689        8.4322595085       14.1188712379
O                8.3284234847        6.6254523952       14.5012066222
O                8.1135994109        1.5927159934       14.4835285348
O                5.8406539166        3.3823736037       14.1013023201
O                6.0806751134        8.2721836310       11.6662214677
O                8.4622317716        6.9306919785       16.9495894697
O                7.9415504328        1.9458262853       16.9196525561
O                5.6765914417        3.2427327763       11.6490183483
O                5.6534917727        5.5175998077       12.8961541448
O                7.8881824639        9.6230250674       15.8461367182
O                8.2582333639        3.9962822390       12.9526105436
O                5.8279204697        1.0637359849       15.7106495398
O                5.9457329574        6.0875253377       15.7085561277
O                8.5240564096        4.5614097834       15.8301193824
O                6.1000363375        0.4762428459       12.8736429388
O                8.1872337411        9.0270794406       12.9710491401
Mn               2.2524368768        7.7240452976       10.0236323639    0   0   0
Ni               4.6534647676        7.1202901005        6.9822425005    0   0   0
Ni               0.0619603813        2.6337384440        9.9556760802    0   0   0
Ni               2.4219525798        2.0896438093        6.9510492594    0   0   0
Ni               9.3547912696        9.9019397956        8.4440186395    0   0   0
Ni               2.3579554440        4.8758940102        8.4680010131    0   0   0
Ni               6.9796879716        7.6924726712        9.9737552430    0   0   0
Ni               9.3096730862        7.1316559318        6.9896902714    0   0   0
Ni               4.7877892837        2.6218843324        9.9455480718    0   0   0
Ni               7.1245715506        2.0553708916        6.9486854554    0   0   0
Ni               4.7058610954        9.8941863400        8.4294293279    0   0   0
Ni               7.0530582306        4.8640817481        8.4531033399    0   0   0
P                1.9603854589        8.9977651159        7.0482873394    0   0   0
P                4.3608513788        5.8397436861        9.9242203128    0   0   0
P                2.7263470654        0.8452909389        9.9041174682    0   0   0
P                0.3711210654        3.8997822466        6.9978917740    0   0   0
O                1.2123972175        8.3253929520        8.2981876587    0   0   0
O                3.6291095674        6.4909496873        8.6481394006    0   0   0
O                3.4680363025        1.4891875754        8.6265731291    0   0   0
O                1.1093829690        3.2390247331        8.2722091938    0   0   0
O                1.3596349964        8.1732983076        5.8844425164    0   0   0
O                3.7923299398        6.6696755998       11.1017409419    0   0   0
O                3.3003412998        1.6632003659       11.0846454462    0   0   0
O                0.9531584297        3.0774745500        5.8198181531    0   0   0
O                0.9136186619        5.3618137311        7.0362164392    0   0   0
O                3.2629172638        9.5446340885        9.9282608343    0   0   0
O                3.5446225228        3.8405128423        7.0821078828    0   0   0
O                1.1879123926        0.8833017255        9.8135924863    0   0   0
O                1.1354873087        5.9002852466        9.8415499985    0   0   0
O                3.7965946052        4.3877760984        9.8998794461    0   0   0
O                1.4392974591        0.3016087220        7.0217319728    0   0   0
O                3.4959570534        8.9046787901        7.1310821586    0   0   0
P                6.6688818178        8.9648664905        7.0220839690    0   0   0
P                9.0062189322        5.8433568154        9.9351828548    0   0   0
P                7.4256001189        0.7916169815        9.9078014654    0   0   0
P                5.0827169838        3.8822476802        6.9867459032    0   0   0
O                5.9261601580        8.3047134747        8.2957315165    0   0   0
O                8.2821359139        6.5175804600        8.6592372243    0   0   0
O                8.1641303211        1.4544857869        8.6326835892    0   0   0
O                5.8185662143        3.2162709709        8.2602842260    0   0   0
O                6.0955409502        8.1372002858        5.8430941221    0   0   0
O                8.4431397248        6.6873528892       11.1081253718    0   0   0
O                8.0075057281        1.6138667826       11.0849006204    0   0   0
O                5.6616365268        3.0477094258        5.8162644606    0   0   0
O                5.6428606763        5.3373221456        7.0164591929    0   0   0
O                7.9606510584        9.4880010964        9.9237323917    0   0   0
O                8.2411397074        3.8224416068        7.0850651702    0   0   0
O                5.8887324813        0.8521033415        9.8092820433    0   0   0
O                5.8962744512        5.9036412465        9.8325045456    0   0   0
O                8.4527730620        4.3886428208        9.9038173381    0   0   0
O                6.1330998669        0.2679537444        6.9999548578    0   0   0
O                8.2056512655        8.9055106833        7.1237153000    0   0   0
Mn               2.2524368768        7.6070420221        4.2173679033    0   0   0
Ni               4.6534647676        7.0032868250        1.1759780399    0   0   0
Ni               0.0619603813        2.5167351685        4.1494116195    0   0   0
Ni               2.4219525798        1.9726405338        1.1447847987    0   0   0
Ni               9.3547912696        9.7849365202        2.6377541788    0   0   0
Ni               2.3579554440        4.7588907347        2.6617365524    0   0   0
Ni               6.9796879716        7.5754693957        4.1674907823    0   0   0
Ni               9.3096730862        7.0146526563        1.1834258107    0   0   0
Ni               4.7877892837        2.5048810569        4.1392836112    0   0   0
Ni               7.1245715506        1.9383676161        1.1424209947    0   0   0
Ni               4.7058610954        9.7771830645        2.6231648672    0   0   0
Ni               7.0530582306        4.7470784726        2.6468388792    0   0   0
P                1.9603854589        8.8807618404        1.2420228787    0   0   0
P                4.3608513788        5.7227404107        4.1179558521    0   0   0
P                2.7263470654        0.7282876635        4.0978530075    0   0   0
P                0.3711210654        3.7827789711        1.1916273134    0   0   0
O                1.2123972175        8.2083896765        2.4919231980    0   0   0
O                3.6291095674        6.3739464118        2.8418749399    0   0   0
O                3.4680363025        1.3721842999        2.8203086685    0   0   0
O                1.1093829690        3.1220214576        2.4659447331    0   0   0
O                1.3596349964        8.0562950321        0.0781780558    0   0   0
O                3.7923299398        6.5526723243        5.2954764813    0   0   0
O                3.3003412998        1.5461970904        5.2783809855    0   0   0
O                0.9531584297        2.9604712745        0.0135536924    0   0   0
O                0.9136186619        5.2448104556        1.2299519786    0   0   0
O                3.2629172638        9.4276308131        4.1219963736    0   0   0
O                3.5446225228        3.7235095668        1.2758434221    0   0   0
O                1.1879123926        0.7662984500        4.0073280256    0   0   0
O                1.1354873087        5.7832819711        4.0352855378    0   0   0
O                3.7965946052        4.2707728229        4.0936149854    0   0   0
O                1.4392974591        0.1846054465        1.2154675122    0   0   0
O                3.4959570534        8.7876755146        1.3248176979    0   0   0
P                6.6688818178        8.8478632150        1.2158195084    0   0   0
P                9.0062189322        5.7263535399        4.1289183942    0   0   0
P                7.4256001189        0.6746137060        4.1015370047    0   0   0
P                5.0827169838        3.7652444047        1.1804814425    0   0   0
O                5.9261601580        8.1877101992        2.4894670559    0   0   0
O                8.2821359139        6.4005771845        2.8529727636    0   0   0
O                8.1641303211        1.3374825114        2.8264191286    0   0   0
O                5.8185662143        3.0992676954        2.4540197653    0   0   0
O                6.0955409502        8.0201970103        0.0368296614    0   0   0
O                8.4431397248        6.5703496137        5.3018609112    0   0   0
O                8.0075057281        1.4968635071        5.2786361598    0   0   0
O                5.6616365268        2.9307061503        0.0100000000    0   0   0
O                5.6428606763        5.2203188701        1.2101947322    0   0   0
O                7.9606510584        9.3709978209        4.1174679311    0   0   0
O                8.2411397074        3.7054383313        1.2788007096    0   0   0
O                5.8887324813        0.7351000660        4.0030175826    0   0   0
O                5.8962744512        5.7866379710        4.0262400850    0   0   0
O                8.4527730620        4.2716395453        4.0975528774    0   0   0
O                6.1330998669        0.1509504689        1.1936903972    0   0   0
O                8.2056512655        8.7885074078        1.3174508394    0   0   0
O               10.7028018767        8.5061478995       17.2766766954
H                9.8299624402        8.0380259575       17.3865010409
End final coordinates



     Writing all to output data dir ./tmp/pwscf.save/
 
     init_run     :     10.11s CPU     10.89s WALL (       1 calls)
     electrons    :  13839.41s CPU  14348.40s WALL (      36 calls)
     update_pot   :     16.08s CPU     16.31s WALL (      35 calls)
     forces       :    178.64s CPU    188.31s WALL (      36 calls)
     force_london :      3.52s CPU      3.52s WALL (      36 calls)

     Called by init_run:
     wfcinit      :      5.77s CPU      6.02s WALL (       1 calls)
     potinit      :      0.61s CPU      0.80s WALL (       1 calls)
     hinit0       :      2.05s CPU      2.14s WALL (       1 calls)

     Called by electrons:
     c_bands      :  10358.26s CPU  10598.91s WALL (     969 calls)
     sum_band     :   2084.18s CPU   2214.66s WALL (     969 calls)
     v_of_rho     :    416.03s CPU    422.81s WALL (     982 calls)
     newd         :    726.75s CPU    827.92s WALL (     982 calls)
     mix_rho      :    263.47s CPU    264.66s WALL (     969 calls)
     energy_londo :      3.30s CPU      3.30s WALL (      36 calls)

     Called by c_bands:
     init_us_2    :     25.02s CPU     25.43s WALL (    3950 calls)
     init_us_2:cp :     24.99s CPU     25.42s WALL (    3950 calls)
     regterg      :  10110.71s CPU  10348.03s WALL (    1941 calls)

     Called by *egterg:
     rdiaghg      :   2164.02s CPU   2286.13s WALL (    6496 calls)
     h_psi        :   4091.39s CPU   4153.46s WALL (    6614 calls)
     s_psi        :    626.38s CPU    626.67s WALL (    6614 calls)
     g_psi        :      4.75s CPU      4.79s WALL (    4671 calls)

     Called by h_psi:
     h_psi:calbec :   1170.62s CPU   1224.20s WALL (    6614 calls)
     vloc_psi     :   2286.13s CPU   2293.92s WALL (    6614 calls)
     add_vuspsi   :    627.07s CPU    627.69s WALL (    6614 calls)

     General routines
     calbec       :   1787.54s CPU   1870.77s WALL (    8840 calls)
     fft          :    794.16s CPU    803.45s WALL (   18204 calls)
     ffts         :    156.49s CPU    156.79s WALL (  114986 calls)
     fftw         :   2657.69s CPU   2666.18s WALL ( 3253892 calls)
     interpolate  :     18.00s CPU     18.57s WALL (    1964 calls)
 
     Parallel routines
 
     PWSCF        :      3h55m CPU      4h 4m WALL

 
   This run was terminated on:   5: 5:29  18Nov2025            

=------------------------------------------------------------------------------=
   JOB DONE.
=------------------------------------------------------------------------------=
