
     Program PWSCF v.7.2 starts on 11Nov2025 at 10:53:52 

     This program is part of the open-source Quantum ESPRESSO suite
     for quantum simulation of materials; please cite
         "P. Giannozzi et al., J. Phys.:Condens. Matter 21 395502 (2009);
         "P. Giannozzi et al., J. Phys.:Condens. Matter 29 465901 (2017);
         "P. Giannozzi et al., J. Chem. Phys. 152 154105 (2020);
          URL http://www.quantum-espresso.org", 
     in publications or presentations arising from this work. More details at
     http://www.quantum-espresso.org/quote

     Parallel version (MPI), running on    64 processors

     MPI processes distributed on     4 nodes
     411199 MiB available memory on the printing compute node when the environment starts
 
     Reading input from PW.in

     Current dimensions of program PWSCF are:
     Max number of different atomic species (ntypx) = 10
     Max number of k-points (npk) =  40000
     Max angular momentum in pseudopotentials (lmaxx) =  4
     Presently no symmetry can be used with electric field

     file Ni.pbe-n-rrkjus_psl.1.0.0.UPF: wavefunction(s)  3D renormalized
     file Mn.pbe-spn-rrkjus_psl.0.3.1.UPF: wavefunction(s)  3D renormalized
     file O.pbe-rrkjus.UPF: wavefunction(s)  2S renormalized
     file H.pbe-rrkjus.UPF: wavefunction(s)  1S renormalized

     gamma-point specific algorithms are used
 
     R & G space division:  proc/nbgrp/npool/nimage =      64
     Subspace diagonalization in iterative solution of the eigenvalue problem:
     one sub-group per band group will be used
     custom distributed-memory algorithm (size of sub-group:  7*  7 procs)

 
     Parallelization info
     --------------------
     sticks:   dense  smooth     PW     G-vecs:    dense   smooth      PW
     Min         214      85     20                61830    15614    1928
     Max         216      86     22                61864    15658    1982
     Sum       13727    5503   1375              3958051  1001255  125211
 
     Using Slab Decomposition
 


     bravais-lattice index     =            0
     lattice parameter (alat)  =      17.8532  a.u.
     unit-cell volume          =   20962.6682 (a.u.)^3
     number of atoms/cell      =          158
     number of atomic types    =            5
     number of electrons       =      1108.00
     number of Kohn-Sham states=          665
     kinetic-energy cutoff     =      50.0000  Ry
     charge density cutoff     =     500.0000  Ry
     scf convergence threshold =      1.0E-06
     mixing beta               =       0.1000
     number of iterations used =            8  local-TF  mixing
     energy convergence thresh.=      1.0E-04
     force convergence thresh. =      1.0E-03
     Exchange-correlation=  SLA  PW   PBE  PBE
                           (   1   4   3   4   0   0   0)
     nstep                     =         1000


     celldm(1)=  17.853155  celldm(2)=   0.000000  celldm(3)=   0.000000
     celldm(4)=   0.000000  celldm(5)=   0.000000  celldm(6)=   0.000000

     crystal axes: (cart. coord. in units of alat)
               a(1) = (   1.000000   0.000000   0.000000 )  
               a(2) = (   0.003237   1.081997   0.000000 )  
               a(3) = (   0.000000   0.000000   3.404673 )  

     reciprocal axes: (cart. coord. in units 2 pi/alat)
               b(1) = (  1.000000 -0.002992  0.000000 )  
               b(2) = (  0.000000  0.924217  0.000000 )  
               b(3) = (  0.000000  0.000000  0.293714 )  


     PseudoPot. # 1 for Ni read from file:
     ~/PSEUDO/Ni.pbe-n-rrkjus_psl.1.0.0.UPF
     MD5 check sum: Not computed, couldn't open file
     Pseudo is Ultrasoft + core correction, Zval = 10.0
     Generated using "atomic" code by A. Dal Corso  v.5.1.2
     Using radial grid of 1195 points,  6 beta functions with: 
                l(1) =   0
                l(2) =   0
                l(3) =   1
                l(4) =   1
                l(5) =   2
                l(6) =   2
     Q(r) pseudized with 0 coefficients 


     PseudoPot. # 2 for Mn read from file:
     ~/PSEUDO/Mn.pbe-spn-rrkjus_psl.0.3.1.UPF
     MD5 check sum: Not computed, couldn't open file
     Pseudo is Ultrasoft + core correction, Zval = 15.0
     Generated using &quot;atomic&quot; code by A. Dal Corso  v.6.2.2
     Using radial grid of 1187 points,  6 beta functions with: 
                l(1) =   0
                l(2) =   0
                l(3) =   1
                l(4) =   1
                l(5) =   2
                l(6) =   2
     Q(r) pseudized with 0 coefficients 


     PseudoPot. # 3 for P  read from file:
     ~/PSEUDO/P.pbe-n-rrkjus_psl.1.0.0.UPF
     MD5 check sum: Not computed, couldn't open file
     Pseudo is Ultrasoft + core correction, Zval =  5.0
     Generated using "atomic" code by A. Dal Corso  v.5.1
     Using radial grid of 1147 points,  6 beta functions with: 
                l(1) =   0
                l(2) =   0
                l(3) =   1
                l(4) =   1
                l(5) =   2
                l(6) =   2
     Q(r) pseudized with 0 coefficients 


     PseudoPot. # 4 for O  read from file:
     ~/PSEUDO/O.pbe-rrkjus.UPF
     MD5 check sum: Not computed, couldn't open file
     Pseudo is Ultrasoft, Zval =  6.0
     Generated by new atomic code, or converted to UPF format
     Using radial grid of 1269 points,  4 beta functions with: 
                l(1) =   0
                l(2) =   0
                l(3) =   1
                l(4) =   1
     Q(r) pseudized with 0 coefficients 


     PseudoPot. # 5 for H  read from file:
     ~/PSEUDO/H.pbe-rrkjus.UPF
     MD5 check sum: Not computed, couldn't open file
     Pseudo is Ultrasoft, Zval =  1.0
     Generated by new atomic code, or converted to UPF format
     Using radial grid of 1061 points,  2 beta functions with: 
                l(1) =   0
                l(2) =   0
     Q(r) pseudized with 0 coefficients 


     atomic species   valence    mass     pseudopotential
     Ni               10.00    58.69300     Ni( 1.00)
     Mn               15.00    54.93800     Mn( 1.00)
     P                 5.00    30.97300     P ( 1.00)
     O                 6.00    15.99900     O ( 1.00)
     H                 1.00     1.00790     H ( 1.00)

     Starting magnetic structure 
     atomic species   magnetization
     Ni              1.000
     Mn              1.000
     P               1.000
     O               1.000
     H               0.000

     No symmetry found



   Cartesian axes

     site n.     atom                  positions (alat units)
         1        Ni     tau(   1) = (   0.2448189   0.8359134   0.1216996  )
         2        Ni     tau(   2) = (   0.4920952   0.7731948   0.4438949  )
         3        Mn     tau(   3) = (   0.0113021   0.2918949   0.1160512  )
         4        Ni     tau(   4) = (   0.2586115   0.2268566   0.4417628  )
         5        Ni     tau(   5) = (   1.0019827   1.0705803   0.2835623  )
         6        Ni     tau(   6) = (   0.2518099   0.5339061   0.2823483  )
         7        Ni     tau(   7) = (   0.7400999   0.8349186   0.1225624  )
         8        Mn     tau(   8) = (   0.9886961   0.7700845   0.4492175  )
         9        Mn     tau(   9) = (   0.5113421   0.2944667   0.1158892  )
        10        Ni     tau(  10) = (   0.7560857   0.2263843   0.4422798  )
        11        Ni     tau(  11) = (   0.5009386   1.0712238   0.2822610  )
        12        Ni     tau(  12) = (   0.7496978   0.5336600   0.2834396  )
        13        P      tau(  13) = (   0.2147792   0.9686896   0.4382665  )
        14        P      tau(  14) = (   0.4607377   0.6441916   0.1265334  )
        15        P      tau(  15) = (   0.2883218   0.0913464   0.1265752  )
        16        P      tau(  16) = (   0.0408981   0.4221836   0.4354960  )
        17        O      tau(  17) = (   0.1380864   0.9007819   0.3023220  )
        18        O      tau(  18) = (   0.3817439   0.7113683   0.2624610  )
        19        O      tau(  19) = (   0.3638364   0.1608547   0.2624417  )
        20        O      tau(  20) = (   0.1207568   0.3545755   0.3021219  )
        21        O      tau(  21) = (   0.1552194   0.8797563   0.5625160  )
        22        O      tau(  22) = (   0.4022820   0.7317969   0.0010585  )
        23        O      tau(  23) = (   0.3454844   0.1823965   0.0026336  )
        24        O      tau(  24) = (   0.1017019   0.3344979   0.5594858  )
        25        O      tau(  25) = (   0.0970074   0.5770714   0.4346455  )
        26        O      tau(  26) = (   0.3534166   1.0203677   0.1270707  )
        27        O      tau(  27) = (   0.3778024   0.4172402   0.4261028  )
        28        O      tau(  28) = (   0.1256171   0.0954063   0.1372153  )
        29        O      tau(  29) = (   0.1232168   0.6482422   0.1385172  )
        30        O      tau(  30) = (   0.4028533   0.4897833   0.1289718  )
        31        O      tau(  31) = (   0.1511050   0.0405554   0.4369979  )
        32        O      tau(  32) = (   0.3776556   0.9624293   0.4288159  )
        33        P      tau(  33) = (   0.7084770   0.9682119   0.4394551  )
        34        P      tau(  34) = (   0.9603154   0.6409658   0.1292469  )
        35        P      tau(  35) = (   0.7875734   0.0899770   0.1274098  )
        36        P      tau(  36) = (   0.5405152   0.4272620   0.4364455  )
        37        O      tau(  37) = (   0.6323583   0.8977630   0.3036670  )
        38        O      tau(  38) = (   0.8809646   0.7091921   0.2627111  )
        39        O      tau(  39) = (   0.8631054   0.1587239   0.2636487  )
        40        O      tau(  40) = (   0.6202581   0.3578380   0.3034239  )
        41        O      tau(  41) = (   0.6499160   0.8772596   0.5630912  )
        42        O      tau(  42) = (   0.8990171   0.7283464   0.0054426  )
        43        O      tau(  43) = (   0.8448361   0.1806154   0.0030658  )
        44        O      tau(  44) = (   0.6023096   0.3392612   0.5600469  )
        45        O      tau(  45) = (   0.5960222   0.5826131   0.4346340  )
        46        O      tau(  46) = (   0.8515023   1.0184215   0.1281632  )
        47        O      tau(  47) = (   0.8779640   0.4148900   0.4260983  )
        48        O      tau(  48) = (   0.6251159   0.0957170   0.1376895  )
        49        O      tau(  49) = (   0.6237654   0.6481585   0.1378370  )
        50        O      tau(  50) = (   0.9038046   0.4863338   0.1307354  )
        51        O      tau(  51) = (   0.6458737   0.0402574   0.4377979  )
        52        O      tau(  52) = (   0.8712434   0.9635255   0.4285638  )
        53        Ni     tau(  53) = (   0.2420320   0.8169913   0.7491577  )
        54        Ni     tau(  54) = (   0.4893084   0.7542727   1.0713530  )
        55        Mn     tau(  55) = (   0.0085152   0.2729728   0.7435093  )
        56        Ni     tau(  56) = (   0.2558246   0.2079345   1.0692209  )
        57        Ni     tau(  57) = (   0.9991959   1.0516583   0.9110204  )
        58        Ni     tau(  58) = (   0.2490231   0.5149840   0.9098064  )
        59        Ni     tau(  59) = (   0.7373131   0.8159965   0.7500205  )
        60        Mn     tau(  60) = (   0.9859093   0.7511625   1.0766756  )
        61        Mn     tau(  61) = (   0.5085552   0.2755447   0.7433473  )
        62        Ni     tau(  62) = (   0.7532989   0.2074622   1.0697379  )
        63        Ni     tau(  63) = (   0.4981517   1.0523018   0.9097191  )
        64        Ni     tau(  64) = (   0.7469109   0.5147379   0.9108977  )
        65        P      tau(  65) = (   0.2119924   0.9497675   1.0657246  )
        66        P      tau(  66) = (   0.4579509   0.6252695   0.7539915  )
        67        P      tau(  67) = (   0.2855349   0.0724244   0.7540333  )
        68        P      tau(  68) = (   0.0381112   0.4032615   1.0629541  )
        69        O      tau(  69) = (   0.1352995   0.8818598   0.9297801  )
        70        O      tau(  70) = (   0.3789570   0.6924463   0.8899191  )
        71        O      tau(  71) = (   0.3610496   0.1419327   0.8898998  )
        72        O      tau(  72) = (   0.1179700   0.3356534   0.9295800  )
        73        O      tau(  73) = (   0.1524325   0.8608343   1.1899741  )
        74        O      tau(  74) = (   0.3994952   0.7128748   0.6285166  )
        75        O      tau(  75) = (   0.3426976   0.1634744   0.6300917  )
        76        O      tau(  76) = (   0.0989151   0.3155758   1.1869439  )
        77        O      tau(  77) = (   0.0942206   0.5581494   1.0621036  )
        78        O      tau(  78) = (   0.3506297   1.0014456   0.7545288  )
        79        O      tau(  79) = (   0.3750155   0.3983181   1.0535609  )
        80        O      tau(  80) = (   0.1228303   0.0764842   0.7646734  )
        81        O      tau(  81) = (   0.1204299   0.6293201   0.7659753  )
        82        O      tau(  82) = (   0.4000664   0.4708612   0.7564299  )
        83        O      tau(  83) = (   0.1483182   0.0216333   1.0644560  )
        84        O      tau(  84) = (   0.3748687   0.9435072   1.0562740  )
        85        P      tau(  85) = (   0.7056901   0.9492898   1.0669132  )
        86        P      tau(  86) = (   0.9575286   0.6220438   0.7567050  )
        87        P      tau(  87) = (   0.7847866   0.0710549   0.7548679  )
        88        P      tau(  88) = (   0.5377283   0.4083400   1.0639036  )
        89        O      tau(  89) = (   0.6295714   0.8788409   0.9311251  )
        90        O      tau(  90) = (   0.8781778   0.6902700   0.8901692  )
        91        O      tau(  91) = (   0.8603186   0.1398018   0.8911068  )
        92        O      tau(  92) = (   0.6174712   0.3389159   0.9308820  )
        93        O      tau(  93) = (   0.6471291   0.8583376   1.1905493  )
        94        O      tau(  94) = (   0.8962302   0.7094244   0.6329007  )
        95        O      tau(  95) = (   0.8420493   0.1616933   0.6305239  )
        96        O      tau(  96) = (   0.5995227   0.3203391   1.1875050  )
        97        O      tau(  97) = (   0.5932354   0.5636910   1.0620921  )
        98        O      tau(  98) = (   0.8487155   0.9994995   0.7556213  )
        99        O      tau(  99) = (   0.8751772   0.3959680   1.0535564  )
       100        O      tau( 100) = (   0.6223291   0.0767949   0.7651476  )
       101        O      tau( 101) = (   0.6209785   0.6292365   0.7652951  )
       102        O      tau( 102) = (   0.9010178   0.4674118   0.7581935  )
       103        O      tau( 103) = (   0.6430869   0.0213354   1.0652560  )
       104        O      tau( 104) = (   0.8684566   0.9446034   1.0560219  )
       105        Ni     tau( 105) = (   0.2407639   0.7999648   1.3767625  )
       106        Ni     tau( 106) = (   0.4982238   0.7375690   1.6810776  )
       107        Mn     tau( 107) = (   0.0068832   0.2583523   1.3743574  )
       108        Ni     tau( 108) = (   0.2419974   0.1948414   1.6832293  )
       109        Ni     tau( 109) = (   1.0000830   1.0345563   1.5404793  )
       110        Ni     tau( 110) = (   0.2419144   0.4984912   1.5437763  )
       111        Ni     tau( 111) = (   0.7357902   0.7992662   1.3778492  )
       112        Mn     tau( 112) = (   0.9958560   0.7348422   1.7028285  )
       113        Mn     tau( 113) = (   0.5066447   0.2595101   1.3727193  )
       114        Ni     tau( 114) = (   0.7387770   0.1940699   1.6840779  )
       115        Ni     tau( 115) = (   0.5003030   1.0365482   1.5386537  )
       116        Ni     tau( 116) = (   0.7396634   0.4969474   1.5446052  )
       117        P      tau( 117) = (   0.2146689   0.9290272   1.6936859  )
       118        P      tau( 118) = (   0.4535515   0.6047243   1.3809179  )
       119        P      tau( 119) = (   0.2853696   0.0556018   1.3803981  )
       120        P      tau( 120) = (   0.0286666   0.3797340   1.7033943  )
       121        O      tau( 121) = (   0.1362656   0.8680798   1.5519958  )
       122        O      tau( 122) = (   0.3750803   0.6732153   1.5165995  )
       123        O      tau( 123) = (   0.3606726   0.1256866   1.5159803  )
       124        O      tau( 124) = (   0.1088158   0.3260709   1.5590415  )
       125        O      tau( 125) = (   0.1557634   0.8326372   1.8099750  )
       126        O      tau( 126) = (   0.3957469   0.6925775   1.2551041  )
       127        O      tau( 127) = (   0.3425672   0.1458495   1.2557583  )
       128        O      tau( 128) = (   0.0889180   0.2809171   1.8151570  )
       129        O      tau( 129) = (   0.0819528   0.5375146   1.7070435  )
       130        O      tau( 130) = (   0.3500874   0.9847658   1.3811197  )
       131        O      tau( 131) = (   0.3651535   0.3801778   1.6833533  )
       132        O      tau( 132) = (   0.1226095   0.0625001   1.3928683  )
       133        O      tau( 133) = (   0.1166286   0.6105214   1.3993222  )
       134        O      tau( 134) = (   0.3940907   0.4511291   1.3839526  )
       135        O      tau( 135) = (   0.1539517   0.0023876   1.6964487  )
       136        O      tau( 136) = (   0.3781022   0.9232496   1.6814927  )
       137        P      tau( 137) = (   0.7086972   0.9268886   1.6973010  )
       138        P      tau( 138) = (   0.9536994   0.6031977   1.3889097  )
       139        P      tau( 139) = (   0.7852117   0.0544089   1.3814586  )
       140        P      tau( 140) = (   0.5288900   0.3855901   1.7009466  )
       141        O      tau( 141) = (   0.6329072   0.8673578   1.5520036  )
       142        O      tau( 142) = (   0.8762702   0.6699342   1.5246158  )
       143        O      tau( 143) = (   0.8600524   0.1230690   1.5179981  )
       144        O      tau( 144) = (   0.6087509   0.3258280   1.5583353  )
       145        O      tau( 145) = (   0.6498879   0.8273448   1.8097100  )
       146        O      tau( 146) = (   0.8951592   0.6926073   1.2649112  )
       147        O      tau( 147) = (   0.8424812   0.1451546   1.2570370  )
       148        O      tau( 148) = (   0.5884541   0.2882678   1.8146234  )
       149        O      tau( 149) = (   0.5835244   0.5428552   1.6990313  )
       150        O      tau( 150) = (   0.8486776   0.9829536   1.3820905  )
       151        O      tau( 151) = (   0.8650542   0.3760978   1.6856534  )
       152        O      tau( 152) = (   0.6226076   0.0622713   1.3926408  )
       153        O      tau( 153) = (   0.6164316   0.6102320   1.3947252  )
       154        O      tau( 154) = (   0.8956509   0.4492502   1.3873948  )
       155        O      tau( 155) = (   0.6499432   0.0011086   1.6979587  )
       156        O      tau( 156) = (   0.8731885   0.9220750   1.6859848  )
       157        O      tau( 157) = (   0.8772931   0.1045369   1.8340311  )
       158        H      tau( 158) = (   0.9614754   0.1684452   1.8430458  )

     -------------------------------------------------
     Parameters for Dispersion (Grimme-D2) Correction:
     -------------------------------------------------
       atom      VdW radius       C_6     

        Ni         2.952        374.666
        Mn         2.952        374.666
        P          3.222        271.980
        O          2.536         24.284
        H          1.892          4.857

     number of k points=     1  Gaussian smearing, width (Ry)=  0.0100
                       cart. coord. in units 2pi/alat
        k(    1) = (   0.0000000   0.0000000   0.0000000), wk =   1.0000000

     Dense  grid:  1979026 G-vectors     FFT dimensions: ( 128, 144, 450)

     Smooth grid:   500628 G-vectors     FFT dimensions: (  81,  90, 288)

     Estimated max dynamical RAM per process >     333.40 MB

     Estimated total dynamical RAM >      20.84 GB

     Check: negative core charge=   -0.000002
     Generating pointlists ...
     new r_m :   0.0875 (alat units)  1.5616 (a.u.) for type    1
     new r_m :   0.0884 (alat units)  1.5790 (a.u.) for type    2
     new r_m :   0.0664 (alat units)  1.1849 (a.u.) for type    3
     new r_m :   0.0438 (alat units)  0.7812 (a.u.) for type    4
     new r_m :   0.0438 (alat units)  0.7812 (a.u.) for type    5

     Initial potential from superposition of free atoms

     starting charge    1107.8886, renormalised to    1108.0000

     negative rho (up, down):  1.550E-03 4.672E-04
 
     Adding external electric field

     Computed dipole along edir(3) : 
        Dipole                1.5934 Ry au,          4.0501 Debye
        Dipole field          0.0010 Ry au, 
 
        Potential amp.       -0.1045 Ry
        Total length         54.7057 bohr
 
 
     Adding external electric field

     Computed dipole along edir(3) : 
        Dipole                1.5934 Ry au,          4.0501 Debye
        Dipole field          0.0010 Ry au, 
 
        Potential amp.       -0.1045 Ry
        Total length         54.7057 bohr
 
     Starting wfcs are  818 randomized atomic wfcs

     total cpu time spent up to now is       11.4 secs

     Self-consistent Calculation

     iteration #  1     ecut=    50.00 Ry     beta= 0.10
     Davidson diagonalization with overlap
     ethr =  1.00E-02,  avg # of iterations =  5.5

     negative rho (up, down):  4.164E-01 3.773E-07
 
     Adding external electric field

     Computed dipole along edir(3) : 
        Dipole               -3.7789 Ry au,         -9.6050 Debye
        Dipole field         -0.0023 Ry au, 
 
        Potential amp.        0.2479 Ry
        Total length         54.7057 bohr
 
 
     Adding external electric field

     Computed dipole along edir(3) : 
        Dipole               -3.7789 Ry au,         -9.6050 Debye
        Dipole field         -0.0023 Ry au, 
 
        Potential amp.        0.2479 Ry
        Total length         54.7057 bohr
 

     total cpu time spent up to now is       39.4 secs

     total energy              =   -7857.77984723 Ry
     estimated scf accuracy    <     732.81522959 Ry

     total magnetization       =   222.00 Bohr mag/cell
     absolute magnetization    =   318.95 Bohr mag/cell

     iteration #  2     ecut=    50.00 Ry     beta= 0.10
     Davidson diagonalization with overlap
     ethr =  1.00E-02,  avg # of iterations =  2.0

     negative rho (up, down):  3.916E-01 2.242E-07
 
     Adding external electric field

     Computed dipole along edir(3) : 
        Dipole               -2.5862 Ry au,         -6.5735 Debye
        Dipole field         -0.0016 Ry au, 
 
        Potential amp.        0.1696 Ry
        Total length         54.7057 bohr
 
 
     Adding external electric field

     Computed dipole along edir(3) : 
        Dipole               -2.5862 Ry au,         -6.5735 Debye
        Dipole field         -0.0016 Ry au, 
 
        Potential amp.        0.1696 Ry
        Total length         54.7057 bohr
 

     total cpu time spent up to now is       56.1 secs

     total energy              =   -7939.81922363 Ry
     estimated scf accuracy    <     198.94258137 Ry

     total magnetization       =   166.14 Bohr mag/cell
     absolute magnetization    =   213.33 Bohr mag/cell

     iteration #  3     ecut=    50.00 Ry     beta= 0.10
     Davidson diagonalization with overlap
     ethr =  1.00E-02,  avg # of iterations =  1.5

     negative rho (up, down):  3.495E-01 2.025E-07
 
     Adding external electric field

     Computed dipole along edir(3) : 
        Dipole               -2.2611 Ry au,         -5.7472 Debye
        Dipole field         -0.0014 Ry au, 
 
        Potential amp.        0.1483 Ry
        Total length         54.7057 bohr
 
 
     Adding external electric field

     Computed dipole along edir(3) : 
        Dipole               -2.2611 Ry au,         -5.7472 Debye
        Dipole field         -0.0014 Ry au, 
 
        Potential amp.        0.1483 Ry
        Total length         54.7057 bohr
 

     total cpu time spent up to now is       69.9 secs

     total energy              =   -7969.16434116 Ry
     estimated scf accuracy    <     104.11789857 Ry

     total magnetization       =   142.94 Bohr mag/cell
     absolute magnetization    =   192.34 Bohr mag/cell

     iteration #  4     ecut=    50.00 Ry     beta= 0.10
     Davidson diagonalization with overlap
     ethr =  9.40E-03,  avg # of iterations =  1.0

     negative rho (up, down):  2.750E-01 6.232E-08
 
     Adding external electric field

     Computed dipole along edir(3) : 
        Dipole               -2.0715 Ry au,         -5.2653 Debye
        Dipole field         -0.0012 Ry au, 
 
        Potential amp.        0.1359 Ry
        Total length         54.7057 bohr
 
 
     Adding external electric field

     Computed dipole along edir(3) : 
        Dipole               -2.0715 Ry au,         -5.2653 Debye
        Dipole field         -0.0012 Ry au, 
 
        Potential amp.        0.1359 Ry
        Total length         54.7057 bohr
 

     total cpu time spent up to now is       82.8 secs

     total energy              =   -8002.44205629 Ry
     estimated scf accuracy    <      85.15116577 Ry

     total magnetization       =   127.75 Bohr mag/cell
     absolute magnetization    =   178.51 Bohr mag/cell

     iteration #  5     ecut=    50.00 Ry     beta= 0.10
     Davidson diagonalization with overlap
     ethr =  7.69E-03,  avg # of iterations =  1.0

     negative rho (up, down):  4.549E-02 4.203E-09
 
     Adding external electric field

     Computed dipole along edir(3) : 
        Dipole               -1.6395 Ry au,         -4.1671 Debye
        Dipole field         -0.0010 Ry au, 
 
        Potential amp.        0.1075 Ry
        Total length         54.7057 bohr
 
 
     Adding external electric field

     Computed dipole along edir(3) : 
        Dipole               -1.6395 Ry au,         -4.1671 Debye
        Dipole field         -0.0010 Ry au, 
 
        Potential amp.        0.1075 Ry
        Total length         54.7057 bohr
 

     total cpu time spent up to now is       95.1 secs

     total energy              =   -8061.58134287 Ry
     estimated scf accuracy    <      67.96081194 Ry

     total magnetization       =   106.16 Bohr mag/cell
     absolute magnetization    =   159.81 Bohr mag/cell

     iteration #  6     ecut=    50.00 Ry     beta= 0.10
     Davidson diagonalization with overlap
     ethr =  6.13E-03,  avg # of iterations =  1.0

     negative rho (up, down):  6.772E-04 1.179E-03
 
     Adding external electric field

     Computed dipole along edir(3) : 
        Dipole               -1.2815 Ry au,         -3.2573 Debye
        Dipole field         -0.0008 Ry au, 
 
        Potential amp.        0.0841 Ry
        Total length         54.7057 bohr
 
 
     Adding external electric field

     Computed dipole along edir(3) : 
        Dipole               -1.2815 Ry au,         -3.2573 Debye
        Dipole field         -0.0008 Ry au, 
 
        Potential amp.        0.0841 Ry
        Total length         54.7057 bohr
 

     total cpu time spent up to now is      107.6 secs

     total energy              =   -8076.05241240 Ry
     estimated scf accuracy    <      16.63643084 Ry

     total magnetization       =   100.00 Bohr mag/cell
     absolute magnetization    =   133.55 Bohr mag/cell

     iteration #  7     ecut=    50.00 Ry     beta= 0.10
     Davidson diagonalization with overlap
     ethr =  1.50E-03,  avg # of iterations =  7.0

     negative rho (up, down):  6.779E-04 1.174E-03
 
     Adding external electric field

     Computed dipole along edir(3) : 
        Dipole               -1.2812 Ry au,         -3.2565 Debye
        Dipole field         -0.0008 Ry au, 
 
        Potential amp.        0.0840 Ry
        Total length         54.7057 bohr
 
 
     Adding external electric field

     Computed dipole along edir(3) : 
        Dipole               -1.2812 Ry au,         -3.2565 Debye
        Dipole field         -0.0008 Ry au, 
 
        Potential amp.        0.0840 Ry
        Total length         54.7057 bohr
 

     total cpu time spent up to now is      130.6 secs

     total energy              =   -8078.93618318 Ry
     estimated scf accuracy    <      31.59678774 Ry

     total magnetization       =    68.07 Bohr mag/cell
     absolute magnetization    =    85.57 Bohr mag/cell

     iteration #  8     ecut=    50.00 Ry     beta= 0.10
     Davidson diagonalization with overlap
     ethr =  1.50E-03,  avg # of iterations =  1.0

     negative rho (up, down):  6.212E-04 1.149E-03
 
     Adding external electric field

     Computed dipole along edir(3) : 
        Dipole               -1.2897 Ry au,         -3.2782 Debye
        Dipole field         -0.0008 Ry au, 
 
        Potential amp.        0.0846 Ry
        Total length         54.7057 bohr
 
 
     Adding external electric field

     Computed dipole along edir(3) : 
        Dipole               -1.2897 Ry au,         -3.2782 Debye
        Dipole field         -0.0008 Ry au, 
 
        Potential amp.        0.0846 Ry
        Total length         54.7057 bohr
 

     total cpu time spent up to now is      143.7 secs

     total energy              =   -8078.97273470 Ry
     estimated scf accuracy    <      32.02426526 Ry

     total magnetization       =    67.98 Bohr mag/cell
     absolute magnetization    =    85.10 Bohr mag/cell

     iteration #  9     ecut=    50.00 Ry     beta= 0.10
     Davidson diagonalization with overlap
     ethr =  1.50E-03,  avg # of iterations =  1.0

     negative rho (up, down):  4.681E-04 7.478E-04
 
     Adding external electric field

     Computed dipole along edir(3) : 
        Dipole               -1.3599 Ry au,         -3.4564 Debye
        Dipole field         -0.0008 Ry au, 
 
        Potential amp.        0.0892 Ry
        Total length         54.7057 bohr
 
 
     Adding external electric field

     Computed dipole along edir(3) : 
        Dipole               -1.3599 Ry au,         -3.4564 Debye
        Dipole field         -0.0008 Ry au, 
 
        Potential amp.        0.0892 Ry
        Total length         54.7057 bohr
 

     total cpu time spent up to now is      156.4 secs

     total energy              =   -8078.72379661 Ry
     estimated scf accuracy    <      30.54462872 Ry

     total magnetization       =    68.41 Bohr mag/cell
     absolute magnetization    =    85.06 Bohr mag/cell

     iteration # 10     ecut=    50.00 Ry     beta= 0.10
     Davidson diagonalization with overlap
     ethr =  1.50E-03,  avg # of iterations =  1.0

     negative rho (up, down):  4.461E-04 5.743E-04
 
     Adding external electric field

     Computed dipole along edir(3) : 
        Dipole               -1.4232 Ry au,         -3.6173 Debye
        Dipole field         -0.0009 Ry au, 
 
        Potential amp.        0.0933 Ry
        Total length         54.7057 bohr
 
 
     Adding external electric field

     Computed dipole along edir(3) : 
        Dipole               -1.4232 Ry au,         -3.6173 Debye
        Dipole field         -0.0009 Ry au, 
 
        Potential amp.        0.0933 Ry
        Total length         54.7057 bohr
 

     total cpu time spent up to now is      168.9 secs

     total energy              =   -8078.62509554 Ry
     estimated scf accuracy    <      24.72585899 Ry

     total magnetization       =    70.13 Bohr mag/cell
     absolute magnetization    =    86.16 Bohr mag/cell

     iteration # 11     ecut=    50.00 Ry     beta= 0.10
     Davidson diagonalization with overlap
     ethr =  1.50E-03,  avg # of iterations =  1.0

     negative rho (up, down):  4.389E-04 5.174E-04
 
     Adding external electric field

     Computed dipole along edir(3) : 
        Dipole               -1.4407 Ry au,         -3.6618 Debye
        Dipole field         -0.0009 Ry au, 
 
        Potential amp.        0.0945 Ry
        Total length         54.7057 bohr
 
 
     Adding external electric field

     Computed dipole along edir(3) : 
        Dipole               -1.4407 Ry au,         -3.6618 Debye
        Dipole field         -0.0009 Ry au, 
 
        Potential amp.        0.0945 Ry
        Total length         54.7057 bohr
 

     total cpu time spent up to now is      181.2 secs

     total energy              =   -8078.61066385 Ry
     estimated scf accuracy    <      20.86058310 Ry

     total magnetization       =    72.36 Bohr mag/cell
     absolute magnetization    =    87.87 Bohr mag/cell

     iteration # 12     ecut=    50.00 Ry     beta= 0.10
     Davidson diagonalization with overlap
     ethr =  1.50E-03,  avg # of iterations =  1.0

     negative rho (up, down):  4.831E-04 7.498E-04
 
     Adding external electric field

     Computed dipole along edir(3) : 
        Dipole               -1.3182 Ry au,         -3.3504 Debye
        Dipole field         -0.0008 Ry au, 
 
        Potential amp.        0.0865 Ry
        Total length         54.7057 bohr
 
 
     Adding external electric field

     Computed dipole along edir(3) : 
        Dipole               -1.3182 Ry au,         -3.3504 Debye
        Dipole field         -0.0008 Ry au, 
 
        Potential amp.        0.0865 Ry
        Total length         54.7057 bohr
 

     total cpu time spent up to now is      193.3 secs

     total energy              =   -8078.76674417 Ry
     estimated scf accuracy    <      20.10982161 Ry

     total magnetization       =    72.67 Bohr mag/cell
     absolute magnetization    =    88.04 Bohr mag/cell

     iteration # 13     ecut=    50.00 Ry     beta= 0.10
     Davidson diagonalization with overlap
     ethr =  1.50E-03,  avg # of iterations =  1.0

     negative rho (up, down):  4.070E-04 7.979E-04
 
     Adding external electric field

     Computed dipole along edir(3) : 
        Dipole               -1.4520 Ry au,         -3.6907 Debye
        Dipole field         -0.0009 Ry au, 
 
        Potential amp.        0.0952 Ry
        Total length         54.7057 bohr
 
 
     Adding external electric field

     Computed dipole along edir(3) : 
        Dipole               -1.4520 Ry au,         -3.6907 Debye
        Dipole field         -0.0009 Ry au, 
 
        Potential amp.        0.0952 Ry
        Total length         54.7057 bohr
 

     total cpu time spent up to now is      205.4 secs

     total energy              =   -8078.78642883 Ry
     estimated scf accuracy    <      24.95866858 Ry

     total magnetization       =    70.05 Bohr mag/cell
     absolute magnetization    =    85.78 Bohr mag/cell

     iteration # 14     ecut=    50.00 Ry     beta= 0.10
     Davidson diagonalization with overlap
     ethr =  1.50E-03,  avg # of iterations =  1.0

     negative rho (up, down):  3.053E-02 1.901E-02
 
     Adding external electric field

     Computed dipole along edir(3) : 
        Dipole               -2.6883 Ry au,         -6.8330 Debye
        Dipole field         -0.0016 Ry au, 
 
        Potential amp.        0.1763 Ry
        Total length         54.7057 bohr
 
 
     Adding external electric field

     Computed dipole along edir(3) : 
        Dipole               -2.6883 Ry au,         -6.8330 Debye
        Dipole field         -0.0016 Ry au, 
 
        Potential amp.        0.1763 Ry
        Total length         54.7057 bohr
 

     total cpu time spent up to now is      218.0 secs

     total energy              =   -8078.04918340 Ry
     estimated scf accuracy    <      23.90168551 Ry

     total magnetization       =    70.19 Bohr mag/cell
     absolute magnetization    =    85.49 Bohr mag/cell

     iteration # 15     ecut=    50.00 Ry     beta= 0.10
     Davidson diagonalization with overlap
     ethr =  1.50E-03,  avg # of iterations =  1.0

     negative rho (up, down):  1.467E-02 9.924E-03
 
     Adding external electric field

     Computed dipole along edir(3) : 
        Dipole               -2.3724 Ry au,         -6.0300 Debye
        Dipole field         -0.0014 Ry au, 
 
        Potential amp.        0.1556 Ry
        Total length         54.7057 bohr
 
 
     Adding external electric field

     Computed dipole along edir(3) : 
        Dipole               -2.3724 Ry au,         -6.0300 Debye
        Dipole field         -0.0014 Ry au, 
 
        Potential amp.        0.1556 Ry
        Total length         54.7057 bohr
 

     total cpu time spent up to now is      230.4 secs

     total energy              =   -8078.82391739 Ry
     estimated scf accuracy    <       7.50294065 Ry

     total magnetization       =    94.08 Bohr mag/cell
     absolute magnetization    =   107.55 Bohr mag/cell

     iteration # 16     ecut=    50.00 Ry     beta= 0.10
     Davidson diagonalization with overlap
     ethr =  6.77E-04,  avg # of iterations =  1.5

     negative rho (up, down):  6.599E-04 1.668E-04
 
     Adding external electric field

     Computed dipole along edir(3) : 
        Dipole               -1.0781 Ry au,         -2.7402 Debye
        Dipole field         -0.0006 Ry au, 
 
        Potential amp.        0.0707 Ry
        Total length         54.7057 bohr
 
 
     Adding external electric field

     Computed dipole along edir(3) : 
        Dipole               -1.0781 Ry au,         -2.7402 Debye
        Dipole field         -0.0006 Ry au, 
 
        Potential amp.        0.0707 Ry
        Total length         54.7057 bohr
 

     total cpu time spent up to now is      243.8 secs

     total energy              =   -8077.57455612 Ry
     estimated scf accuracy    <       5.42163321 Ry

     total magnetization       =    95.00 Bohr mag/cell
     absolute magnetization    =   107.28 Bohr mag/cell

     iteration # 17     ecut=    50.00 Ry     beta= 0.10
     Davidson diagonalization with overlap
     ethr =  4.89E-04,  avg # of iterations =  2.0

     negative rho (up, down):  3.451E-04 5.863E-05
 
     Adding external electric field

     Computed dipole along edir(3) : 
        Dipole               -1.2461 Ry au,         -3.1674 Debye
        Dipole field         -0.0007 Ry au, 
 
        Potential amp.        0.0817 Ry
        Total length         54.7057 bohr
 
 
     Adding external electric field

     Computed dipole along edir(3) : 
        Dipole               -1.2461 Ry au,         -3.1674 Debye
        Dipole field         -0.0007 Ry au, 
 
        Potential amp.        0.0817 Ry
        Total length         54.7057 bohr
 

     total cpu time spent up to now is      258.1 secs

     total energy              =   -8078.14446705 Ry
     estimated scf accuracy    <      10.13496983 Ry

     total magnetization       =    86.76 Bohr mag/cell
     absolute magnetization    =    99.14 Bohr mag/cell

     iteration # 18     ecut=    50.00 Ry     beta= 0.10
     Davidson diagonalization with overlap
     ethr =  4.89E-04,  avg # of iterations =  1.5

     negative rho (up, down):  2.780E-04 2.096E-05
 
     Adding external electric field

     Computed dipole along edir(3) : 
        Dipole               -1.4450 Ry au,         -3.6729 Debye
        Dipole field         -0.0009 Ry au, 
 
        Potential amp.        0.0948 Ry
        Total length         54.7057 bohr
 
 
     Adding external electric field

     Computed dipole along edir(3) : 
        Dipole               -1.4450 Ry au,         -3.6729 Debye
        Dipole field         -0.0009 Ry au, 
 
        Potential amp.        0.0948 Ry
        Total length         54.7057 bohr
 

     total cpu time spent up to now is      271.0 secs

     total energy              =   -8078.19693677 Ry
     estimated scf accuracy    <       7.56881621 Ry

     total magnetization       =    89.83 Bohr mag/cell
     absolute magnetization    =   101.40 Bohr mag/cell

     iteration # 19     ecut=    50.00 Ry     beta= 0.10
     Davidson diagonalization with overlap
     ethr =  4.89E-04,  avg # of iterations =  1.0

     negative rho (up, down):  1.925E-04 1.524E-05
 
     Adding external electric field

     Computed dipole along edir(3) : 
        Dipole               -1.4925 Ry au,         -3.7935 Debye
        Dipole field         -0.0009 Ry au, 
 
        Potential amp.        0.0979 Ry
        Total length         54.7057 bohr
 
 
     Adding external electric field

     Computed dipole along edir(3) : 
        Dipole               -1.4925 Ry au,         -3.7935 Debye
        Dipole field         -0.0009 Ry au, 
 
        Potential amp.        0.0979 Ry
        Total length         54.7057 bohr
 

     total cpu time spent up to now is      283.2 secs

     total energy              =   -8078.30617951 Ry
     estimated scf accuracy    <       5.63938215 Ry

     total magnetization       =    90.70 Bohr mag/cell
     absolute magnetization    =   101.51 Bohr mag/cell

     iteration # 20     ecut=    50.00 Ry     beta= 0.10
     Davidson diagonalization with overlap
     ethr =  4.89E-04,  avg # of iterations =  1.5

     negative rho (up, down):  8.004E-04 7.475E-05
 
     Adding external electric field

     Computed dipole along edir(3) : 
        Dipole               -1.7351 Ry au,         -4.4102 Debye
        Dipole field         -0.0010 Ry au, 
 
        Potential amp.        0.1138 Ry
        Total length         54.7057 bohr
 
 
     Adding external electric field

     Computed dipole along edir(3) : 
        Dipole               -1.7351 Ry au,         -4.4102 Debye
        Dipole field         -0.0010 Ry au, 
 
        Potential amp.        0.1138 Ry
        Total length         54.7057 bohr
 

     total cpu time spent up to now is      296.2 secs

     total energy              =   -8078.22867712 Ry
     estimated scf accuracy    <       5.45589844 Ry

     total magnetization       =    89.76 Bohr mag/cell
     absolute magnetization    =    99.27 Bohr mag/cell

     iteration # 21     ecut=    50.00 Ry     beta= 0.10
     Davidson diagonalization with overlap
     ethr =  4.89E-04,  avg # of iterations =  1.0

     negative rho (up, down):  1.418E-04 4.692E-06
 
     Adding external electric field

     Computed dipole along edir(3) : 
        Dipole               -1.5477 Ry au,         -3.9338 Debye
        Dipole field         -0.0009 Ry au, 
 
        Potential amp.        0.1015 Ry
        Total length         54.7057 bohr
 
 
     Adding external electric field

     Computed dipole along edir(3) : 
        Dipole               -1.5477 Ry au,         -3.9338 Debye
        Dipole field         -0.0009 Ry au, 
 
        Potential amp.        0.1015 Ry
        Total length         54.7057 bohr
 

     total cpu time spent up to now is      308.8 secs

     total energy              =   -8078.22754301 Ry
     estimated scf accuracy    <       1.18641626 Ry

     total magnetization       =    96.41 Bohr mag/cell
     absolute magnetization    =   104.63 Bohr mag/cell

     iteration # 22     ecut=    50.00 Ry     beta= 0.10
     Davidson diagonalization with overlap
     ethr =  1.07E-04,  avg # of iterations =  2.0

     negative rho (up, down):  9.090E-05 9.710E-06
 
     Adding external electric field

     Computed dipole along edir(3) : 
        Dipole               -1.4918 Ry au,         -3.7919 Debye
        Dipole field         -0.0009 Ry au, 
 
        Potential amp.        0.0978 Ry
        Total length         54.7057 bohr
 
 
     Adding external electric field

     Computed dipole along edir(3) : 
        Dipole               -1.4918 Ry au,         -3.7919 Debye
        Dipole field         -0.0009 Ry au, 
 
        Potential amp.        0.0978 Ry
        Total length         54.7057 bohr
 

     total cpu time spent up to now is      323.0 secs

     total energy              =   -8078.30250495 Ry
     estimated scf accuracy    <       0.80721946 Ry

     total magnetization       =    97.78 Bohr mag/cell
     absolute magnetization    =   105.20 Bohr mag/cell

     iteration # 23     ecut=    50.00 Ry     beta= 0.10
     Davidson diagonalization with overlap
     ethr =  7.29E-05,  avg # of iterations = 12.0

     negative rho (up, down):  1.176E-03 6.453E-04
 
     Adding external electric field

     Computed dipole along edir(3) : 
        Dipole               -1.4999 Ry au,         -3.8124 Debye
        Dipole field         -0.0009 Ry au, 
 
        Potential amp.        0.0984 Ry
        Total length         54.7057 bohr
 
 
     Adding external electric field

     Computed dipole along edir(3) : 
        Dipole               -1.4999 Ry au,         -3.8124 Debye
        Dipole field         -0.0009 Ry au, 
 
        Potential amp.        0.0984 Ry
        Total length         54.7057 bohr
 

     total cpu time spent up to now is      348.6 secs

     total energy              =   -8078.46363241 Ry
     estimated scf accuracy    <       0.51150402 Ry

     total magnetization       =    97.78 Bohr mag/cell
     absolute magnetization    =   103.71 Bohr mag/cell

     iteration # 24     ecut=    50.00 Ry     beta= 0.10
     Davidson diagonalization with overlap
     ethr =  4.62E-05,  avg # of iterations =  3.0

     negative rho (up, down):  2.854E-04 1.794E-04
 
     Adding external electric field

     Computed dipole along edir(3) : 
        Dipole               -1.3493 Ry au,         -3.4297 Debye
        Dipole field         -0.0008 Ry au, 
 
        Potential amp.        0.0885 Ry
        Total length         54.7057 bohr
 
 
     Adding external electric field

     Computed dipole along edir(3) : 
        Dipole               -1.3493 Ry au,         -3.4297 Debye
        Dipole field         -0.0008 Ry au, 
 
        Potential amp.        0.0885 Ry
        Total length         54.7057 bohr
 

     total cpu time spent up to now is      364.8 secs

     total energy              =   -8078.51020266 Ry
     estimated scf accuracy    <       0.23095281 Ry

     total magnetization       =    98.07 Bohr mag/cell
     absolute magnetization    =   100.84 Bohr mag/cell

     iteration # 25     ecut=    50.00 Ry     beta= 0.10
     Davidson diagonalization with overlap
     ethr =  2.08E-05,  avg # of iterations = 12.0

     negative rho (up, down):  1.302E-04 1.295E-04
 
     Adding external electric field

     Computed dipole along edir(3) : 
        Dipole               -1.2419 Ry au,         -3.1566 Debye
        Dipole field         -0.0007 Ry au, 
 
        Potential amp.        0.0815 Ry
        Total length         54.7057 bohr
 
 
     Adding external electric field

     Computed dipole along edir(3) : 
        Dipole               -1.2419 Ry au,         -3.1566 Debye
        Dipole field         -0.0007 Ry au, 
 
        Potential amp.        0.0815 Ry
        Total length         54.7057 bohr
 

     total cpu time spent up to now is      390.1 secs

     total energy              =   -8078.51964483 Ry
     estimated scf accuracy    <       0.10900066 Ry

     total magnetization       =    98.29 Bohr mag/cell
     absolute magnetization    =   100.22 Bohr mag/cell

     iteration # 26     ecut=    50.00 Ry     beta= 0.10
     Davidson diagonalization with overlap
     c_bands:  5 eigenvalues not converged
     c_bands:  1 eigenvalues not converged
     ethr =  9.84E-06,  avg # of iterations = 20.0

     negative rho (up, down):  3.171E-04 3.015E-04
 
     Adding external electric field

     Computed dipole along edir(3) : 
        Dipole               -1.1971 Ry au,         -3.0426 Debye
        Dipole field         -0.0007 Ry au, 
 
        Potential amp.        0.0785 Ry
        Total length         54.7057 bohr
 
 
     Adding external electric field

     Computed dipole along edir(3) : 
        Dipole               -1.1971 Ry au,         -3.0426 Debye
        Dipole field         -0.0007 Ry au, 
 
        Potential amp.        0.0785 Ry
        Total length         54.7057 bohr
 

     total cpu time spent up to now is      415.7 secs

     total energy              =   -8078.51986634 Ry
     estimated scf accuracy    <       0.08913527 Ry

     total magnetization       =    97.90 Bohr mag/cell
     absolute magnetization    =    99.35 Bohr mag/cell

     iteration # 27     ecut=    50.00 Ry     beta= 0.10
     Davidson diagonalization with overlap
     c_bands:  3 eigenvalues not converged
     ethr =  8.04E-06,  avg # of iterations = 11.0

     negative rho (up, down):  1.331E-03 9.820E-04
 
     Adding external electric field

     Computed dipole along edir(3) : 
        Dipole               -1.1175 Ry au,         -2.8403 Debye
        Dipole field         -0.0007 Ry au, 
 
        Potential amp.        0.0733 Ry
        Total length         54.7057 bohr
 
 
     Adding external electric field

     Computed dipole along edir(3) : 
        Dipole               -1.1175 Ry au,         -2.8403 Debye
        Dipole field         -0.0007 Ry au, 
 
        Potential amp.        0.0733 Ry
        Total length         54.7057 bohr
 

     total cpu time spent up to now is      434.6 secs

     total energy              =   -8078.51208696 Ry
     estimated scf accuracy    <       0.08410430 Ry

     total magnetization       =    97.55 Bohr mag/cell
     absolute magnetization    =    98.88 Bohr mag/cell

     iteration # 28     ecut=    50.00 Ry     beta= 0.10
     Davidson diagonalization with overlap
     c_bands:  2 eigenvalues not converged
     ethr =  7.59E-06,  avg # of iterations = 11.0

     negative rho (up, down):  1.081E-03 8.049E-04
 
     Adding external electric field

     Computed dipole along edir(3) : 
        Dipole               -1.1165 Ry au,         -2.8379 Debye
        Dipole field         -0.0007 Ry au, 
 
        Potential amp.        0.0732 Ry
        Total length         54.7057 bohr
 
 
     Adding external electric field

     Computed dipole along edir(3) : 
        Dipole               -1.1165 Ry au,         -2.8379 Debye
        Dipole field         -0.0007 Ry au, 
 
        Potential amp.        0.0732 Ry
        Total length         54.7057 bohr
 

     total cpu time spent up to now is      453.8 secs

     total energy              =   -8078.51508187 Ry
     estimated scf accuracy    <       0.08933850 Ry

     total magnetization       =    97.34 Bohr mag/cell
     absolute magnetization    =    98.56 Bohr mag/cell

     iteration # 29     ecut=    50.00 Ry     beta= 0.10
     Davidson diagonalization with overlap
     ethr =  7.59E-06,  avg # of iterations =  1.5

     negative rho (up, down):  1.268E-03 9.340E-04
 
     Adding external electric field

     Computed dipole along edir(3) : 
        Dipole               -1.1402 Ry au,         -2.8981 Debye
        Dipole field         -0.0007 Ry au, 
 
        Potential amp.        0.0748 Ry
        Total length         54.7057 bohr
 
 
     Adding external electric field

     Computed dipole along edir(3) : 
        Dipole               -1.1402 Ry au,         -2.8981 Debye
        Dipole field         -0.0007 Ry au, 
 
        Potential amp.        0.0748 Ry
        Total length         54.7057 bohr
 

     total cpu time spent up to now is      466.9 secs

     total energy              =   -8078.51388084 Ry
     estimated scf accuracy    <       0.08839393 Ry

     total magnetization       =    97.36 Bohr mag/cell
     absolute magnetization    =    98.56 Bohr mag/cell

     iteration # 30     ecut=    50.00 Ry     beta= 0.10
     Davidson diagonalization with overlap
     ethr =  7.59E-06,  avg # of iterations =  2.0

     negative rho (up, down):  1.196E-03 8.992E-04
 
     Adding external electric field

     Computed dipole along edir(3) : 
        Dipole               -1.1641 Ry au,         -2.9589 Debye
        Dipole field         -0.0007 Ry au, 
 
        Potential amp.        0.0764 Ry
        Total length         54.7057 bohr
 
 
     Adding external electric field

     Computed dipole along edir(3) : 
        Dipole               -1.1641 Ry au,         -2.9589 Debye
        Dipole field         -0.0007 Ry au, 
 
        Potential amp.        0.0764 Ry
        Total length         54.7057 bohr
 

     total cpu time spent up to now is      481.1 secs

     total energy              =   -8078.51507907 Ry
     estimated scf accuracy    <       0.07465402 Ry

     total magnetization       =    97.56 Bohr mag/cell
     absolute magnetization    =    98.74 Bohr mag/cell

     iteration # 31     ecut=    50.00 Ry     beta= 0.10
     Davidson diagonalization with overlap
     ethr =  6.74E-06,  avg # of iterations =  1.5

     negative rho (up, down):  1.110E-03 7.984E-04
 
     Adding external electric field

     Computed dipole along edir(3) : 
        Dipole               -1.1662 Ry au,         -2.9642 Debye
        Dipole field         -0.0007 Ry au, 
 
        Potential amp.        0.0765 Ry
        Total length         54.7057 bohr
 
 
     Adding external electric field

     Computed dipole along edir(3) : 
        Dipole               -1.1662 Ry au,         -2.9642 Debye
        Dipole field         -0.0007 Ry au, 
 
        Potential amp.        0.0765 Ry
        Total length         54.7057 bohr
 

     total cpu time spent up to now is      494.2 secs

     total energy              =   -8078.51546409 Ry
     estimated scf accuracy    <       0.07095538 Ry

     total magnetization       =    97.67 Bohr mag/cell
     absolute magnetization    =    98.84 Bohr mag/cell

     iteration # 32     ecut=    50.00 Ry     beta= 0.10
     Davidson diagonalization with overlap
     ethr =  6.40E-06,  avg # of iterations =  1.5

     negative rho (up, down):  1.961E-03 1.419E-03
 
     Adding external electric field

     Computed dipole along edir(3) : 
        Dipole               -1.1357 Ry au,         -2.8866 Debye
        Dipole field         -0.0007 Ry au, 
 
        Potential amp.        0.0745 Ry
        Total length         54.7057 bohr
 
 
     Adding external electric field

     Computed dipole along edir(3) : 
        Dipole               -1.1357 Ry au,         -2.8866 Debye
        Dipole field         -0.0007 Ry au, 
 
        Potential amp.        0.0745 Ry
        Total length         54.7057 bohr
 

     total cpu time spent up to now is      507.0 secs

     total energy              =   -8078.51261164 Ry
     estimated scf accuracy    <       0.07104866 Ry

     total magnetization       =    97.76 Bohr mag/cell
     absolute magnetization    =    98.95 Bohr mag/cell

     iteration # 33     ecut=    50.00 Ry     beta= 0.10
     Davidson diagonalization with overlap
     ethr =  6.40E-06,  avg # of iterations =  2.0

     negative rho (up, down):  1.282E-03 8.822E-04
 
     Adding external electric field

     Computed dipole along edir(3) : 
        Dipole               -1.1516 Ry au,         -2.9272 Debye
        Dipole field         -0.0007 Ry au, 
 
        Potential amp.        0.0755 Ry
        Total length         54.7057 bohr
 
 
     Adding external electric field

     Computed dipole along edir(3) : 
        Dipole               -1.1516 Ry au,         -2.9272 Debye
        Dipole field         -0.0007 Ry au, 
 
        Potential amp.        0.0755 Ry
        Total length         54.7057 bohr
 

     total cpu time spent up to now is      520.7 secs

     total energy              =   -8078.51337364 Ry
     estimated scf accuracy    <       0.07291556 Ry

     total magnetization       =    97.72 Bohr mag/cell
     absolute magnetization    =    98.89 Bohr mag/cell

     iteration # 34     ecut=    50.00 Ry     beta= 0.10
     Davidson diagonalization with overlap
     ethr =  6.40E-06,  avg # of iterations =  1.5

     negative rho (up, down):  4.419E-03 3.663E-03
 
     Adding external electric field

     Computed dipole along edir(3) : 
        Dipole               -1.1352 Ry au,         -2.8854 Debye
        Dipole field         -0.0007 Ry au, 
 
        Potential amp.        0.0745 Ry
        Total length         54.7057 bohr
 
 
     Adding external electric field

     Computed dipole along edir(3) : 
        Dipole               -1.1352 Ry au,         -2.8854 Debye
        Dipole field         -0.0007 Ry au, 
 
        Potential amp.        0.0745 Ry
        Total length         54.7057 bohr
 

     total cpu time spent up to now is      534.4 secs

     total energy              =   -8078.51010747 Ry
     estimated scf accuracy    <       0.07308770 Ry

     total magnetization       =    97.75 Bohr mag/cell
     absolute magnetization    =    98.94 Bohr mag/cell

     iteration # 35     ecut=    50.00 Ry     beta= 0.10
     Davidson diagonalization with overlap
     ethr =  6.40E-06,  avg # of iterations =  2.0

     negative rho (up, down):  3.524E-03 2.917E-03
 
     Adding external electric field

     Computed dipole along edir(3) : 
        Dipole               -1.1435 Ry au,         -2.9065 Debye
        Dipole field         -0.0007 Ry au, 
 
        Potential amp.        0.0750 Ry
        Total length         54.7057 bohr
 
 
     Adding external electric field

     Computed dipole along edir(3) : 
        Dipole               -1.1435 Ry au,         -2.9065 Debye
        Dipole field         -0.0007 Ry au, 
 
        Potential amp.        0.0750 Ry
        Total length         54.7057 bohr
 

     total cpu time spent up to now is      548.8 secs

     total energy              =   -8078.51296300 Ry
     estimated scf accuracy    <       0.06434346 Ry

     total magnetization       =    97.61 Bohr mag/cell
     absolute magnetization    =    98.68 Bohr mag/cell

     iteration # 36     ecut=    50.00 Ry     beta= 0.10
     Davidson diagonalization with overlap
     ethr =  5.81E-06,  avg # of iterations =  1.0

     negative rho (up, down):  4.460E-03 3.629E-03
 
     Adding external electric field

     Computed dipole along edir(3) : 
        Dipole               -1.0913 Ry au,         -2.7739 Debye
        Dipole field         -0.0007 Ry au, 
 
        Potential amp.        0.0716 Ry
        Total length         54.7057 bohr
 
 
     Adding external electric field

     Computed dipole along edir(3) : 
        Dipole               -1.0913 Ry au,         -2.7739 Debye
        Dipole field         -0.0007 Ry au, 
 
        Potential amp.        0.0716 Ry
        Total length         54.7057 bohr
 

     total cpu time spent up to now is      561.3 secs

     total energy              =   -8078.51191738 Ry
     estimated scf accuracy    <       0.06215825 Ry

     total magnetization       =    97.70 Bohr mag/cell
     absolute magnetization    =    98.76 Bohr mag/cell

     iteration # 37     ecut=    50.00 Ry     beta= 0.10
     Davidson diagonalization with overlap
     ethr =  5.61E-06,  avg # of iterations =  2.0

     negative rho (up, down):  7.845E-03 6.636E-03
 
     Adding external electric field

     Computed dipole along edir(3) : 
        Dipole               -0.9921 Ry au,         -2.5217 Debye
        Dipole field         -0.0006 Ry au, 
 
        Potential amp.        0.0651 Ry
        Total length         54.7057 bohr
 
 
     Adding external electric field

     Computed dipole along edir(3) : 
        Dipole               -0.9921 Ry au,         -2.5217 Debye
        Dipole field         -0.0006 Ry au, 
 
        Potential amp.        0.0651 Ry
        Total length         54.7057 bohr
 

     total cpu time spent up to now is      574.7 secs

     total energy              =   -8078.51199704 Ry
     estimated scf accuracy    <       0.06045878 Ry

     total magnetization       =    97.78 Bohr mag/cell
     absolute magnetization    =    98.82 Bohr mag/cell

     iteration # 38     ecut=    50.00 Ry     beta= 0.10
     Davidson diagonalization with overlap
     ethr =  5.46E-06,  avg # of iterations =  2.0

     negative rho (up, down):  6.084E-03 5.111E-03
 
     Adding external electric field

     Computed dipole along edir(3) : 
        Dipole               -1.0549 Ry au,         -2.6812 Debye
        Dipole field         -0.0006 Ry au, 
 
        Potential amp.        0.0692 Ry
        Total length         54.7057 bohr
 
 
     Adding external electric field

     Computed dipole along edir(3) : 
        Dipole               -1.0549 Ry au,         -2.6812 Debye
        Dipole field         -0.0006 Ry au, 
 
        Potential amp.        0.0692 Ry
        Total length         54.7057 bohr
 

     total cpu time spent up to now is      588.3 secs

     total energy              =   -8078.51259978 Ry
     estimated scf accuracy    <       0.06504839 Ry

     total magnetization       =    97.72 Bohr mag/cell
     absolute magnetization    =    98.75 Bohr mag/cell

     iteration # 39     ecut=    50.00 Ry     beta= 0.10
     Davidson diagonalization with overlap
     ethr =  5.46E-06,  avg # of iterations =  2.0

     negative rho (up, down):  5.817E-03 4.821E-03
 
     Adding external electric field

     Computed dipole along edir(3) : 
        Dipole               -1.0765 Ry au,         -2.7362 Debye
        Dipole field         -0.0006 Ry au, 
 
        Potential amp.        0.0706 Ry
        Total length         54.7057 bohr
 
 
     Adding external electric field

     Computed dipole along edir(3) : 
        Dipole               -1.0765 Ry au,         -2.7362 Debye
        Dipole field         -0.0006 Ry au, 
 
        Potential amp.        0.0706 Ry
        Total length         54.7057 bohr
 

     total cpu time spent up to now is      602.3 secs

     total energy              =   -8078.51240392 Ry
     estimated scf accuracy    <       0.06332410 Ry

     total magnetization       =    97.71 Bohr mag/cell
     absolute magnetization    =    98.74 Bohr mag/cell

     iteration # 40     ecut=    50.00 Ry     beta= 0.10
     Davidson diagonalization with overlap
     ethr =  5.46E-06,  avg # of iterations =  1.5

     negative rho (up, down):  5.990E-03 5.367E-03
 
     Adding external electric field

     Computed dipole along edir(3) : 
        Dipole               -1.0055 Ry au,         -2.5557 Debye
        Dipole field         -0.0006 Ry au, 
 
        Potential amp.        0.0659 Ry
        Total length         54.7057 bohr
 
 
     Adding external electric field

     Computed dipole along edir(3) : 
        Dipole               -1.0055 Ry au,         -2.5557 Debye
        Dipole field         -0.0006 Ry au, 
 
        Potential amp.        0.0659 Ry
        Total length         54.7057 bohr
 

     total cpu time spent up to now is      615.2 secs

     total energy              =   -8078.51129747 Ry
     estimated scf accuracy    <       0.06345023 Ry

     total magnetization       =    97.72 Bohr mag/cell
     absolute magnetization    =    98.74 Bohr mag/cell

     iteration # 41     ecut=    50.00 Ry     beta= 0.10
     Davidson diagonalization with overlap
     ethr =  5.46E-06,  avg # of iterations =  2.0

     negative rho (up, down):  6.441E-03 4.555E-03
 
     Adding external electric field

     Computed dipole along edir(3) : 
        Dipole               -1.1348 Ry au,         -2.8845 Debye
        Dipole field         -0.0007 Ry au, 
 
        Potential amp.        0.0744 Ry
        Total length         54.7057 bohr
 
 
     Adding external electric field

     Computed dipole along edir(3) : 
        Dipole               -1.1348 Ry au,         -2.8845 Debye
        Dipole field         -0.0007 Ry au, 
 
        Potential amp.        0.0744 Ry
        Total length         54.7057 bohr
 

     total cpu time spent up to now is      629.3 secs

     total energy              =   -8078.50861024 Ry
     estimated scf accuracy    <       0.06832304 Ry

     total magnetization       =    97.70 Bohr mag/cell
     absolute magnetization    =    98.67 Bohr mag/cell

     iteration # 42     ecut=    50.00 Ry     beta= 0.10
     Davidson diagonalization with overlap
     ethr =  5.46E-06,  avg # of iterations =  1.0

     negative rho (up, down):  5.130E-03 3.736E-03
 
     Adding external electric field

     Computed dipole along edir(3) : 
        Dipole               -1.0880 Ry au,         -2.7655 Debye
        Dipole field         -0.0007 Ry au, 
 
        Potential amp.        0.0714 Ry
        Total length         54.7057 bohr
 
 
     Adding external electric field

     Computed dipole along edir(3) : 
        Dipole               -1.0880 Ry au,         -2.7655 Debye
        Dipole field         -0.0007 Ry au, 
 
        Potential amp.        0.0714 Ry
        Total length         54.7057 bohr
 

     total cpu time spent up to now is      642.2 secs

     total energy              =   -8078.51114368 Ry
     estimated scf accuracy    <       0.06356105 Ry

     total magnetization       =    97.81 Bohr mag/cell
     absolute magnetization    =    98.92 Bohr mag/cell

     iteration # 43     ecut=    50.00 Ry     beta= 0.10
     Davidson diagonalization with overlap
     ethr =  5.46E-06,  avg # of iterations =  2.0

     negative rho (up, down):  6.556E-03 5.001E-03
 
     Adding external electric field

     Computed dipole along edir(3) : 
        Dipole               -1.1043 Ry au,         -2.8069 Debye
        Dipole field         -0.0007 Ry au, 
 
        Potential amp.        0.0724 Ry
        Total length         54.7057 bohr
 
 
     Adding external electric field

     Computed dipole along edir(3) : 
        Dipole               -1.1043 Ry au,         -2.8069 Debye
        Dipole field         -0.0007 Ry au, 
 
        Potential amp.        0.0724 Ry
        Total length         54.7057 bohr
 

     total cpu time spent up to now is      656.9 secs

     total energy              =   -8078.51172434 Ry
     estimated scf accuracy    <       0.06061583 Ry

     total magnetization       =    97.78 Bohr mag/cell
     absolute magnetization    =    98.90 Bohr mag/cell

     iteration # 44     ecut=    50.00 Ry     beta= 0.10
     Davidson diagonalization with overlap
     ethr =  5.46E-06,  avg # of iterations =  1.0

     negative rho (up, down):  2.560E-03 1.617E-03
 
     Adding external electric field

     Computed dipole along edir(3) : 
        Dipole               -1.1261 Ry au,         -2.8624 Debye
        Dipole field         -0.0007 Ry au, 
 
        Potential amp.        0.0739 Ry
        Total length         54.7057 bohr
 
 
     Adding external electric field

     Computed dipole along edir(3) : 
        Dipole               -1.1261 Ry au,         -2.8624 Debye
        Dipole field         -0.0007 Ry au, 
 
        Potential amp.        0.0739 Ry
        Total length         54.7057 bohr
 

     total cpu time spent up to now is      669.8 secs

     total energy              =   -8078.51382770 Ry
     estimated scf accuracy    <       0.06111402 Ry

     total magnetization       =    97.77 Bohr mag/cell
     absolute magnetization    =    98.87 Bohr mag/cell

     iteration # 45     ecut=    50.00 Ry     beta= 0.10
     Davidson diagonalization with overlap
     ethr =  5.46E-06,  avg # of iterations =  1.5

     negative rho (up, down):  3.704E-03 2.949E-03
 
     Adding external electric field

     Computed dipole along edir(3) : 
        Dipole               -1.1538 Ry au,         -2.9326 Debye
        Dipole field         -0.0007 Ry au, 
 
        Potential amp.        0.0757 Ry
        Total length         54.7057 bohr
 
 
     Adding external electric field

     Computed dipole along edir(3) : 
        Dipole               -1.1538 Ry au,         -2.9326 Debye
        Dipole field         -0.0007 Ry au, 
 
        Potential amp.        0.0757 Ry
        Total length         54.7057 bohr
 

     total cpu time spent up to now is      683.0 secs

     total energy              =   -8078.51439865 Ry
     estimated scf accuracy    <       0.06112226 Ry

     total magnetization       =    97.85 Bohr mag/cell
     absolute magnetization    =    99.01 Bohr mag/cell

     iteration # 46     ecut=    50.00 Ry     beta= 0.10
     Davidson diagonalization with overlap
     ethr =  5.46E-06,  avg # of iterations =  2.0

     negative rho (up, down):  4.205E-03 3.023E-03
 
     Adding external electric field

     Computed dipole along edir(3) : 
        Dipole               -1.1134 Ry au,         -2.8299 Debye
        Dipole field         -0.0007 Ry au, 
 
        Potential amp.        0.0730 Ry
        Total length         54.7057 bohr
 
 
     Adding external electric field

     Computed dipole along edir(3) : 
        Dipole               -1.1134 Ry au,         -2.8299 Debye
        Dipole field         -0.0007 Ry au, 
 
        Potential amp.        0.0730 Ry
        Total length         54.7057 bohr
 

     total cpu time spent up to now is      697.1 secs

     total energy              =   -8078.51464522 Ry
     estimated scf accuracy    <       0.06375035 Ry

     total magnetization       =    97.56 Bohr mag/cell
     absolute magnetization    =    98.71 Bohr mag/cell

     iteration # 47     ecut=    50.00 Ry     beta= 0.10
     Davidson diagonalization with overlap
     ethr =  5.46E-06,  avg # of iterations =  1.5

     negative rho (up, down):  4.631E-03 3.373E-03
 
     Adding external electric field

     Computed dipole along edir(3) : 
        Dipole               -1.0346 Ry au,         -2.6298 Debye
        Dipole field         -0.0006 Ry au, 
 
        Potential amp.        0.0679 Ry
        Total length         54.7057 bohr
 
 
     Adding external electric field

     Computed dipole along edir(3) : 
        Dipole               -1.0346 Ry au,         -2.6298 Debye
        Dipole field         -0.0006 Ry au, 
 
        Potential amp.        0.0679 Ry
        Total length         54.7057 bohr
 

     total cpu time spent up to now is      710.6 secs

     total energy              =   -8078.51194540 Ry
     estimated scf accuracy    <       0.07047998 Ry

     total magnetization       =    97.63 Bohr mag/cell
     absolute magnetization    =    98.78 Bohr mag/cell

     iteration # 48     ecut=    50.00 Ry     beta= 0.10
     Davidson diagonalization with overlap
     ethr =  5.46E-06,  avg # of iterations =  1.5

     negative rho (up, down):  2.802E-03 1.874E-03
 
     Adding external electric field

     Computed dipole along edir(3) : 
        Dipole               -1.2562 Ry au,         -3.1929 Debye
        Dipole field         -0.0008 Ry au, 
 
        Potential amp.        0.0824 Ry
        Total length         54.7057 bohr
 
 
     Adding external electric field

     Computed dipole along edir(3) : 
        Dipole               -1.2562 Ry au,         -3.1929 Debye
        Dipole field         -0.0008 Ry au, 
 
        Potential amp.        0.0824 Ry
        Total length         54.7057 bohr
 

     total cpu time spent up to now is      724.4 secs

     total energy              =   -8078.51257807 Ry
     estimated scf accuracy    <       0.06373769 Ry

     total magnetization       =    97.72 Bohr mag/cell
     absolute magnetization    =    98.88 Bohr mag/cell

     iteration # 49     ecut=    50.00 Ry     beta= 0.10
     Davidson diagonalization with overlap
     ethr =  5.46E-06,  avg # of iterations =  2.0

     negative rho (up, down):  3.780E-03 2.793E-03
 
     Adding external electric field

     Computed dipole along edir(3) : 
        Dipole               -1.0915 Ry au,         -2.7744 Debye
        Dipole field         -0.0007 Ry au, 
 
        Potential amp.        0.0716 Ry
        Total length         54.7057 bohr
 
 
     Adding external electric field

     Computed dipole along edir(3) : 
        Dipole               -1.0915 Ry au,         -2.7744 Debye
        Dipole field         -0.0007 Ry au, 
 
        Potential amp.        0.0716 Ry
        Total length         54.7057 bohr
 

     total cpu time spent up to now is      739.0 secs

     total energy              =   -8078.51436305 Ry
     estimated scf accuracy    <       0.06226954 Ry

     total magnetization       =    97.78 Bohr mag/cell
     absolute magnetization    =    98.91 Bohr mag/cell

     iteration # 50     ecut=    50.00 Ry     beta= 0.10
     Davidson diagonalization with overlap
     ethr =  5.46E-06,  avg # of iterations =  1.5

     negative rho (up, down):  4.644E-03 3.788E-03
 
     Adding external electric field

     Computed dipole along edir(3) : 
        Dipole               -1.1076 Ry au,         -2.8153 Debye
        Dipole field         -0.0007 Ry au, 
 
        Potential amp.        0.0726 Ry
        Total length         54.7057 bohr
 
 
     Adding external electric field

     Computed dipole along edir(3) : 
        Dipole               -1.1076 Ry au,         -2.8153 Debye
        Dipole field         -0.0007 Ry au, 
 
        Potential amp.        0.0726 Ry
        Total length         54.7057 bohr
 

     total cpu time spent up to now is      752.5 secs

     total energy              =   -8078.51324585 Ry
     estimated scf accuracy    <       0.06044152 Ry

     total magnetization       =    97.76 Bohr mag/cell
     absolute magnetization    =    98.91 Bohr mag/cell

     iteration # 51     ecut=    50.00 Ry     beta= 0.10
     Davidson diagonalization with overlap
     ethr =  5.46E-06,  avg # of iterations =  1.0

     negative rho (up, down):  4.612E-03 3.868E-03
 
     Adding external electric field

     Computed dipole along edir(3) : 
        Dipole               -1.0892 Ry au,         -2.7686 Debye
        Dipole field         -0.0007 Ry au, 
 
        Potential amp.        0.0714 Ry
        Total length         54.7057 bohr
 
 
     Adding external electric field

     Computed dipole along edir(3) : 
        Dipole               -1.0892 Ry au,         -2.7686 Debye
        Dipole field         -0.0007 Ry au, 
 
        Potential amp.        0.0714 Ry
        Total length         54.7057 bohr
 

     total cpu time spent up to now is      764.9 secs

     total energy              =   -8078.51398766 Ry
     estimated scf accuracy    <       0.05860961 Ry

     total magnetization       =    97.66 Bohr mag/cell
     absolute magnetization    =    98.72 Bohr mag/cell

     iteration # 52     ecut=    50.00 Ry     beta= 0.10
     Davidson diagonalization with overlap
     ethr =  5.29E-06,  avg # of iterations =  1.0

     negative rho (up, down):  4.751E-03 3.522E-03
 
     Adding external electric field

     Computed dipole along edir(3) : 
        Dipole               -1.0244 Ry au,         -2.6039 Debye
        Dipole field         -0.0006 Ry au, 
 
        Potential amp.        0.0672 Ry
        Total length         54.7057 bohr
 
 
     Adding external electric field

     Computed dipole along edir(3) : 
        Dipole               -1.0244 Ry au,         -2.6039 Debye
        Dipole field         -0.0006 Ry au, 
 
        Potential amp.        0.0672 Ry
        Total length         54.7057 bohr
 

     total cpu time spent up to now is      777.7 secs

     total energy              =   -8078.50731848 Ry
     estimated scf accuracy    <       0.05883918 Ry

     total magnetization       =    97.66 Bohr mag/cell
     absolute magnetization    =    98.70 Bohr mag/cell

     iteration # 53     ecut=    50.00 Ry     beta= 0.10
     Davidson diagonalization with overlap
     ethr =  5.29E-06,  avg # of iterations =  1.5

     negative rho (up, down):  4.730E-03 3.523E-03
 
     Adding external electric field

     Computed dipole along edir(3) : 
        Dipole               -1.0241 Ry au,         -2.6031 Debye
        Dipole field         -0.0006 Ry au, 
 
        Potential amp.        0.0672 Ry
        Total length         54.7057 bohr
 
 
     Adding external electric field

     Computed dipole along edir(3) : 
        Dipole               -1.0241 Ry au,         -2.6031 Debye
        Dipole field         -0.0006 Ry au, 
 
        Potential amp.        0.0672 Ry
        Total length         54.7057 bohr
 

     total cpu time spent up to now is      791.7 secs

     total energy              =   -8078.50929875 Ry
     estimated scf accuracy    <       0.05815629 Ry

     total magnetization       =    97.73 Bohr mag/cell
     absolute magnetization    =    98.78 Bohr mag/cell

     iteration # 54     ecut=    50.00 Ry     beta= 0.10
     Davidson diagonalization with overlap
     ethr =  5.25E-06,  avg # of iterations =  1.0

     negative rho (up, down):  5.065E-03 3.928E-03
 
     Adding external electric field

     Computed dipole along edir(3) : 
        Dipole               -0.9945 Ry au,         -2.5277 Debye
        Dipole field         -0.0006 Ry au, 
 
        Potential amp.        0.0652 Ry
        Total length         54.7057 bohr
 
 
     Adding external electric field

     Computed dipole along edir(3) : 
        Dipole               -0.9945 Ry au,         -2.5277 Debye
        Dipole field         -0.0006 Ry au, 
 
        Potential amp.        0.0652 Ry
        Total length         54.7057 bohr
 

     total cpu time spent up to now is      804.6 secs

     total energy              =   -8078.50886701 Ry
     estimated scf accuracy    <       0.05480875 Ry

     total magnetization       =    97.76 Bohr mag/cell
     absolute magnetization    =    98.85 Bohr mag/cell

     iteration # 55     ecut=    50.00 Ry     beta= 0.10
     Davidson diagonalization with overlap
     ethr =  4.95E-06,  avg # of iterations =  1.5

     negative rho (up, down):  4.452E-03 3.365E-03
 
     Adding external electric field

     Computed dipole along edir(3) : 
        Dipole               -1.0529 Ry au,         -2.6763 Debye
        Dipole field         -0.0006 Ry au, 
 
        Potential amp.        0.0691 Ry
        Total length         54.7057 bohr
 
 
     Adding external electric field

     Computed dipole along edir(3) : 
        Dipole               -1.0529 Ry au,         -2.6763 Debye
        Dipole field         -0.0006 Ry au, 
 
        Potential amp.        0.0691 Ry
        Total length         54.7057 bohr
 

     total cpu time spent up to now is      818.6 secs

     total energy              =   -8078.51086200 Ry
     estimated scf accuracy    <       0.05730871 Ry

     total magnetization       =    97.72 Bohr mag/cell
     absolute magnetization    =    98.82 Bohr mag/cell

     iteration # 56     ecut=    50.00 Ry     beta= 0.10
     Davidson diagonalization with overlap
     ethr =  4.95E-06,  avg # of iterations =  1.0

     negative rho (up, down):  3.421E-03 2.402E-03
 
     Adding external electric field

     Computed dipole along edir(3) : 
        Dipole               -1.0716 Ry au,         -2.7236 Debye
        Dipole field         -0.0006 Ry au, 
 
        Potential amp.        0.0703 Ry
        Total length         54.7057 bohr
 
 
     Adding external electric field

     Computed dipole along edir(3) : 
        Dipole               -1.0716 Ry au,         -2.7236 Debye
        Dipole field         -0.0006 Ry au, 
 
        Potential amp.        0.0703 Ry
        Total length         54.7057 bohr
 

     total cpu time spent up to now is      831.8 secs

     total energy              =   -8078.51258959 Ry
     estimated scf accuracy    <       0.05473897 Ry

     total magnetization       =    97.74 Bohr mag/cell
     absolute magnetization    =    98.85 Bohr mag/cell

     iteration # 57     ecut=    50.00 Ry     beta= 0.10
     Davidson diagonalization with overlap
     ethr =  4.94E-06,  avg # of iterations =  1.5

     negative rho (up, down):  5.738E-03 4.405E-03
 
     Adding external electric field

     Computed dipole along edir(3) : 
        Dipole               -0.9660 Ry au,         -2.4553 Debye
        Dipole field         -0.0006 Ry au, 
 
        Potential amp.        0.0634 Ry
        Total length         54.7057 bohr
 
 
     Adding external electric field

     Computed dipole along edir(3) : 
        Dipole               -0.9660 Ry au,         -2.4553 Debye
        Dipole field         -0.0006 Ry au, 
 
        Potential amp.        0.0634 Ry
        Total length         54.7057 bohr
 

     total cpu time spent up to now is      846.0 secs

     total energy              =   -8078.51110494 Ry
     estimated scf accuracy    <       0.05703099 Ry

     total magnetization       =    97.75 Bohr mag/cell
     absolute magnetization    =    98.89 Bohr mag/cell

     iteration # 58     ecut=    50.00 Ry     beta= 0.10
     Davidson diagonalization with overlap
     ethr =  4.94E-06,  avg # of iterations =  2.0

     negative rho (up, down):  2.774E-03 1.832E-03
 
[...]
     atom   99 type  4   force =     0.00099574    0.00165905   -0.00154154
     atom  100 type  4   force =     0.00055716    0.00036734    0.00035773
     atom  101 type  4   force =    -0.00039890   -0.00009852    0.00048918
     atom  102 type  4   force =     0.00093247   -0.00026365    0.00041445
     atom  103 type  4   force =     0.00083211   -0.00132595   -0.00029118
     atom  104 type  4   force =    -0.00041992   -0.00117791    0.00029276
     atom  105 type  1   force =     0.00000721    0.00013199   -0.00000761
     atom  106 type  1   force =    -0.00010297   -0.00055031   -0.00014862
     atom  107 type  2   force =     0.00027168   -0.00013356    0.00055559
     atom  108 type  1   force =    -0.00019917   -0.00007329    0.00041263
     atom  109 type  1   force =     0.00058695   -0.00013492   -0.00036333
     atom  110 type  1   force =     0.00046281   -0.00010784    0.00062853
     atom  111 type  1   force =    -0.00032179    0.00016723    0.00052155
     atom  112 type  2   force =     0.00002596   -0.00054225    0.00040810
     atom  113 type  2   force =    -0.00014352    0.00015856    0.00002081
     atom  114 type  1   force =     0.00001252   -0.00043934    0.00092585
     atom  115 type  1   force =    -0.00050999    0.00066401   -0.00024563
     atom  116 type  1   force =    -0.00046281   -0.00062911    0.00042345
     atom  117 type  3   force =    -0.00012756   -0.00046896    0.00009530
     atom  118 type  3   force =    -0.00051206   -0.00000603    0.00001713
     atom  119 type  3   force =     0.00012667    0.00025566   -0.00008155
     atom  120 type  3   force =     0.00023931    0.00012698   -0.00015383
     atom  121 type  4   force =    -0.00002418   -0.00001438   -0.00016326
     atom  122 type  4   force =    -0.00033522   -0.00017530    0.00013942
     atom  123 type  4   force =     0.00031841   -0.00006128    0.00018353
     atom  124 type  4   force =     0.00020825   -0.00041612    0.00006032
     atom  125 type  4   force =     0.00056725    0.00008275   -0.00001545
     atom  126 type  4   force =     0.00014588   -0.00021020    0.00041310
     atom  127 type  4   force =    -0.00000214   -0.00010735   -0.00012769
     atom  128 type  4   force =    -0.00026597    0.00005083   -0.00007103
     atom  129 type  4   force =    -0.00004164    0.00036210   -0.00009760
     atom  130 type  4   force =     0.00047846    0.00010554    0.00030933
     atom  131 type  4   force =     0.00022765    0.00016623   -0.00024410
     atom  132 type  4   force =     0.00041406   -0.00025423   -0.00006958
     atom  133 type  4   force =    -0.00017467   -0.00035861    0.00028094
     atom  134 type  4   force =    -0.00004082   -0.00011459    0.00026476
     atom  135 type  4   force =    -0.00021115   -0.00035592   -0.00027206
     atom  136 type  4   force =     0.00048344   -0.00004509    0.00020472
     atom  137 type  3   force =    -0.00005853   -0.00034971   -0.00011276
     atom  138 type  3   force =     0.00010906   -0.00007505   -0.00000947
     atom  139 type  3   force =     0.00015645    0.00003785    0.00000247
     atom  140 type  3   force =     0.00012982   -0.00011175   -0.00002250
     atom  141 type  4   force =     0.00059030    0.00051636   -0.00065783
     atom  142 type  4   force =     0.00004547    0.00007211   -0.00002467
     atom  143 type  4   force =     0.00028693   -0.00012127   -0.00000703
     atom  144 type  4   force =    -0.00022310    0.00067657   -0.00047552
     atom  145 type  4   force =     0.00019736    0.00038612    0.00086083
     atom  146 type  4   force =     0.00004154   -0.00006957    0.00003303
     atom  147 type  4   force =    -0.00038891    0.00021028   -0.00013419
     atom  148 type  4   force =     0.00015881    0.00011602   -0.00011776
     atom  149 type  4   force =    -0.00016163   -0.00002853   -0.00016756
     atom  150 type  4   force =    -0.00018657    0.00006654   -0.00009634
     atom  151 type  4   force =     0.00057607   -0.00021538    0.00017936
     atom  152 type  4   force =     0.00010154   -0.00025554    0.00027181
     atom  153 type  4   force =     0.00011455    0.00040868    0.00008323
     atom  154 type  4   force =    -0.00014510   -0.00029268    0.00023021
     atom  155 type  4   force =     0.00014485   -0.00034632    0.00036445
     atom  156 type  4   force =    -0.00002724    0.00053746   -0.00004895
     atom  157 type  4   force =    -0.00042327    0.00019779    0.00039317
     atom  158 type  5   force =    -0.00019493    0.00067879    0.00054276

     Total force =     0.003906     Total SCF correction =     0.000097
     Energy error            =      3.0E-05 Ry
     Gradient error          =      9.3E-04 Ry/Bohr

     bfgs converged in  22 scf cycles and  21 bfgs steps
     (criteria: energy <  1.0E-04 Ry, force <  1.0E-03 Ry/Bohr)

     End of BFGS Geometry Optimization

     Final energy             =   -8078.5615432121 Ry

     File ./tmp/pwscf.bfgs deleted, as requested
Begin final coordinates

ATOMIC_POSITIONS (angstrom)
Ni               2.3129220139        7.8972772973        1.1497545064    0   0   0
Ni               4.6490610887        7.3047442111        4.1936894858    0   0   0
Mn               0.1067761731        2.7576721292        1.0963917518    0   0   0
Ni               2.4432273613        2.1432234008        4.1735462030    0   0   0
Ni               9.4662145937       10.1142894701        2.6789495920    0   0   0
Ni               2.3789698370        5.0440683314        2.6674809569    0   0   0
Ni               6.9920813749        7.8878789031        1.1579062906    0   0   0
Mn               9.3406898946        7.2753604651        4.2439743133    0   0   0
Mn               4.8308954384        2.7819693590        1.0948616820    0   0   0
Ni               7.1431070376        2.1387615578        4.1784309036    0   0   0
Ni               4.7326084235       10.1203689183        2.6666558403    0   0   0
Ni               7.0827571848        5.0417436272        2.6777908576    0   0   0
P                2.0291231354        9.1516784506        4.1405151098    0   0   0
P                4.3528117572        6.0859892383        1.1954218952    0   0   0
P                2.7239152584        0.8629939071        1.1958169163    0   0   0
P                0.3863836581        3.9885723945        4.1143414694    0   0   0
O                1.3045687173        8.5101215718        2.8561821687    0   0   0
O                3.6065187097        6.7206402390        2.4795955832    0   0   0
O                3.4373384109        1.5196724811        2.4794137179    0   0   0
O                1.1408481055        3.3498458294        2.8542917983    0   0   0
O                1.4664322300        8.3114829540        5.3143601271    0   0   0
O                3.8005527481        6.9136385589        0.0100000000    0   0   0
O                3.2639580632        1.7231876877        0.0248805985    0   0   0
O                0.9608270792        3.1601630306        5.2857321047    0   0   0
O                0.9164761464        5.4518725145        4.1063056435    0   0   0
O                3.3388968874        9.6399059777        1.2004979284    0   0   0
O                3.5692814975        3.9418697628        4.0255988330    0   0   0
O                1.1867656938        0.9013490877        1.2963392800    0   0   0
O                1.1640886725        6.1242569315        1.3086390258    0   0   0
O                3.8059495922        4.6272192177        1.2184590528    0   0   0
O                1.4275620920        0.3831464040        4.1285299573    0   0   0
O                3.5678946412        9.0925343002        4.0512308031    0   0   0
P                6.6933239351        9.1471654079        4.1517445120    0   0   0
P                9.0725636199        6.0555136571        1.2210574959    0   0   0
P                7.4405864459        0.8500557470        1.2037018964    0   0   0
P                5.1065078778        4.0365506749        4.1233117458    0   0   0
O                5.9741939775        8.4816003245        2.8688888472    0   0   0
O                8.3228984798        6.7000803377        2.4819585481    0   0   0
O                8.1541738250        1.4995408786        2.4908163165    0   0   0
O                5.8598774446        3.3806679847        2.8665919296    0   0   0
O                6.1400698649        8.2878954395        5.3197941026    0   0   0
O                8.4934485675        6.8810405934        0.0514189482    0   0   0
O                7.9815748019        1.7063608711        0.0289643815    0   0   0
O                5.6903095574        3.2051642990        5.2910339913    0   0   0
O                5.6309097860        5.5042271625        4.1061970179    0   0   0
O                8.0445535812        9.6215199712        1.2108195277    0   0   0
O                8.2945500610        3.9196666124        4.0255568094    0   0   0
O                5.9057721073        0.9042847376        1.3008190970    0   0   0
O                5.8930128638        6.1234667375        1.3022125571    0   0   0
O                8.5386786436        4.5946304697        1.2351206656    0   0   0
O                6.1018811736        0.3803315516        4.1360884007    0   0   0
O                8.2310575070        9.1028906560        4.0488489665    0   0   0
Ni               2.2865932276        7.7185113740        7.0776541678    0   0   0
Ni               4.6227323024        7.1259782878       10.1215891471    0   0   0
Mn               0.0804473868        2.5789062059        7.0242914132    0   0   0
Ni               2.4168985750        1.9644574775       10.1014458644    0   0   0
Ni               9.4398858074        9.9355235468        8.6068492533    0   0   0
Ni               2.3526410507        4.8653024081        8.5953806183    0   0   0
Ni               6.9657525885        7.7091129798        7.0858059520    0   0   0
Mn               9.3143611083        7.0965945418       10.1718739746    0   0   0
Mn               4.8045666521        2.6032034357        7.0227613433    0   0   0
Ni               7.1167782512        1.9599956345       10.1063305650    0   0   0
Ni               4.7062796372        9.9416029950        8.5945555017    0   0   0
Ni               7.0564283985        4.8629777039        8.6056905189    0   0   0
P                2.0027943491        8.9729125273       10.0684147711    0   0   0
P                4.3264829709        5.9072233150        7.1233215566    0   0   0
P                2.6975864721        0.6842279838        7.1237165776    0   0   0
P                0.3600548718        3.8098064712       10.0422411307    0   0   0
O                1.2782399310        8.3313556485        8.7840818301    0   0   0
O                3.5801899233        6.5418743157        8.4074952445    0   0   0
O                3.4110096246        1.3409065578        8.4073133792    0   0   0
O                1.1145193192        3.1710799061        8.7821914596    0   0   0
O                1.4401034437        8.1327170307       11.2422597885    0   0   0
O                3.7742239617        6.7348726356        5.9378996613    0   0   0
O                3.2376292769        1.5444217644        5.9527802599    0   0   0
O                0.9344982929        2.9813971073       11.2136317660    0   0   0
O                0.8901473601        5.2731065912       10.0342053048    0   0   0
O                3.3125681011        9.4611400544        7.1283975898    0   0   0
O                3.5429527111        3.7631038396        9.9534984944    0   0   0
O                1.1604369075        0.7225831644        7.2242389413    0   0   0
O                1.1377598861        5.9454910082        7.2365386871    0   0   0
O                3.7796208059        4.4484532944        7.1463587142    0   0   0
O                1.4012333057        0.2043804807       10.0564296187    0   0   0
O                3.5415658549        8.9137683769        9.9791304644    0   0   0
P                6.6669951488        8.9683994847       10.0796441734    0   0   0
P                9.0462348336        5.8767477338        7.1489571572    0   0   0
P                7.4142576596        0.6712898237        7.1316015577    0   0   0
P                5.0801790915        3.8577847517       10.0512114071    0   0   0
O                5.9478651911        8.3028344013        8.7967885085    0   0   0
O                8.2965696935        6.5213144144        8.4098582094    0   0   0
O                8.1278450387        1.3207749553        8.4187159778    0   0   0
O                5.8335486583        3.2019020614        8.7944915909    0   0   0
O                6.1137410786        8.1091295162       11.2476937640    0   0   0
O                8.4671197812        6.7022746701        5.9793186095    0   0   0
O                7.9552460155        1.5275949478        5.9568640428    0   0   0
O                5.6639807711        3.0263983758       11.2189336526    0   0   0
O                5.6045809997        5.3254612392       10.0340966792    0   0   0
O                8.0182247949        9.4427540480        7.1387191890    0   0   0
O                8.2682212747        3.7409006891        9.9534564707    0   0   0
O                5.8794433210        0.7255188143        7.2287187584    0   0   0
O                5.8666840775        5.9447008142        7.2301122184    0   0   0
O                8.5123498573        4.4158645464        7.1630203269    0   0   0
O                6.0755523873        0.2015656283       10.0639880620    0   0   0
O                8.2047287207        8.9241247327        9.9767486279    0   0   0
Ni               2.2787542634        7.5622193486       13.0013393518
Ni               4.7112092247        6.9493494259       15.8662708218
Mn               0.0549633500        2.4371802334       12.9888145112
Ni               2.3099378436        1.8580103540       15.8978587387
Ni               9.4219923048        9.7995643697       14.5674517717
Ni               2.3072580758        4.7125623975       14.5605110292
Ni               6.9495287852        7.5478836011       13.0109756169
Mn               9.4058570491        6.9670087925       16.0429312718
Mn               4.8031691737        2.4544429950       12.9814544539
Ni               7.0916709574        1.7731658276       16.2093659338
Ni               4.7235668100        9.7823068770       14.5192905502
Ni               7.0116708555        4.6684437907       14.5937314408
P                2.0165842298        8.7914572169       15.9934058851
P                4.3007447856        5.7047768649       13.0301889375
P                2.6896760408        0.5386323791       13.0401463738
P                0.3072547359        3.6508419138       16.0884464923
O                1.2751745031        8.2255116412       14.6495386845
O                3.5561336298        6.3502200763       14.3121823583
O                3.4069569452        1.1906055152       14.3195090067
O                1.0323721323        3.0996733147       14.7301863910
O                1.4282639289        7.8789127293       17.0801820485
O                3.7456046226        6.5439304402       11.8515795588
O                3.2358026943        1.3951043790       11.8673616841
O                0.9074099025        2.7540818603       17.1688544536
O                0.8304955201        5.1363212223       16.0894230188
O                3.2956047174        9.3140999841       13.0392432463
O                3.4688659614        3.5885396807       15.8837311309
O                1.1519089543        0.6117010446       13.1645529257
O                1.1143526216        5.7747967933       13.2000262731
O                3.7327959854        4.2533590870       13.0509258497
O                1.4681933413        0.0435020762       16.0319849018
O                3.5571493680        8.7035595224       15.8820521624
P                6.6768057834        8.7305168500       16.0195040659
P                9.0231349979        5.6973677165       13.1111336552
P                7.4068630106        0.5355703847       13.0600379299
P                5.0203263935        3.6280384513       16.0309664269
O                5.9533930421        8.1542048370       14.6441554156
O                8.2963452311        6.3114349881       14.4042503504
O                8.1098041256        1.1969123143       14.3311444893
O                5.7643196784        3.0647982156       14.7036687362
O                6.1380709282        7.7744802655       17.0776386710
O                8.4577132077        6.5485253498       11.9509191630
O                7.9527335840        1.3765589400       11.8696831082
O                5.5579372589        2.7247459874       17.1359433239
O                5.5343219226        5.1170104472       16.0300395701
O                7.9956403289        9.3009797951       13.0697397298
O                8.2113798304        3.6188769365       15.9631571423
O                5.8652394416        0.6010082315       13.1400212365
O                5.8377693502        5.7452297709       13.1590765042
O                8.4782272661        4.2414778196       13.0948366895
O                6.0905420363       -0.0348376945       15.9904203588
O                8.2280516884        8.6683080248       15.8805052865
O                8.2199188349        0.9454215281       17.3666220031
H                9.0047941520        1.4995271822       17.6043298813
End final coordinates



     Writing all to output data dir ./tmp/pwscf.save/
 
     init_run     :      7.86s CPU      8.48s WALL (       1 calls)
     electrons    :   7726.91s CPU   8119.25s WALL (      22 calls)
     update_pot   :      8.89s CPU     10.71s WALL (      21 calls)
     forces       :    106.17s CPU    113.51s WALL (      22 calls)
     force_london :      2.26s CPU      2.27s WALL (      22 calls)

     Called by init_run:
     wfcinit      :      4.56s CPU      4.69s WALL (       1 calls)
     potinit      :      0.66s CPU      0.89s WALL (       1 calls)
     hinit0       :      1.42s CPU      1.51s WALL (       1 calls)

     Called by electrons:
     c_bands      :   5994.00s CPU   6158.41s WALL (     501 calls)
     sum_band     :   1039.42s CPU   1122.41s WALL (     501 calls)
     v_of_rho     :    190.31s CPU    251.36s WALL (     516 calls)
     newd         :    356.89s CPU    424.08s WALL (     516 calls)
     mix_rho      :    149.76s CPU    151.00s WALL (     501 calls)
     energy_londo :      2.04s CPU      2.04s WALL (      22 calls)

     Called by c_bands:
     init_us_2    :     13.79s CPU     14.14s WALL (    2050 calls)
     init_us_2:cp :     13.77s CPU     14.13s WALL (    2050 calls)
     regterg      :   5865.18s CPU   6027.79s WALL (    1004 calls)

     Called by *egterg:
     rdiaghg      :   1422.78s CPU   1499.54s WALL (    3596 calls)
     h_psi        :   2315.96s CPU   2352.54s WALL (    3654 calls)
     s_psi        :    366.27s CPU    366.51s WALL (    3654 calls)
     g_psi        :      2.85s CPU      2.87s WALL (    2648 calls)

     Called by h_psi:
     h_psi:calbec :    565.66s CPU    593.71s WALL (    3654 calls)
     vloc_psi     :   1379.29s CPU   1383.83s WALL (    3654 calls)
     add_vuspsi   :    366.85s CPU    370.74s WALL (    3654 calls)

     General routines
     calbec       :    871.57s CPU    915.44s WALL (    4832 calls)
     fft          :    283.60s CPU    348.58s WALL (    9602 calls)
     ffts         :     88.91s CPU     89.10s WALL (   59589 calls)
     fftw         :   1581.72s CPU   1586.70s WALL ( 1726774 calls)
     interpolate  :     10.84s CPU     11.22s WALL (    1032 calls)
 
     Parallel routines
 
     PWSCF        :      2h11m CPU      2h18m WALL

 
   This run was terminated on:  13:12:27  11Nov2025            

=------------------------------------------------------------------------------=
   JOB DONE.
=------------------------------------------------------------------------------=
