
     Program PWSCF v.7.2 starts on 19Nov2025 at 19:54:31 

     This program is part of the open-source Quantum ESPRESSO suite
     for quantum simulation of materials; please cite
         "P. Giannozzi et al., J. Phys.:Condens. Matter 21 395502 (2009);
         "P. Giannozzi et al., J. Phys.:Condens. Matter 29 465901 (2017);
         "P. Giannozzi et al., J. Chem. Phys. 152 154105 (2020);
          URL http://www.quantum-espresso.org", 
     in publications or presentations arising from this work. More details at
     http://www.quantum-espresso.org/quote

     Parallel version (MPI), running on    64 processors

     MPI processes distributed on     4 nodes
     384830 MiB available memory on the printing compute node when the environment starts
 
     Reading input from PWINPUT_atm157_yp

     Current dimensions of program PWSCF are:
     Max number of different atomic species (ntypx) = 10
     Max number of k-points (npk) =  40000
     Max angular momentum in pseudopotentials (lmaxx) =  4
     Presently no symmetry can be used with electric field

     file Ni.pbe-n-rrkjus_psl.1.0.0.UPF: wavefunction(s)  3D renormalized
     file Mn.pbe-spn-rrkjus_psl.0.3.1.UPF: wavefunction(s)  3D renormalized
     file O.pbe-rrkjus.UPF: wavefunction(s)  2S renormalized
     file H.pbe-rrkjus.UPF: wavefunction(s)  1S renormalized

     gamma-point specific algorithms are used
 
     R & G space division:  proc/nbgrp/npool/nimage =      64
     Subspace diagonalization in iterative solution of the eigenvalue problem:
     one sub-group per band group will be used
     custom distributed-memory algorithm (size of sub-group:  6*  6 procs)

 
     Parallelization info
     --------------------
     sticks:   dense  smooth     PW     G-vecs:    dense   smooth      PW
     Min         208      82     20                59912    15118    1876
     Max         210      84     22                59974    15196    1926
     Sum       13399    5355   1345              3836275   970529  121367
 
     Using Slab Decomposition
 


     bravais-lattice index     =            0
     lattice parameter (alat)  =      17.7004  a.u.
     unit-cell volume          =   20319.7251 (a.u.)^3
     number of atoms/cell      =          158
     number of atomic types    =            5
     number of electrons       =      1078.00
     number of Kohn-Sham states=          647
     kinetic-energy cutoff     =      50.0000  Ry
     charge density cutoff     =     500.0000  Ry
     scf convergence threshold =      1.0E-06
     mixing beta               =       0.1000
     number of iterations used =            8  local-TF  mixing
     Exchange-correlation=  SLA  PW   PBE  PBE
                           (   1   4   3   4   0   0   0)

     celldm(1)=  17.700384  celldm(2)=   0.000000  celldm(3)=   0.000000
     celldm(4)=   0.000000  celldm(5)=   0.000000  celldm(6)=   0.000000

     crystal axes: (cart. coord. in units of alat)
               a(1) = (   1.000000   0.000000   0.000000 )  
               a(2) = (   0.000000   1.075730   0.000000 )  
               a(3) = (   0.000000   0.000000   3.406172 )  

     reciprocal axes: (cart. coord. in units 2 pi/alat)
               b(1) = (  1.000000  0.000000  0.000000 )  
               b(2) = (  0.000000  0.929602  0.000000 )  
               b(3) = (  0.000000  0.000000  0.293585 )  


     PseudoPot. # 1 for Ni read from file:
     ~/PSEUDO/Ni.pbe-n-rrkjus_psl.1.0.0.UPF
     MD5 check sum: Not computed, couldn't open file
     Pseudo is Ultrasoft + core correction, Zval = 10.0
     Generated using "atomic" code by A. Dal Corso  v.5.1.2
     Using radial grid of 1195 points,  6 beta functions with: 
                l(1) =   0
                l(2) =   0
                l(3) =   1
                l(4) =   1
                l(5) =   2
                l(6) =   2
     Q(r) pseudized with 0 coefficients 


     PseudoPot. # 2 for Mn read from file:
     ~/PSEUDO/Mn.pbe-spn-rrkjus_psl.0.3.1.UPF
     MD5 check sum: Not computed, couldn't open file
     Pseudo is Ultrasoft + core correction, Zval = 15.0
     Generated using &quot;atomic&quot; code by A. Dal Corso  v.6.2.2
     Using radial grid of 1187 points,  6 beta functions with: 
                l(1) =   0
                l(2) =   0
                l(3) =   1
                l(4) =   1
                l(5) =   2
                l(6) =   2
     Q(r) pseudized with 0 coefficients 


     PseudoPot. # 3 for P  read from file:
     ~/PSEUDO/P.pbe-n-rrkjus_psl.1.0.0.UPF
     MD5 check sum: Not computed, couldn't open file
     Pseudo is Ultrasoft + core correction, Zval =  5.0
     Generated using "atomic" code by A. Dal Corso  v.5.1
     Using radial grid of 1147 points,  6 beta functions with: 
                l(1) =   0
                l(2) =   0
                l(3) =   1
                l(4) =   1
                l(5) =   2
                l(6) =   2
     Q(r) pseudized with 0 coefficients 


     PseudoPot. # 4 for O  read from file:
     ~/PSEUDO/O.pbe-rrkjus.UPF
     MD5 check sum: Not computed, couldn't open file
     Pseudo is Ultrasoft, Zval =  6.0
     Generated by new atomic code, or converted to UPF format
     Using radial grid of 1269 points,  4 beta functions with: 
                l(1) =   0
                l(2) =   0
                l(3) =   1
                l(4) =   1
     Q(r) pseudized with 0 coefficients 


     PseudoPot. # 5 for H  read from file:
     ~/PSEUDO/H.pbe-rrkjus.UPF
     MD5 check sum: Not computed, couldn't open file
     Pseudo is Ultrasoft, Zval =  1.0
     Generated by new atomic code, or converted to UPF format
     Using radial grid of 1061 points,  2 beta functions with: 
                l(1) =   0
                l(2) =   0
     Q(r) pseudized with 0 coefficients 


     atomic species   valence    mass     pseudopotential
     Ni               10.00    58.69300     Ni( 1.00)
     Mn               15.00    54.93800     Mn( 1.00)
     P                 5.00    30.97300     P ( 1.00)
     O                 6.00    15.99900     O ( 1.00)
     H                 1.00     1.00790     H ( 1.00)

     Starting magnetic structure 
     atomic species   magnetization
     Ni              1.000
     Mn              1.000
     P               1.000
     O               1.000
     H               0.000

     No symmetry found



   Cartesian axes

     site n.     atom                  positions (alat units)
         1        Mn     tau(   1) = (   0.2493609   0.8365715   1.6923971  )
         2        Ni     tau(   2) = (   0.4971079   0.7736156   1.3698727  )
         3        Ni     tau(   3) = (   0.0112576   0.3072794   1.7087583  )
         4        Ni     tau(   4) = (   0.2596239   0.2390995   1.3686499  )
         5        Ni     tau(   5) = (   0.9975634   1.0800649   1.5354411  )
         6        Ni     tau(   6) = (   0.2537367   0.5354741   1.5344197  )
         7        Ni     tau(   7) = (   0.7537322   0.8383734   1.6753574  )
         8        Ni     tau(   8) = (   0.9914315   0.7746670   1.3720254  )
         9        Ni     tau(   9) = (   0.5035551   0.2960273   1.6759017  )
        10        Ni     tau(  10) = (   0.7601897   0.2370242   1.3663370  )
        11        Ni     tau(  11) = (   0.4997103   1.0755509   1.5321392  )
        12        Ni     tau(  12) = (   0.7557358   0.5365151   1.5309164  )
        13        P      tau(  13) = (   0.2102583   0.9729017   1.3795895  )
        14        P      tau(  14) = (   0.4681633   0.6439249   1.6893391  )
        15        P      tau(  15) = (   0.2886425   0.1100006   1.6952171  )
        16        P      tau(  16) = (   0.0425762   0.4312003   1.3742181  )
        17        O      tau(  17) = (   0.1340839   0.9024468   1.5167299  )
        18        O      tau(  18) = (   0.3903743   0.7050921   1.5459491  )
        19        O      tau(  19) = (   0.3645582   0.1700754   1.5496001  )
        20        O      tau(  20) = (   0.1194984   0.3599186   1.5100144  )
        21        O      tau(  21) = (   0.1474941   0.8824110   1.2564130  )
        22        O      tau(  22) = (   0.4040727   0.7408321   1.8053395  )
        23        O      tau(  23) = (   0.3535892   0.2030579   1.8119064  )
        24        O      tau(  24) = (   0.1029989   0.3444961   1.2466039  )
        25        O      tau(  25) = (   0.1016325   0.5871265   1.3783445  )
        26        O      tau(  26) = (   0.3444464   1.0271569   1.6949549  )
        27        O      tau(  27) = (   0.3797210   0.4257846   1.3839545  )
        28        O      tau(  28) = (   0.1239987   0.1120195   1.6852008  )
        29        O      tau(  29) = (   0.1277082   0.6548798   1.6784119  )
        30        O      tau(  30) = (   0.4126374   0.4868061   1.6917006  )
        31        O      tau(  31) = (   0.1512622   0.0516880   1.3795899  )
        32        O      tau(  32) = (   0.3740488   0.9633360   1.3872959  )
        33        P      tau(  33) = (   0.7102783   0.9720020   1.3712879  )
        34        P      tau(  34) = (   0.9622035   0.6496791   1.6938416  )
        35        P      tau(  35) = (   0.7879411   0.1129842   1.6874765  )
        36        P      tau(  36) = (   0.5437247   0.4318676   1.3705585  )
        37        O      tau(  37) = (   0.6320214   0.9007554   1.5076114  )
        38        O      tau(  38) = (   0.8856843   0.7114266   1.5472319  )
        39        O      tau(  39) = (   0.8642929   0.1717044   1.5437885  )
        40        O      tau(  40) = (   0.6216900   0.3608055   1.5064456  )
        41        O      tau(  41) = (   0.6495853   0.8828646   1.2457269  )
        42        O      tau(  42) = (   0.9055096   0.7504361   1.8079161  )
        43        O      tau(  43) = (   0.8450882   0.2103025   1.8047962  )
        44        O      tau(  44) = (   0.6043176   0.3439644   1.2442897  )
        45        O      tau(  45) = (   0.6044957   0.5867090   1.3746570  )
        46        O      tau(  46) = (   0.8440334   1.0304596   1.6909963  )
        47        O      tau(  47) = (   0.8783670   0.4261403   1.3828404  )
        48        O      tau(  48) = (   0.6221236   0.1136819   1.6769158  )
        49        O      tau(  49) = (   0.6324242   0.6520846   1.6793976  )
        50        O      tau(  50) = (   0.9031210   0.4942715   1.6888231  )
        51        O      tau(  51) = (   0.6491651   0.0505825   1.3737527  )
        52        O      tau(  52) = (   0.8740350   0.9654835   1.3844354  )
        53        Mn     tau(  53) = (   0.2404744   0.8246335   1.0701417  )
        54        Ni     tau(  54) = (   0.4968126   0.7601755   0.7454373  )
        55        Ni     tau(  55) = (   0.0066150   0.2811828   1.0628866  )
        56        Ni     tau(  56) = (   0.2585722   0.2230943   0.7421070  )
        57        Ni     tau(  57) = (   0.9987350   1.0571496   0.9014992  )
        58        Ni     tau(  58) = (   0.2517397   0.5205596   0.9040596  )
        59        Ni     tau(  59) = (   0.7451645   0.8212628   1.0648168  )
        60        Ni     tau(  60) = (   0.9939181   0.7613889   0.7462324  )
        61        Ni     tau(  61) = (   0.5111533   0.2799173   1.0618053  )
        62        Ni     tau(  62) = (   0.7606326   0.2194352   0.7418547  )
        63        Ni     tau(  63) = (   0.5024065   1.0563218   0.8999416  )
        64        Ni     tau(  64) = (   0.7529977   0.5192985   0.9024691  )
        65        P      tau(  65) = (   0.2092944   0.9606182   0.7524883  )
        66        P      tau(  66) = (   0.4655727   0.6234620   1.0595283  )
        67        P      tau(  67) = (   0.2910699   0.0902448   1.0573821  )
        68        P      tau(  68) = (   0.0396216   0.4163480   0.7471080  )
        69        O      tau(  69) = (   0.1294378   0.8888345   0.8859300  )
        70        O      tau(  70) = (   0.3874505   0.6929859   0.9232915  )
        71        O      tau(  71) = (   0.3702540   0.1589885   0.9209891  )
        72        O      tau(  72) = (   0.1184398   0.3458043   0.8831565  )
        73        O      tau(  73) = (   0.1451572   0.8725966   0.6282341  )
        74        O      tau(  74) = (   0.4048762   0.7120670   1.1852426  )
        75        O      tau(  75) = (   0.3523506   0.1775664   1.1834175  )
        76        O      tau(  76) = (   0.1017610   0.3285569   0.6213347  )
        77        O      tau(  77) = (   0.0975396   0.5724373   0.7511996  )
        78        O      tau(  78) = (   0.3483552   1.0190030   1.0599597  )
        79        O      tau(  79) = (   0.3784305   0.4100203   0.7560991  )
        80        O      tau(  80) = (   0.1268237   0.0943029   1.0477175  )
        81        O      tau(  81) = (   0.1212267   0.6299255   1.0507023  )
        82        O      tau(  82) = (   0.4053315   0.4684472   1.0569297  )
        83        O      tau(  83) = (   0.1536621   0.0322003   0.7496532  )
        84        O      tau(  84) = (   0.3732349   0.9506802   0.7613277  )
        85        P      tau(  85) = (   0.7119823   0.9571059   0.7496908  )
        86        P      tau(  86) = (   0.9615208   0.6238477   1.0606987  )
        87        P      tau(  87) = (   0.7927710   0.0845145   1.0577754  )
        88        P      tau(  88) = (   0.5426404   0.4144760   0.7459181  )
        89        O      tau(  89) = (   0.6326879   0.8866267   0.8856678  )
        90        O      tau(  90) = (   0.8842163   0.6958291   0.9244764  )
        91        O      tau(  91) = (   0.8716178   0.1552836   0.9216415  )
        92        O      tau(  92) = (   0.6212010   0.3433751   0.8818834  )
        93        O      tau(  93) = (   0.6507714   0.8687427   0.6238197  )
        94        O      tau(  94) = (   0.9014054   0.7139543   1.1859242  )
        95        O      tau(  95) = (   0.8548963   0.1722994   1.1834447  )
        96        O      tau(  96) = (   0.6044469   0.3253792   0.6209553  )
        97        O      tau(  97) = (   0.6024424   0.5698225   0.7490903  )
        98        O      tau(  98) = (   0.8498940   1.0129567   1.0594762  )
        99        O      tau(  99) = (   0.8798395   0.4080910   0.7564148  )
       100        O      tau( 100) = (   0.6286921   0.0909721   1.0472573  )
       101        O      tau( 101) = (   0.6294973   0.6302838   1.0497366  )
       102        O      tau( 102) = (   0.9024339   0.4685397   1.0573501  )
       103        O      tau( 103) = (   0.6547812   0.0286072   0.7473283  )
       104        O      tau( 104) = (   0.8760507   0.9507690   0.7605412  )
       105        Mn     tau( 105) = (   0.2404744   0.8121420   0.4502541  )
       106        Ni     tau( 106) = (   0.4968126   0.7476840   0.1255496  )
       107        Ni     tau( 107) = (   0.0066150   0.2686914   0.4429989  )
       108        Ni     tau( 108) = (   0.2585722   0.2106028   0.1222194  )
       109        Ni     tau( 109) = (   0.9987350   1.0446581   0.2816116  )
       110        Ni     tau( 110) = (   0.2517397   0.5080681   0.2841720  )
       111        Ni     tau( 111) = (   0.7451645   0.8087713   0.4449291  )
       112        Ni     tau( 112) = (   0.9939181   0.7488974   0.1263448  )
       113        Ni     tau( 113) = (   0.5111533   0.2674258   0.4419177  )
       114        Ni     tau( 114) = (   0.7606326   0.2069438   0.1219670  )
       115        Ni     tau( 115) = (   0.5024065   1.0438304   0.2800540  )
       116        Ni     tau( 116) = (   0.7529977   0.5068070   0.2825815  )
       117        P      tau( 117) = (   0.2092944   0.9481267   0.1326007  )
       118        P      tau( 118) = (   0.4655727   0.6109705   0.4396407  )
       119        P      tau( 119) = (   0.2910699   0.0777534   0.4374945  )
       120        P      tau( 120) = (   0.0396216   0.4038566   0.1272204  )
       121        O      tau( 121) = (   0.1294378   0.8763430   0.2660424  )
       122        O      tau( 122) = (   0.3874505   0.6804944   0.3034039  )
       123        O      tau( 123) = (   0.3702540   0.1464970   0.3011014  )
       124        O      tau( 124) = (   0.1184398   0.3333129   0.2632689  )
       125        O      tau( 125) = (   0.1451572   0.8601051   0.0083464  )
       126        O      tau( 126) = (   0.4048762   0.6995756   0.5653550  )
       127        O      tau( 127) = (   0.3523506   0.1650749   0.5635298  )
       128        O      tau( 128) = (   0.1017610   0.3160655   0.0014470  )
       129        O      tau( 129) = (   0.0975396   0.5599458   0.1313120  )
       130        O      tau( 130) = (   0.3483552   1.0065115   0.4400720  )
       131        O      tau( 131) = (   0.3784305   0.3975288   0.1362114  )
       132        O      tau( 132) = (   0.1268237   0.0818115   0.4278298  )
       133        O      tau( 133) = (   0.1212267   0.6174340   0.4308146  )
       134        O      tau( 134) = (   0.4053315   0.4559557   0.4370420  )
       135        O      tau( 135) = (   0.1536621   0.0197088   0.1297656  )
       136        O      tau( 136) = (   0.3732349   0.9381887   0.1414400  )
       137        P      tau( 137) = (   0.7119823   0.9446144   0.1298032  )
       138        P      tau( 138) = (   0.9615208   0.6113562   0.4408111  )
       139        P      tau( 139) = (   0.7927710   0.0720230   0.4378878  )
       140        P      tau( 140) = (   0.5426404   0.4019845   0.1260304  )
       141        O      tau( 141) = (   0.6326879   0.8741353   0.2657802  )
       142        O      tau( 142) = (   0.8842163   0.6833376   0.3045887  )
       143        O      tau( 143) = (   0.8716178   0.1427921   0.3017538  )
       144        O      tau( 144) = (   0.6212010   0.3308836   0.2619957  )
       145        O      tau( 145) = (   0.6507714   0.8562512   0.0039320  )
       146        O      tau( 146) = (   0.9014054   0.7014628   0.5660366  )
       147        O      tau( 147) = (   0.8548963   0.1598079   0.5635571  )
       148        O      tau( 148) = (   0.6044469   0.3128877   0.0010676  )
       149        O      tau( 149) = (   0.6024424   0.5573310   0.1292027  )
       150        O      tau( 150) = (   0.8498940   1.0004653   0.4395886  )
       151        O      tau( 151) = (   0.8798395   0.3955995   0.1365272  )
       152        O      tau( 152) = (   0.6286921   0.0784807   0.4273696  )
       153        O      tau( 153) = (   0.6294973   0.6177923   0.4298489  )
       154        O      tau( 154) = (   0.9024339   0.4560482   0.4374624  )
       155        O      tau( 155) = (   0.6547812   0.0161158   0.1274406  )
       156        O      tau( 156) = (   0.8760507   0.9382775   0.1406535  )
       157        O      tau( 157) = (   0.1248109   0.3912637   1.8430336  )
       158        H      tau( 158) = (   0.2082109   0.3300793   1.8677327  )

     -------------------------------------------------
     Parameters for Dispersion (Grimme-D2) Correction:
     -------------------------------------------------
       atom      VdW radius       C_6     

        Ni         2.952        374.666
        Mn         2.952        374.666
        P          3.222        271.980
        O          2.536         24.284
        H          1.892          4.857

     number of k points=     1  Gaussian smearing, width (Ry)=  0.0100
                       cart. coord. in units 2pi/alat
        k(    1) = (   0.0000000   0.0000000   0.0000000), wk =   1.0000000

     Dense  grid:  1918138 G-vectors     FFT dimensions: ( 125, 135, 432)

     Smooth grid:   485265 G-vectors     FFT dimensions: (  80,  90, 288)

     Estimated max dynamical RAM per process >     320.12 MB

     Estimated total dynamical RAM >      20.01 GB
     Generating pointlists ...
     new r_m :   0.0804 (alat units)  1.4229 (a.u.) for type    1
     new r_m :   0.0869 (alat units)  1.5388 (a.u.) for type    2
     new r_m :   0.0650 (alat units)  1.1499 (a.u.) for type    3
     new r_m :   0.0439 (alat units)  0.7765 (a.u.) for type    4
     new r_m :   0.0439 (alat units)  0.7765 (a.u.) for type    5

     Initial potential from superposition of free atoms

     starting charge    1077.8900, renormalised to    1078.0000

     negative rho (up, down):  1.233E-03 4.556E-04
 
     Adding external electric field

     Computed dipole along edir(3) : 
        Dipole                1.6235 Ry au,          4.1266 Debye
        Dipole field          0.0010 Ry au, 
 
        Potential amp.       -0.1090 Ry
        Total length         54.2615 bohr
 
 
     Adding external electric field

     Computed dipole along edir(3) : 
        Dipole                1.6235 Ry au,          4.1266 Debye
        Dipole field          0.0010 Ry au, 
 
        Potential amp.       -0.1090 Ry
        Total length         54.2615 bohr
 
     Starting wfcs are  812 randomized atomic wfcs

     total cpu time spent up to now is       10.9 secs

     Self-consistent Calculation

     iteration #  1     ecut=    50.00 Ry     beta= 0.10
     Davidson diagonalization with overlap
     ethr =  1.00E-02,  avg # of iterations =  6.0

     negative rho (up, down):  3.407E-01 1.152E-06
 
     Adding external electric field

     Computed dipole along edir(3) : 
        Dipole               -3.6103 Ry au,         -9.1765 Debye
        Dipole field         -0.0022 Ry au, 
 
        Potential amp.        0.2423 Ry
        Total length         54.2615 bohr
 
 
     Adding external electric field

     Computed dipole along edir(3) : 
        Dipole               -3.6103 Ry au,         -9.1765 Debye
        Dipole field         -0.0022 Ry au, 
 
        Potential amp.        0.2423 Ry
        Total length         54.2615 bohr
 

     total cpu time spent up to now is       38.4 secs

     total energy              =   -7178.02808947 Ry
     estimated scf accuracy    <     739.37371080 Ry

     total magnetization       =   216.00 Bohr mag/cell
     absolute magnetization    =   297.46 Bohr mag/cell

     iteration #  2     ecut=    50.00 Ry     beta= 0.10
     Davidson diagonalization with overlap
     ethr =  1.00E-02,  avg # of iterations =  2.0

     negative rho (up, down):  3.231E-01 9.010E-07
 
     Adding external electric field

     Computed dipole along edir(3) : 
        Dipole               -2.4297 Ry au,         -6.1756 Debye
        Dipole field         -0.0015 Ry au, 
 
        Potential amp.        0.1631 Ry
        Total length         54.2615 bohr
 
 
     Adding external electric field

     Computed dipole along edir(3) : 
        Dipole               -2.4297 Ry au,         -6.1756 Debye
        Dipole field         -0.0015 Ry au, 
 
        Potential amp.        0.1631 Ry
        Total length         54.2615 bohr
 

     total cpu time spent up to now is       54.4 secs

     total energy              =   -7262.19684630 Ry
     estimated scf accuracy    <     205.79225163 Ry

     total magnetization       =   149.83 Bohr mag/cell
     absolute magnetization    =   199.44 Bohr mag/cell

     iteration #  3     ecut=    50.00 Ry     beta= 0.10
     Davidson diagonalization with overlap
     ethr =  1.00E-02,  avg # of iterations =  1.5

     negative rho (up, down):  2.833E-01 8.567E-07
 
     Adding external electric field

     Computed dipole along edir(3) : 
        Dipole               -2.0263 Ry au,         -5.1504 Debye
        Dipole field         -0.0013 Ry au, 
 
        Potential amp.        0.1360 Ry
        Total length         54.2615 bohr
 
 
     Adding external electric field

     Computed dipole along edir(3) : 
        Dipole               -2.0263 Ry au,         -5.1504 Debye
        Dipole field         -0.0013 Ry au, 
 
        Potential amp.        0.1360 Ry
        Total length         54.2615 bohr
 

     total cpu time spent up to now is       67.0 secs

     total energy              =   -7293.89532064 Ry
     estimated scf accuracy    <      99.15763044 Ry

     total magnetization       =   125.48 Bohr mag/cell
     absolute magnetization    =   179.16 Bohr mag/cell

     iteration #  4     ecut=    50.00 Ry     beta= 0.10
     Davidson diagonalization with overlap
     ethr =  9.20E-03,  avg # of iterations =  1.5

     negative rho (up, down):  2.142E-01 3.091E-07
 
     Adding external electric field

     Computed dipole along edir(3) : 
        Dipole               -2.0842 Ry au,         -5.2975 Debye
        Dipole field         -0.0013 Ry au, 
 
        Potential amp.        0.1399 Ry
        Total length         54.2615 bohr
 
 
     Adding external electric field

     Computed dipole along edir(3) : 
        Dipole               -2.0842 Ry au,         -5.2975 Debye
        Dipole field         -0.0013 Ry au, 
 
        Potential amp.        0.1399 Ry
        Total length         54.2615 bohr
 

     total cpu time spent up to now is       80.0 secs

     total energy              =   -7325.77485729 Ry
     estimated scf accuracy    <      77.97694108 Ry

     total magnetization       =   109.57 Bohr mag/cell
     absolute magnetization    =   164.40 Bohr mag/cell

     iteration #  5     ecut=    50.00 Ry     beta= 0.10
     Davidson diagonalization with overlap
     ethr =  7.23E-03,  avg # of iterations =  1.5

     negative rho (up, down):  1.259E-02 8.304E-07
 
     Adding external electric field

     Computed dipole along edir(3) : 
        Dipole               -1.6703 Ry au,         -4.2454 Debye
        Dipole field         -0.0010 Ry au, 
 
        Potential amp.        0.1121 Ry
        Total length         54.2615 bohr
 
 
     Adding external electric field

     Computed dipole along edir(3) : 
        Dipole               -1.6703 Ry au,         -4.2454 Debye
        Dipole field         -0.0010 Ry au, 
 
        Potential amp.        0.1121 Ry
        Total length         54.2615 bohr
 

     total cpu time spent up to now is       93.3 secs

     total energy              =   -7384.44790001 Ry
     estimated scf accuracy    <      62.38549663 Ry

     total magnetization       =    88.07 Bohr mag/cell
     absolute magnetization    =   146.44 Bohr mag/cell

     iteration #  6     ecut=    50.00 Ry     beta= 0.10
     Davidson diagonalization with overlap
     ethr =  5.79E-03,  avg # of iterations =  1.5

     negative rho (up, down):  5.279E-04 5.622E-04
 
     Adding external electric field

     Computed dipole along edir(3) : 
        Dipole               -1.2750 Ry au,         -3.2408 Debye
        Dipole field         -0.0008 Ry au, 
 
        Potential amp.        0.0856 Ry
        Total length         54.2615 bohr
 
 
     Adding external electric field

     Computed dipole along edir(3) : 
        Dipole               -1.2750 Ry au,         -3.2408 Debye
        Dipole field         -0.0008 Ry au, 
 
        Potential amp.        0.0856 Ry
        Total length         54.2615 bohr
 

     total cpu time spent up to now is      105.3 secs

     total energy              =   -7395.25869285 Ry
     estimated scf accuracy    <      12.71592919 Ry

     total magnetization       =    82.00 Bohr mag/cell
     absolute magnetization    =   117.16 Bohr mag/cell

     iteration #  7     ecut=    50.00 Ry     beta= 0.10
     Davidson diagonalization with overlap
     ethr =  1.18E-03,  avg # of iterations =  4.5

     negative rho (up, down):  4.946E-04 5.467E-04
 
     Adding external electric field

     Computed dipole along edir(3) : 
        Dipole               -1.2556 Ry au,         -3.1915 Debye
        Dipole field         -0.0008 Ry au, 
 
        Potential amp.        0.0843 Ry
        Total length         54.2615 bohr
 
 
     Adding external electric field

     Computed dipole along edir(3) : 
        Dipole               -1.2556 Ry au,         -3.1915 Debye
        Dipole field         -0.0008 Ry au, 
 
        Potential amp.        0.0843 Ry
        Total length         54.2615 bohr
 

     total cpu time spent up to now is      124.3 secs

     total energy              =   -7397.60280966 Ry
     estimated scf accuracy    <      13.20340229 Ry

     total magnetization       =    71.22 Bohr mag/cell
     absolute magnetization    =    88.91 Bohr mag/cell

     iteration #  8     ecut=    50.00 Ry     beta= 0.10
     Davidson diagonalization with overlap
     ethr =  1.18E-03,  avg # of iterations =  1.0

     negative rho (up, down):  2.731E-04 3.485E-04
 
     Adding external electric field

     Computed dipole along edir(3) : 
        Dipole               -1.0507 Ry au,         -2.6706 Debye
        Dipole field         -0.0006 Ry au, 
 
        Potential amp.        0.0705 Ry
        Total length         54.2615 bohr
 
 
     Adding external electric field

     Computed dipole along edir(3) : 
        Dipole               -1.0507 Ry au,         -2.6706 Debye
        Dipole field         -0.0006 Ry au, 
 
        Potential amp.        0.0705 Ry
        Total length         54.2615 bohr
 

     total cpu time spent up to now is      135.3 secs

     total energy              =   -7397.49484844 Ry
     estimated scf accuracy    <      12.66456316 Ry

     total magnetization       =    71.43 Bohr mag/cell
     absolute magnetization    =    88.84 Bohr mag/cell

     iteration #  9     ecut=    50.00 Ry     beta= 0.10
     Davidson diagonalization with overlap
     ethr =  1.17E-03,  avg # of iterations =  1.0

     negative rho (up, down):  2.096E-04 3.201E-04
 
     Adding external electric field

     Computed dipole along edir(3) : 
        Dipole               -0.9897 Ry au,         -2.5156 Debye
        Dipole field         -0.0006 Ry au, 
 
        Potential amp.        0.0664 Ry
        Total length         54.2615 bohr
 
 
     Adding external electric field

     Computed dipole along edir(3) : 
        Dipole               -0.9897 Ry au,         -2.5156 Debye
        Dipole field         -0.0006 Ry au, 
 
        Potential amp.        0.0664 Ry
        Total length         54.2615 bohr
 

     total cpu time spent up to now is      146.3 secs

     total energy              =   -7397.49236475 Ry
     estimated scf accuracy    <       7.89673414 Ry

     total magnetization       =    72.02 Bohr mag/cell
     absolute magnetization    =    87.91 Bohr mag/cell

     iteration # 10     ecut=    50.00 Ry     beta= 0.10
     Davidson diagonalization with overlap
     ethr =  7.33E-04,  avg # of iterations =  2.0

     negative rho (up, down):  1.842E-04 3.565E-04
 
     Adding external electric field

     Computed dipole along edir(3) : 
        Dipole               -1.0003 Ry au,         -2.5425 Debye
        Dipole field         -0.0006 Ry au, 
 
        Potential amp.        0.0671 Ry
        Total length         54.2615 bohr
 
 
     Adding external electric field

     Computed dipole along edir(3) : 
        Dipole               -1.0003 Ry au,         -2.5425 Debye
        Dipole field         -0.0006 Ry au, 
 
        Potential amp.        0.0671 Ry
        Total length         54.2615 bohr
 

     total cpu time spent up to now is      158.4 secs

     total energy              =   -7397.54742720 Ry
     estimated scf accuracy    <       3.94369101 Ry

     total magnetization       =    74.17 Bohr mag/cell
     absolute magnetization    =    88.43 Bohr mag/cell

     iteration # 11     ecut=    50.00 Ry     beta= 0.10
     Davidson diagonalization with overlap
     ethr =  3.66E-04,  avg # of iterations =  2.0

     negative rho (up, down):  1.247E-04 3.645E-04
 
     Adding external electric field

     Computed dipole along edir(3) : 
        Dipole               -0.9231 Ry au,         -2.3463 Debye
        Dipole field         -0.0006 Ry au, 
 
        Potential amp.        0.0620 Ry
        Total length         54.2615 bohr
 
 
     Adding external electric field

     Computed dipole along edir(3) : 
        Dipole               -0.9231 Ry au,         -2.3463 Debye
        Dipole field         -0.0006 Ry au, 
 
        Potential amp.        0.0620 Ry
        Total length         54.2615 bohr
 

     total cpu time spent up to now is      170.2 secs

     total energy              =   -7397.59749272 Ry
     estimated scf accuracy    <       2.19788180 Ry

     total magnetization       =    76.04 Bohr mag/cell
     absolute magnetization    =    88.92 Bohr mag/cell

     iteration # 12     ecut=    50.00 Ry     beta= 0.10
     Davidson diagonalization with overlap
     ethr =  2.04E-04,  avg # of iterations =  7.5

     negative rho (up, down):  7.818E-05 1.849E-04
 
     Adding external electric field

     Computed dipole along edir(3) : 
        Dipole               -0.8139 Ry au,         -2.0688 Debye
        Dipole field         -0.0005 Ry au, 
 
        Potential amp.        0.0546 Ry
        Total length         54.2615 bohr
 
 
     Adding external electric field

     Computed dipole along edir(3) : 
        Dipole               -0.8139 Ry au,         -2.0688 Debye
        Dipole field         -0.0005 Ry au, 
 
        Potential amp.        0.0546 Ry
        Total length         54.2615 bohr
 

     total cpu time spent up to now is      184.8 secs

     total energy              =   -7397.72692592 Ry
     estimated scf accuracy    <       1.00596720 Ry

     total magnetization       =    77.82 Bohr mag/cell
     absolute magnetization    =    88.76 Bohr mag/cell

     iteration # 13     ecut=    50.00 Ry     beta= 0.10
     Davidson diagonalization with overlap
     c_bands:  2 eigenvalues not converged
     c_bands:  3 eigenvalues not converged
     ethr =  9.33E-05,  avg # of iterations = 20.0

     negative rho (up, down):  2.908E-05 1.061E-04
 
     Adding external electric field

     Computed dipole along edir(3) : 
        Dipole               -0.6644 Ry au,         -1.6886 Debye
        Dipole field         -0.0004 Ry au, 
 
        Potential amp.        0.0446 Ry
        Total length         54.2615 bohr
 
 
     Adding external electric field

     Computed dipole along edir(3) : 
        Dipole               -0.6644 Ry au,         -1.6886 Debye
        Dipole field         -0.0004 Ry au, 
 
        Potential amp.        0.0446 Ry
        Total length         54.2615 bohr
 

     total cpu time spent up to now is      210.6 secs

     total energy              =   -7397.88416223 Ry
     estimated scf accuracy    <       0.60301447 Ry

     total magnetization       =    78.40 Bohr mag/cell
     absolute magnetization    =    87.16 Bohr mag/cell

     iteration # 14     ecut=    50.00 Ry     beta= 0.10
     Davidson diagonalization with overlap
     ethr =  5.59E-05,  avg # of iterations =  2.0

     negative rho (up, down):  3.133E-05 1.424E-04
 
     Adding external electric field

     Computed dipole along edir(3) : 
        Dipole               -0.7556 Ry au,         -1.9206 Debye
        Dipole field         -0.0005 Ry au, 
 
        Potential amp.        0.0507 Ry
        Total length         54.2615 bohr
 
 
     Adding external electric field

     Computed dipole along edir(3) : 
        Dipole               -0.7556 Ry au,         -1.9206 Debye
        Dipole field         -0.0005 Ry au, 
 
        Potential amp.        0.0507 Ry
        Total length         54.2615 bohr
 

     total cpu time spent up to now is      222.5 secs

     total energy              =   -7397.87102507 Ry
     estimated scf accuracy    <       0.54848020 Ry

     total magnetization       =    81.20 Bohr mag/cell
     absolute magnetization    =    86.40 Bohr mag/cell

     iteration # 15     ecut=    50.00 Ry     beta= 0.10
     Davidson diagonalization with overlap
     ethr =  5.09E-05,  avg # of iterations =  1.0

     negative rho (up, down):  2.856E-05 1.618E-04
 
     Adding external electric field

     Computed dipole along edir(3) : 
        Dipole               -0.7765 Ry au,         -1.9737 Debye
        Dipole field         -0.0005 Ry au, 
 
        Potential amp.        0.0521 Ry
        Total length         54.2615 bohr
 
 
     Adding external electric field

     Computed dipole along edir(3) : 
        Dipole               -0.7765 Ry au,         -1.9737 Debye
        Dipole field         -0.0005 Ry au, 
 
        Potential amp.        0.0521 Ry
        Total length         54.2615 bohr
 

     total cpu time spent up to now is      232.8 secs

     total energy              =   -7397.91019994 Ry
     estimated scf accuracy    <       0.41358569 Ry

     total magnetization       =    79.13 Bohr mag/cell
     absolute magnetization    =    84.63 Bohr mag/cell

     iteration # 16     ecut=    50.00 Ry     beta= 0.10
     Davidson diagonalization with overlap
     ethr =  3.84E-05,  avg # of iterations =  1.0

     negative rho (up, down):  1.739E-05 3.203E-04
 
     Adding external electric field

     Computed dipole along edir(3) : 
        Dipole               -0.7902 Ry au,         -2.0086 Debye
        Dipole field         -0.0005 Ry au, 
 
        Potential amp.        0.0530 Ry
        Total length         54.2615 bohr
 
 
     Adding external electric field

     Computed dipole along edir(3) : 
        Dipole               -0.7902 Ry au,         -2.0086 Debye
        Dipole field         -0.0005 Ry au, 
 
        Potential amp.        0.0530 Ry
        Total length         54.2615 bohr
 

     total cpu time spent up to now is      243.4 secs

     total energy              =   -7397.90131361 Ry
     estimated scf accuracy    <       0.34831431 Ry

     total magnetization       =    79.55 Bohr mag/cell
     absolute magnetization    =    84.64 Bohr mag/cell

     iteration # 17     ecut=    50.00 Ry     beta= 0.10
     Davidson diagonalization with overlap
     ethr =  3.23E-05,  avg # of iterations =  1.5

     negative rho (up, down):  1.347E-05 2.475E-04
 
     Adding external electric field

     Computed dipole along edir(3) : 
        Dipole               -0.6292 Ry au,         -1.5992 Debye
        Dipole field         -0.0004 Ry au, 
 
        Potential amp.        0.0422 Ry
        Total length         54.2615 bohr
 
 
     Adding external electric field

     Computed dipole along edir(3) : 
        Dipole               -0.6292 Ry au,         -1.5992 Debye
        Dipole field         -0.0004 Ry au, 
 
        Potential amp.        0.0422 Ry
        Total length         54.2615 bohr
 

     total cpu time spent up to now is      254.3 secs

     total energy              =   -7398.00829292 Ry
     estimated scf accuracy    <       0.33764832 Ry

     total magnetization       =    80.12 Bohr mag/cell
     absolute magnetization    =    84.46 Bohr mag/cell

     iteration # 18     ecut=    50.00 Ry     beta= 0.10
     Davidson diagonalization with overlap
     ethr =  3.13E-05,  avg # of iterations =  2.0

     negative rho (up, down):  2.830E-05 3.922E-05
 
     Adding external electric field

     Computed dipole along edir(3) : 
        Dipole               -0.6417 Ry au,         -1.6311 Debye
        Dipole field         -0.0004 Ry au, 
 
        Potential amp.        0.0431 Ry
        Total length         54.2615 bohr
 
 
     Adding external electric field

     Computed dipole along edir(3) : 
        Dipole               -0.6417 Ry au,         -1.6311 Debye
        Dipole field         -0.0004 Ry au, 
 
        Potential amp.        0.0431 Ry
        Total length         54.2615 bohr
 

     total cpu time spent up to now is      265.9 secs

     total energy              =   -7398.03318779 Ry
     estimated scf accuracy    <       0.27637802 Ry

     total magnetization       =    81.23 Bohr mag/cell
     absolute magnetization    =    83.60 Bohr mag/cell

     iteration # 19     ecut=    50.00 Ry     beta= 0.10
     Davidson diagonalization with overlap
     ethr =  2.56E-05,  avg # of iterations =  2.0

     negative rho (up, down):  3.856E-05 1.363E-05
 
     Adding external electric field

     Computed dipole along edir(3) : 
        Dipole               -0.6186 Ry au,         -1.5724 Debye
        Dipole field         -0.0004 Ry au, 
 
        Potential amp.        0.0415 Ry
        Total length         54.2615 bohr
 
 
     Adding external electric field

     Computed dipole along edir(3) : 
        Dipole               -0.6186 Ry au,         -1.5724 Debye
        Dipole field         -0.0004 Ry au, 
 
        Potential amp.        0.0415 Ry
        Total length         54.2615 bohr
 

     total cpu time spent up to now is      277.5 secs

     total energy              =   -7398.03056325 Ry
     estimated scf accuracy    <       0.15965020 Ry

     total magnetization       =    80.53 Bohr mag/cell
     absolute magnetization    =    82.45 Bohr mag/cell

     iteration # 20     ecut=    50.00 Ry     beta= 0.10
     Davidson diagonalization with overlap
     ethr =  1.48E-05,  avg # of iterations =  2.0

     negative rho (up, down):  7.703E-06 9.490E-06
 
     Adding external electric field

     Computed dipole along edir(3) : 
        Dipole               -0.6103 Ry au,         -1.5513 Debye
        Dipole field         -0.0004 Ry au, 
 
        Potential amp.        0.0410 Ry
        Total length         54.2615 bohr
 
 
     Adding external electric field

     Computed dipole along edir(3) : 
        Dipole               -0.6103 Ry au,         -1.5513 Debye
        Dipole field         -0.0004 Ry au, 
 
        Potential amp.        0.0410 Ry
        Total length         54.2615 bohr
 

     total cpu time spent up to now is      288.9 secs

     total energy              =   -7398.03047872 Ry
     estimated scf accuracy    <       0.07926922 Ry

     total magnetization       =    80.86 Bohr mag/cell
     absolute magnetization    =    82.66 Bohr mag/cell

     iteration # 21     ecut=    50.00 Ry     beta= 0.10
     Davidson diagonalization with overlap
     ethr =  7.35E-06,  avg # of iterations =  3.0

     negative rho (up, down):  2.344E-05 2.649E-05
 
     Adding external electric field

     Computed dipole along edir(3) : 
        Dipole               -0.5562 Ry au,         -1.4136 Debye
        Dipole field         -0.0003 Ry au, 
 
        Potential amp.        0.0373 Ry
        Total length         54.2615 bohr
 
 
     Adding external electric field

     Computed dipole along edir(3) : 
        Dipole               -0.5562 Ry au,         -1.4136 Debye
        Dipole field         -0.0003 Ry au, 
 
        Potential amp.        0.0373 Ry
        Total length         54.2615 bohr
 

     total cpu time spent up to now is      302.3 secs

     total energy              =   -7398.03015464 Ry
     estimated scf accuracy    <       0.11604845 Ry

     total magnetization       =    79.26 Bohr mag/cell
     absolute magnetization    =    80.93 Bohr mag/cell

     iteration # 22     ecut=    50.00 Ry     beta= 0.10
     Davidson diagonalization with overlap
     ethr =  7.35E-06,  avg # of iterations =  1.5

     negative rho (up, down):  3.962E-06 2.894E-06
 
     Adding external electric field

     Computed dipole along edir(3) : 
        Dipole               -0.4680 Ry au,         -1.1895 Debye
        Dipole field         -0.0003 Ry au, 
 
        Potential amp.        0.0314 Ry
        Total length         54.2615 bohr
 
 
     Adding external electric field

     Computed dipole along edir(3) : 
        Dipole               -0.4680 Ry au,         -1.1895 Debye
        Dipole field         -0.0003 Ry au, 
 
        Potential amp.        0.0314 Ry
        Total length         54.2615 bohr
 

     total cpu time spent up to now is      314.2 secs

     total energy              =   -7398.03442529 Ry
     estimated scf accuracy    <       0.07076946 Ry

     total magnetization       =    80.60 Bohr mag/cell
     absolute magnetization    =    82.08 Bohr mag/cell

     iteration # 23     ecut=    50.00 Ry     beta= 0.10
     Davidson diagonalization with overlap
     ethr =  6.56E-06,  avg # of iterations =  2.0

     negative rho (up, down):  1.272E-06 4.003E-07
 
     Adding external electric field

     Computed dipole along edir(3) : 
        Dipole               -0.4588 Ry au,         -1.1662 Debye
        Dipole field         -0.0003 Ry au, 
 
        Potential amp.        0.0308 Ry
        Total length         54.2615 bohr
 
 
     Adding external electric field

     Computed dipole along edir(3) : 
        Dipole               -0.4588 Ry au,         -1.1662 Debye
        Dipole field         -0.0003 Ry au, 
 
        Potential amp.        0.0308 Ry
        Total length         54.2615 bohr
 

     total cpu time spent up to now is      327.1 secs

     total energy              =   -7398.03277072 Ry
     estimated scf accuracy    <       0.13955867 Ry

     total magnetization       =    80.61 Bohr mag/cell
     absolute magnetization    =    82.00 Bohr mag/cell

     iteration # 24     ecut=    50.00 Ry     beta= 0.10
     Davidson diagonalization with overlap
     ethr =  6.56E-06,  avg # of iterations =  2.0

     negative rho (up, down):  2.143E-07 1.996E-07
 
     Adding external electric field

     Computed dipole along edir(3) : 
        Dipole               -0.3861 Ry au,         -0.9813 Debye
        Dipole field         -0.0002 Ry au, 
 
        Potential amp.        0.0259 Ry
        Total length         54.2615 bohr
 
 
     Adding external electric field

     Computed dipole along edir(3) : 
        Dipole               -0.3861 Ry au,         -0.9813 Debye
        Dipole field         -0.0002 Ry au, 
 
        Potential amp.        0.0259 Ry
        Total length         54.2615 bohr
 

     total cpu time spent up to now is      339.6 secs

     total energy              =   -7398.03425747 Ry
     estimated scf accuracy    <       0.04038231 Ry

     total magnetization       =    80.42 Bohr mag/cell
     absolute magnetization    =    81.86 Bohr mag/cell

     iteration # 25     ecut=    50.00 Ry     beta= 0.10
     Davidson diagonalization with overlap
     c_bands:  1 eigenvalues not converged
     ethr =  3.75E-06,  avg # of iterations = 29.0

     negative rho (up, down):  2.293E-07 2.742E-07
 
     Adding external electric field

     Computed dipole along edir(3) : 
        Dipole               -0.3521 Ry au,         -0.8950 Debye
        Dipole field         -0.0002 Ry au, 
 
        Potential amp.        0.0236 Ry
        Total length         54.2615 bohr
 
 
     Adding external electric field

     Computed dipole along edir(3) : 
        Dipole               -0.3521 Ry au,         -0.8950 Debye
        Dipole field         -0.0002 Ry au, 
 
        Potential amp.        0.0236 Ry
        Total length         54.2615 bohr
 

     total cpu time spent up to now is      369.3 secs

     total energy              =   -7398.03387891 Ry
     estimated scf accuracy    <       0.07310344 Ry

     total magnetization       =    80.53 Bohr mag/cell
     absolute magnetization    =    82.03 Bohr mag/cell

     iteration # 26     ecut=    50.00 Ry     beta= 0.10
     Davidson diagonalization with overlap
     ethr =  3.75E-06,  avg # of iterations =  1.5

     negative rho (up, down):  1.375E-07 2.278E-07
 
     Adding external electric field

     Computed dipole along edir(3) : 
        Dipole               -0.3815 Ry au,         -0.9697 Debye
        Dipole field         -0.0002 Ry au, 
 
        Potential amp.        0.0256 Ry
        Total length         54.2615 bohr
 
 
     Adding external electric field

     Computed dipole along edir(3) : 
        Dipole               -0.3815 Ry au,         -0.9697 Debye
        Dipole field         -0.0002 Ry au, 
 
        Potential amp.        0.0256 Ry
        Total length         54.2615 bohr
 

     total cpu time spent up to now is      382.2 secs

     total energy              =   -7398.03350149 Ry
     estimated scf accuracy    <       0.07124386 Ry

     total magnetization       =    80.37 Bohr mag/cell
     absolute magnetization    =    81.90 Bohr mag/cell

     iteration # 27     ecut=    50.00 Ry     beta= 0.10
     Davidson diagonalization with overlap
     ethr =  3.75E-06,  avg # of iterations =  1.5

     negative rho (up, down):  8.214E-07 2.646E-07
 
     Adding external electric field

     Computed dipole along edir(3) : 
        Dipole               -0.3265 Ry au,         -0.8299 Debye
        Dipole field         -0.0002 Ry au, 
 
        Potential amp.        0.0219 Ry
        Total length         54.2615 bohr
 
 
     Adding external electric field

     Computed dipole along edir(3) : 
        Dipole               -0.3265 Ry au,         -0.8299 Debye
        Dipole field         -0.0002 Ry au, 
 
        Potential amp.        0.0219 Ry
        Total length         54.2615 bohr
 

     total cpu time spent up to now is      393.8 secs

     total energy              =   -7398.03223666 Ry
     estimated scf accuracy    <       0.06059504 Ry

     total magnetization       =    80.09 Bohr mag/cell
     absolute magnetization    =    81.67 Bohr mag/cell

     iteration # 28     ecut=    50.00 Ry     beta= 0.10
     Davidson diagonalization with overlap
     ethr =  3.75E-06,  avg # of iterations =  1.5

     negative rho (up, down):  6.749E-07 3.773E-07
 
     Adding external electric field

     Computed dipole along edir(3) : 
        Dipole               -0.3213 Ry au,         -0.8165 Debye
        Dipole field         -0.0002 Ry au, 
 
        Potential amp.        0.0216 Ry
        Total length         54.2615 bohr
 
 
     Adding external electric field

     Computed dipole along edir(3) : 
        Dipole               -0.3213 Ry au,         -0.8165 Debye
        Dipole field         -0.0002 Ry au, 
 
        Potential amp.        0.0216 Ry
        Total length         54.2615 bohr
 

     total cpu time spent up to now is      405.4 secs

     total energy              =   -7398.03294576 Ry
     estimated scf accuracy    <       0.06136309 Ry

     total magnetization       =    80.27 Bohr mag/cell
     absolute magnetization    =    81.73 Bohr mag/cell

     iteration # 29     ecut=    50.00 Ry     beta= 0.10
     Davidson diagonalization with overlap
     ethr =  3.75E-06,  avg # of iterations =  1.5

     negative rho (up, down):  8.556E-07 6.143E-07
 
     Adding external electric field

     Computed dipole along edir(3) : 
        Dipole               -0.3228 Ry au,         -0.8205 Debye
        Dipole field         -0.0002 Ry au, 
 
        Potential amp.        0.0217 Ry
        Total length         54.2615 bohr
 
 
     Adding external electric field

     Computed dipole along edir(3) : 
        Dipole               -0.3228 Ry au,         -0.8205 Debye
        Dipole field         -0.0002 Ry au, 
 
        Potential amp.        0.0217 Ry
        Total length         54.2615 bohr
 

     total cpu time spent up to now is      417.3 secs

     total energy              =   -7398.03313359 Ry
     estimated scf accuracy    <       0.05876811 Ry

     total magnetization       =    80.20 Bohr mag/cell
     absolute magnetization    =    81.67 Bohr mag/cell

     iteration # 30     ecut=    50.00 Ry     beta= 0.10
     Davidson diagonalization with overlap
     c_bands:  3 eigenvalues not converged
     ethr =  3.75E-06,  avg # of iterations = 10.5

     negative rho (up, down):  1.471E-06 1.589E-06
 
     Adding external electric field

     Computed dipole along edir(3) : 
        Dipole               -0.3550 Ry au,         -0.9024 Debye
        Dipole field         -0.0002 Ry au, 
 
        Potential amp.        0.0238 Ry
        Total length         54.2615 bohr
 
 
     Adding external electric field

     Computed dipole along edir(3) : 
        Dipole               -0.3550 Ry au,         -0.9024 Debye
        Dipole field         -0.0002 Ry au, 
 
        Potential amp.        0.0238 Ry
        Total length         54.2615 bohr
 

     total cpu time spent up to now is      434.4 secs

     total energy              =   -7398.03312379 Ry
     estimated scf accuracy    <       0.05683198 Ry

     total magnetization       =    80.30 Bohr mag/cell
     absolute magnetization    =    81.73 Bohr mag/cell

     iteration # 31     ecut=    50.00 Ry     beta= 0.10
     Davidson diagonalization with overlap
     ethr =  3.75E-06,  avg # of iterations =  1.5

     negative rho (up, down):  1.246E-06 1.497E-06
 
     Adding external electric field

     Computed dipole along edir(3) : 
        Dipole               -0.3489 Ry au,         -0.8869 Debye
        Dipole field         -0.0002 Ry au, 
 
        Potential amp.        0.0234 Ry
        Total length         54.2615 bohr
 
 
     Adding external electric field

     Computed dipole along edir(3) : 
        Dipole               -0.3489 Ry au,         -0.8869 Debye
        Dipole field         -0.0002 Ry au, 
 
        Potential amp.        0.0234 Ry
        Total length         54.2615 bohr
 

     total cpu time spent up to now is      445.9 secs

     total energy              =   -7398.03248702 Ry
     estimated scf accuracy    <       0.02956151 Ry

     total magnetization       =    80.34 Bohr mag/cell
     absolute magnetization    =    81.92 Bohr mag/cell

     iteration # 32     ecut=    50.00 Ry     beta= 0.10
     Davidson diagonalization with overlap
     ethr =  2.74E-06,  avg # of iterations =  1.5

     negative rho (up, down):  8.856E-07 5.823E-07
 
     Adding external electric field

     Computed dipole along edir(3) : 
        Dipole               -0.3520 Ry au,         -0.8947 Debye
        Dipole field         -0.0002 Ry au, 
 
        Potential amp.        0.0236 Ry
        Total length         54.2615 bohr
 
 
     Adding external electric field

     Computed dipole along edir(3) : 
        Dipole               -0.3520 Ry au,         -0.8947 Debye
        Dipole field         -0.0002 Ry au, 
 
        Potential amp.        0.0236 Ry
        Total length         54.2615 bohr
 

     total cpu time spent up to now is      457.3 secs

     total energy              =   -7398.03288250 Ry
     estimated scf accuracy    <       0.01970273 Ry

     total magnetization       =    80.03 Bohr mag/cell
     absolute magnetization    =    81.70 Bohr mag/cell

     iteration # 33     ecut=    50.00 Ry     beta= 0.10
     Davidson diagonalization with overlap
     ethr =  1.83E-06,  avg # of iterations =  1.5

     negative rho (up, down):  1.591E-06 1.165E-06
 
     Adding external electric field

     Computed dipole along edir(3) : 
        Dipole               -0.3655 Ry au,         -0.9289 Debye
        Dipole field         -0.0002 Ry au, 
 
        Potential amp.        0.0245 Ry
        Total length         54.2615 bohr
 
 
     Adding external electric field

     Computed dipole along edir(3) : 
        Dipole               -0.3655 Ry au,         -0.9289 Debye
        Dipole field         -0.0002 Ry au, 
 
        Potential amp.        0.0245 Ry
        Total length         54.2615 bohr
 

     total cpu time spent up to now is      468.7 secs

     total energy              =   -7398.03318802 Ry
     estimated scf accuracy    <       0.04564542 Ry

     total magnetization       =    80.07 Bohr mag/cell
     absolute magnetization    =    81.64 Bohr mag/cell

     iteration # 34     ecut=    50.00 Ry     beta= 0.10
     Davidson diagonalization with overlap
     ethr =  1.83E-06,  avg # of iterations =  1.5

     negative rho (up, down):  1.718E-06 1.016E-06
 
     Adding external electric field

     Computed dipole along edir(3) : 
        Dipole               -0.3102 Ry au,         -0.7885 Debye
        Dipole field         -0.0002 Ry au, 
 
        Potential amp.        0.0208 Ry
        Total length         54.2615 bohr
 
 
     Adding external electric field

     Computed dipole along edir(3) : 
        Dipole               -0.3102 Ry au,         -0.7885 Debye
        Dipole field         -0.0002 Ry au, 
 
        Potential amp.        0.0208 Ry
        Total length         54.2615 bohr
 

     total cpu time spent up to now is      480.5 secs

     total energy              =   -7398.03267797 Ry
     estimated scf accuracy    <       0.03758327 Ry

     total magnetization       =    80.17 Bohr mag/cell
     absolute magnetization    =    81.72 Bohr mag/cell

     iteration # 35     ecut=    50.00 Ry     beta= 0.10
     Davidson diagonalization with overlap
     c_bands:  3 eigenvalues not converged
     ethr =  1.83E-06,  avg # of iterations = 10.5

     negative rho (up, down):  9.572E-07 4.719E-07
 
     Adding external electric field

     Computed dipole along edir(3) : 
        Dipole               -0.3596 Ry au,         -0.9140 Debye
        Dipole field         -0.0002 Ry au, 
 
        Potential amp.        0.0241 Ry
        Total length         54.2615 bohr
 
 
     Adding external electric field

     Computed dipole along edir(3) : 
        Dipole               -0.3596 Ry au,         -0.9140 Debye
        Dipole field         -0.0002 Ry au, 
 
        Potential amp.        0.0241 Ry
        Total length         54.2615 bohr
 

     total cpu time spent up to now is      496.6 secs

     total energy              =   -7398.03304227 Ry
     estimated scf accuracy    <       0.04600833 Ry

     total magnetization       =    80.13 Bohr mag/cell
     absolute magnetization    =    81.64 Bohr mag/cell

     iteration # 36     ecut=    50.00 Ry     beta= 0.10
     Davidson diagonalization with overlap
     ethr =  1.83E-06,  avg # of iterations =  2.5

     negative rho (up, down):  1.121E-06 8.219E-07
 
     Adding external electric field

     Computed dipole along edir(3) : 
        Dipole               -0.3893 Ry au,         -0.9894 Debye
        Dipole field         -0.0002 Ry au, 
 
        Potential amp.        0.0261 Ry
        Total length         54.2615 bohr
 
 
     Adding external electric field

     Computed dipole along edir(3) : 
        Dipole               -0.3893 Ry au,         -0.9894 Debye
        Dipole field         -0.0002 Ry au, 
 
        Potential amp.        0.0261 Ry
        Total length         54.2615 bohr
 

     total cpu time spent up to now is      508.7 secs

     total energy              =   -7398.03349196 Ry
     estimated scf accuracy    <       0.03764253 Ry

     total magnetization       =    80.16 Bohr mag/cell
     absolute magnetization    =    81.65 Bohr mag/cell

     iteration # 37     ecut=    50.00 Ry     beta= 0.10
     Davidson diagonalization with overlap
     ethr =  1.83E-06,  avg # of iterations =  1.5

     negative rho (up, down):  1.481E-06 1.160E-06
 
     Adding external electric field

     Computed dipole along edir(3) : 
        Dipole               -0.3293 Ry au,         -0.8370 Debye
        Dipole field         -0.0002 Ry au, 
 
        Potential amp.        0.0221 Ry
        Total length         54.2615 bohr
 
 
     Adding external electric field

     Computed dipole along edir(3) : 
        Dipole               -0.3293 Ry au,         -0.8370 Debye
        Dipole field         -0.0002 Ry au, 
 
        Potential amp.        0.0221 Ry
        Total length         54.2615 bohr
 

     total cpu time spent up to now is      520.3 secs

     total energy              =   -7398.03308591 Ry
     estimated scf accuracy    <       0.03926970 Ry

     total magnetization       =    80.07 Bohr mag/cell
     absolute magnetization    =    81.57 Bohr mag/cell

     iteration # 38     ecut=    50.00 Ry     beta= 0.10
     Davidson diagonalization with overlap
     ethr =  1.83E-06,  avg # of iterations =  1.0

     negative rho (up, down):  2.263E-06 2.144E-06
 
     Adding external electric field

     Computed dipole along edir(3) : 
        Dipole               -0.3153 Ry au,         -0.8015 Debye
        Dipole field         -0.0002 Ry au, 
 
        Potential amp.        0.0212 Ry
        Total length         54.2615 bohr
 
 
     Adding external electric field

     Computed dipole along edir(3) : 
        Dipole               -0.3153 Ry au,         -0.8015 Debye
        Dipole field         -0.0002 Ry au, 
 
        Potential amp.        0.0212 Ry
        Total length         54.2615 bohr
 

     total cpu time spent up to now is      531.3 secs

     total energy              =   -7398.03305370 Ry
     estimated scf accuracy    <       0.03861277 Ry

     total magnetization       =    80.07 Bohr mag/cell
     absolute magnetization    =    81.62 Bohr mag/cell

     iteration # 39     ecut=    50.00 Ry     beta= 0.10
     Davidson diagonalization with overlap
     ethr =  1.83E-06,  avg # of iterations =  1.5

     negative rho (up, down):  1.097E-06 8.737E-07
 
     Adding external electric field

     Computed dipole along edir(3) : 
        Dipole               -0.3370 Ry au,         -0.8565 Debye
        Dipole field         -0.0002 Ry au, 
 
        Potential amp.        0.0226 Ry
        Total length         54.2615 bohr
 
 
     Adding external electric field

     Computed dipole along edir(3) : 
        Dipole               -0.3370 Ry au,         -0.8565 Debye
        Dipole field         -0.0002 Ry au, 
 
        Potential amp.        0.0226 Ry
        Total length         54.2615 bohr
 

     total cpu time spent up to now is      543.7 secs

     total energy              =   -7398.03307355 Ry
     estimated scf accuracy    <       0.03860777 Ry

     total magnetization       =    80.04 Bohr mag/cell
     absolute magnetization    =    81.62 Bohr mag/cell

     iteration # 40     ecut=    50.00 Ry     beta= 0.10
     Davidson diagonalization with overlap
     ethr =  1.83E-06,  avg # of iterations =  1.0

     negative rho (up, down):  1.167E-06 1.134E-06
 
     Adding external electric field

     Computed dipole along edir(3) : 
        Dipole               -0.3669 Ry au,         -0.9327 Debye
        Dipole field         -0.0002 Ry au, 
 
        Potential amp.        0.0246 Ry
        Total length         54.2615 bohr
 
 
     Adding external electric field

     Computed dipole along edir(3) : 
        Dipole               -0.3669 Ry au,         -0.9327 Debye
        Dipole field         -0.0002 Ry au, 
 
        Potential amp.        0.0246 Ry
        Total length         54.2615 bohr
 

     total cpu time spent up to now is      555.2 secs

     total energy              =   -7398.03311111 Ry
     estimated scf accuracy    <       0.03483720 Ry

     total magnetization       =    80.05 Bohr mag/cell
     absolute magnetization    =    81.64 Bohr mag/cell

     iteration # 41     ecut=    50.00 Ry     beta= 0.10
     Davidson diagonalization with overlap
     ethr =  1.83E-06,  avg # of iterations =  1.0

     negative rho (up, down):  7.754E-06 6.968E-06
 
     Adding external electric field

     Computed dipole along edir(3) : 
        Dipole               -0.4078 Ry au,         -1.0364 Debye
        Dipole field         -0.0003 Ry au, 
 
        Potential amp.        0.0274 Ry
        Total length         54.2615 bohr
 
 
     Adding external electric field

     Computed dipole along edir(3) : 
        Dipole               -0.4078 Ry au,         -1.0364 Debye
        Dipole field         -0.0003 Ry au, 
 
        Potential amp.        0.0274 Ry
        Total length         54.2615 bohr
 

     total cpu time spent up to now is      566.0 secs

     total energy              =   -7398.03321175 Ry
     estimated scf accuracy    <       0.02914021 Ry

     total magnetization       =    80.11 Bohr mag/cell
     absolute magnetization    =    81.75 Bohr mag/cell

     iteration # 42     ecut=    50.00 Ry     beta= 0.10
     Davidson diagonalization with overlap
     ethr =  1.83E-06,  avg # of iterations =  1.0

     negative rho (up, down):  6.246E-06 4.537E-06
 
     Adding external electric field

     Computed dipole along edir(3) : 
        Dipole               -0.4185 Ry au,         -1.0638 Debye
        Dipole field         -0.0003 Ry au, 
 
        Potential amp.        0.0281 Ry
        Total length         54.2615 bohr
 
 
     Adding external electric field

     Computed dipole along edir(3) : 
        Dipole               -0.4185 Ry au,         -1.0638 Debye
        Dipole field         -0.0003 Ry au, 
 
        Potential amp.        0.0281 Ry
        Total length         54.2615 bohr
 

     total cpu time spent up to now is      576.9 secs

     total energy              =   -7398.03301304 Ry
     estimated scf accuracy    <       0.02645596 Ry

     total magnetization       =    80.14 Bohr mag/cell
     absolute magnetization    =    81.72 Bohr mag/cell

     iteration # 43     ecut=    50.00 Ry     beta= 0.10
     Davidson diagonalization with overlap
     ethr =  1.83E-06,  avg # of iterations =  1.0

     negative rho (up, down):  4.983E-06 4.165E-06
 
     Adding external electric field

     Computed dipole along edir(3) : 
        Dipole               -0.3903 Ry au,         -0.9921 Debye
        Dipole field         -0.0002 Ry au, 
 
        Potential amp.        0.0262 Ry
        Total length         54.2615 bohr
 
 
     Adding external electric field

     Computed dipole along edir(3) : 
        Dipole               -0.3903 Ry au,         -0.9921 Debye
        Dipole field         -0.0002 Ry au, 
 
        Potential amp.        0.0262 Ry
        Total length         54.2615 bohr
 

     total cpu time spent up to now is      587.7 secs

     total energy              =   -7398.03325177 Ry
     estimated scf accuracy    <       0.02811305 Ry

     total magnetization       =    80.16 Bohr mag/cell
     absolute magnetization    =    81.76 Bohr mag/cell

     iteration # 44     ecut=    50.00 Ry     beta= 0.10
     Davidson diagonalization with overlap
     ethr =  1.83E-06,  avg # of iterations =  1.0

     negative rho (up, down):  3.113E-05 3.178E-05
 
     Adding external electric field

     Computed dipole along edir(3) : 
        Dipole               -0.4369 Ry au,         -1.1105 Debye
        Dipole field         -0.0003 Ry au, 
 
        Potential amp.        0.0293 Ry
        Total length         54.2615 bohr
 
 
     Adding external electric field

     Computed dipole along edir(3) : 
        Dipole               -0.4369 Ry au,         -1.1105 Debye
        Dipole field         -0.0003 Ry au, 
 
        Potential amp.        0.0293 Ry
        Total length         54.2615 bohr
 

     total cpu time spent up to now is      598.7 secs

     total energy              =   -7398.03282953 Ry
     estimated scf accuracy    <       0.02852137 Ry

     total magnetization       =    80.14 Bohr mag/cell
     absolute magnetization    =    81.67 Bohr mag/cell

     iteration # 45     ecut=    50.00 Ry     beta= 0.10
     Davidson diagonalization with overlap
     ethr =  1.83E-06,  avg # of iterations =  2.0

     negative rho (up, down):  8.599E-06 8.297E-06
 
     Adding external electric field

     Computed dipole along edir(3) : 
        Dipole               -0.4531 Ry au,         -1.1517 Debye
        Dipole field         -0.0003 Ry au, 
 
        Potential amp.        0.0304 Ry
        Total length         54.2615 bohr
 
 
     Adding external electric field

     Computed dipole along edir(3) : 
        Dipole               -0.4531 Ry au,         -1.1517 Debye
        Dipole field         -0.0003 Ry au, 
 
        Potential amp.        0.0304 Ry
        Total length         54.2615 bohr
 

     total cpu time spent up to now is      611.0 secs

     total energy              =   -7398.03353094 Ry
     estimated scf accuracy    <       0.02943350 Ry

     total magnetization       =    80.13 Bohr mag/cell
     absolute magnetization    =    81.79 Bohr mag/cell

     iteration # 46     ecut=    50.00 Ry     beta= 0.10
     Davidson diagonalization with overlap
     ethr =  1.83E-06,  avg # of iterations =  1.5

     negative rho (up, down):  6.523E-06 4.990E-06
 
     Adding external electric field

     Computed dipole along edir(3) : 
        Dipole               -0.3425 Ry au,         -0.8706 Debye
        Dipole field         -0.0002 Ry au, 
 
        Potential amp.        0.0230 Ry
        Total length         54.2615 bohr
 
 
     Adding external electric field

     Computed dipole along edir(3) : 
        Dipole               -0.3425 Ry au,         -0.8706 Debye
        Dipole field         -0.0002 Ry au, 
 
        Potential amp.        0.0230 Ry
        Total length         54.2615 bohr
 

     total cpu time spent up to now is      622.5 secs

     total energy              =   -7398.03253462 Ry
     estimated scf accuracy    <       0.02611542 Ry

     total magnetization       =    80.13 Bohr mag/cell
     absolute magnetization    =    81.72 Bohr mag/cell

     iteration # 47     ecut=    50.00 Ry     beta= 0.10
     Davidson diagonalization with overlap
     ethr =  1.83E-06,  avg # of iterations =  1.5

     negative rho (up, down):  8.574E-06 7.046E-06
 
     Adding external electric field

     Computed dipole along edir(3) : 
        Dipole               -0.3653 Ry au,         -0.9286 Debye
        Dipole field         -0.0002 Ry au, 
 
        Potential amp.        0.0245 Ry
        Total length         54.2615 bohr
 
 
     Adding external electric field

     Computed dipole along edir(3) : 
        Dipole               -0.3653 Ry au,         -0.9286 Debye
        Dipole field         -0.0002 Ry au, 
 
        Potential amp.        0.0245 Ry
        Total length         54.2615 bohr
 

     total cpu time spent up to now is      634.2 secs

     total energy              =   -7398.03281027 Ry
     estimated scf accuracy    <       0.02769441 Ry

     total magnetization       =    80.15 Bohr mag/cell
     absolute magnetization    =    81.72 Bohr mag/cell

     iteration # 48     ecut=    50.00 Ry     beta= 0.10
     Davidson diagonalization with overlap
     ethr =  1.83E-06,  avg # of iterations =  1.0

     negative rho (up, down):  7.293E-05 7.186E-05
 
     Adding external electric field

     Computed dipole along edir(3) : 
        Dipole               -0.3100 Ry au,         -0.7880 Debye
        Dipole field         -0.0002 Ry au, 
 
        Potential amp.        0.0208 Ry
        Total length         54.2615 bohr
 
 
     Adding external electric field

     Computed dipole along edir(3) : 
        Dipole               -0.3100 Ry au,         -0.7880 Debye
        Dipole field         -0.0002 Ry au, 
 
        Potential amp.        0.0208 Ry
        Total length         54.2615 bohr
 

     total cpu time spent up to now is      645.1 secs

     total energy              =   -7398.03225823 Ry
     estimated scf accuracy    <       0.02674002 Ry

     total magnetization       =    80.16 Bohr mag/cell
     absolute magnetization    =    81.73 Bohr mag/cell

     iteration # 49     ecut=    50.00 Ry     beta= 0.10
     Davidson diagonalization with overlap
     ethr =  1.83E-06,  avg # of iterations =  2.0

     negative rho (up, down):  1.716E-05 1.832E-05
 
     Adding external electric field

     Computed dipole along edir(3) : 
        Dipole               -0.4018 Ry au,         -1.0213 Debye
        Dipole field         -0.0002 Ry au, 
 
        Potential amp.        0.0270 Ry
        Total length         54.2615 bohr
 
 
     Adding external electric field

     Computed dipole along edir(3) : 
        Dipole               -0.4018 Ry au,         -1.0213 Debye
        Dipole field         -0.0002 Ry au, 
 
        Potential amp.        0.0270 Ry
        Total length         54.2615 bohr
 

     total cpu time spent up to now is      657.7 secs

     total energy              =   -7398.03337311 Ry
     estimated scf accuracy    <       0.02611519 Ry

     total magnetization       =    80.19 Bohr mag/cell
     absolute magnetization    =    81.80 Bohr mag/cell

     iteration # 50     ecut=    50.00 Ry     beta= 0.10
     Davidson diagonalization with overlap
     ethr =  1.83E-06,  avg # of iterations =  1.0

     negative rho (up, down):  1.516E-05 1.119E-05
 
     Adding external electric field

     Computed dipole along edir(3) : 
        Dipole               -0.4140 Ry au,         -1.0522 Debye
        Dipole field         -0.0003 Ry au, 
 
        Potential amp.        0.0278 Ry
        Total length         54.2615 bohr
 
 
     Adding external electric field

     Computed dipole along edir(3) : 
        Dipole               -0.4140 Ry au,         -1.0522 Debye
        Dipole field         -0.0003 Ry au, 
 
        Potential amp.        0.0278 Ry
        Total length         54.2615 bohr
 

     total cpu time spent up to now is      668.4 secs

     total energy              =   -7398.03263079 Ry
     estimated scf accuracy    <       0.02861220 Ry

     total magnetization       =    80.08 Bohr mag/cell
     absolute magnetization    =    81.65 Bohr mag/cell

     iteration # 51     ecut=    50.00 Ry     beta= 0.10
     Davidson diagonalization with overlap
     ethr =  1.83E-06,  avg # of iterations =  1.0

     negative rho (up, down):  1.291E-04 1.007E-04
 
     Adding external electric field

     Computed dipole along edir(3) : 
        Dipole               -0.2589 Ry au,         -0.6580 Debye
        Dipole field         -0.0002 Ry au, 
 
        Potential amp.        0.0174 Ry
        Total length         54.2615 bohr
 
 
     Adding external electric field

     Computed dipole along edir(3) : 
        Dipole               -0.2589 Ry au,         -0.6580 Debye
        Dipole field         -0.0002 Ry au, 
 
        Potential amp.        0.0174 Ry
        Total length         54.2615 bohr
 

     total cpu time spent up to now is      679.5 secs

     total energy              =   -7398.03154587 Ry
     estimated scf accuracy    <       0.02650929 Ry

     total magnetization       =    80.19 Bohr mag/cell
     absolute magnetization    =    81.71 Bohr mag/cell

     iteration # 52     ecut=    50.00 Ry     beta= 0.10
     Davidson diagonalization with overlap
     ethr =  1.83E-06,  avg # of iterations =  2.0

     negative rho (up, down):  1.417E-05 1.071E-05
 
     Adding external electric field

     Computed dipole along edir(3) : 
        Dipole               -0.3681 Ry au,         -0.9357 Debye
        Dipole field         -0.0002 Ry au, 
 
        Potential amp.        0.0247 Ry
        Total length         54.2615 bohr
 
 
     Adding external electric field

     Computed dipole along edir(3) : 
        Dipole               -0.3681 Ry au,         -0.9357 Debye
        Dipole field         -0.0002 Ry au, 
 
        Potential amp.        0.0247 Ry
        Total length         54.2615 bohr
 

     total cpu time spent up to now is      691.7 secs

     total energy              =   -7398.03294044 Ry
     estimated scf accuracy    <       0.02911886 Ry

     total magnetization       =    80.21 Bohr mag/cell
     absolute magnetization    =    81.79 Bohr mag/cell

     iteration # 53     ecut=    50.00 Ry     beta= 0.10
     Davidson diagonalization with overlap
     ethr =  1.83E-06,  avg # of iterations =  1.0

     negative rho (up, down):  9.703E-06 1.919E-05
 
     Adding external electric field

     Computed dipole along edir(3) : 
        Dipole               -0.3399 Ry au,         -0.8640 Debye
        Dipole field         -0.0002 Ry au, 
 
        Potential amp.        0.0228 Ry
        Total length         54.2615 bohr
 
 
     Adding external electric field

     Computed dipole along edir(3) : 
        Dipole               -0.3399 Ry au,         -0.8640 Debye
        Dipole field         -0.0002 Ry au, 
 
        Potential amp.        0.0228 Ry
        Total length         54.2615 bohr
 

     total cpu time spent up to now is      702.7 secs

     total energy              =   -7398.03173094 Ry
     estimated scf accuracy    <       0.02863085 Ry

     total magnetization       =    80.13 Bohr mag/cell
     absolute magnetization    =    81.76 Bohr mag/cell

     iteration # 54     ecut=    50.00 Ry     beta= 0.10
     Davidson diagonalization with overlap
     ethr =  1.83E-06,  avg # of iterations =  1.5

     negative rho (up, down):  3.250E-05 3.623E-05
 
     Adding external electric field

     Computed dipole along edir(3) : 
        Dipole               -0.4705 Ry au,         -1.1960 Debye
        Dipole field         -0.0003 Ry au, 
 
        Potential amp.        0.0316 Ry
        Total length         54.2615 bohr
 
 
     Adding external electric field

     Computed dipole along edir(3) : 
        Dipole               -0.4705 Ry au,         -1.1960 Debye
        Dipole field         -0.0003 Ry au, 
 
        Potential amp.        0.0316 Ry
        Total length         54.2615 bohr
 

     total cpu time spent up to now is      714.5 secs

     total energy              =   -7398.03108252 Ry
     estimated scf accuracy    <       0.03055848 Ry

     total magnetization       =    80.13 Bohr mag/cell
     absolute magnetization    =    81.54 Bohr mag/cell

     iteration # 55     ecut=    50.00 Ry     beta= 0.10
     Davidson diagonalization with overlap
     ethr =  1.83E-06,  avg # of iterations =  2.0

     negative rho (up, down):  5.482E-05 4.952E-05
 
     Adding external electric field

     Computed dipole along edir(3) : 
        Dipole               -0.2470 Ry au,         -0.6279 Debye
        Dipole field         -0.0002 Ry au, 
 
        Potential amp.        0.0166 Ry
        Total length         54.2615 bohr
 
 
     Adding external electric field

     Computed dipole along edir(3) : 
        Dipole               -0.2470 Ry au,         -0.6279 Debye
        Dipole field         -0.0002 Ry au, 
 
        Potential amp.        0.0166 Ry
        Total length         54.2615 bohr
 

     total cpu time spent up to now is      726.6 secs

     total energy              =   -7398.03164360 Ry
     estimated scf accuracy    <       0.02824251 Ry

     total magnetization       =    80.15 Bohr mag/cell
     absolute magnetization    =    81.86 Bohr mag/cell

     iteration # 56     ecut=    50.00 Ry     beta= 0.10
     Davidson diagonalization with overlap
     ethr =  1.83E-06,  avg # of iterations =  2.0

     negative rho (up, down):  8.979E-06 1.051E-05
 
     Adding external electric field

     Computed dipole along edir(3) : 
        Dipole               -0.2735 Ry au,         -0.6952 Debye
        Dipole field         -0.0002 Ry au, 
 
        Potential amp.        0.0184 Ry
        Total length         54.2615 bohr
 
 
     Adding external electric field

     Computed dipole along edir(3) : 
        Dipole               -0.2735 Ry au,         -0.6952 Debye
        Dipole field         -0.0002 Ry au, 
 
        Potential amp.        0.0184 Ry
        Total length         54.2615 bohr
 

     total cpu time spent up to now is      738.3 secs

     total energy              =   -7398.03235669 Ry
     estimated scf accuracy    <       0.02912804 Ry

     total magnetization       =    80.16 Bohr mag/cell
     absolute magnetization    =    81.77 Bohr mag/cell

     iteration # 57     ecut=    50.00 Ry     beta= 0.10
     Davidson diagonalization with overlap
     ethr =  1.83E-06,  avg # of iterations =  2.0

     negative rho (up, down):  7.932E-05 5.262E-05
 
     Adding external electric field

     Computed dipole along edir(3) : 
        Dipole               -0.4280 Ry au,         -1.0878 Debye
        Dipole field         -0.0003 Ry au, 
 
        Potential amp.        0.0287 Ry
        Total length         54.2615 bohr
 
 
     Adding external electric field

     Computed dipole along edir(3) : 
        Dipole               -0.4280 Ry au,         -1.0878 Debye
        Dipole field         -0.0003 Ry au, 
 
        Potential amp.        0.0287 Ry
        Total length         54.2615 bohr
 

     total cpu time spent up to now is      750.1 secs

     total energy              =   -7398.03189030 Ry
     estimated scf accuracy    <       0.03345654 Ry

     total magnetization       =    80.11 Bohr mag/cell
     absolute magnetization    =    81.73 Bohr mag/cell

     iteration # 58     ecut=    50.00 Ry     beta= 0.10
     Davidson diagonalization with overlap
     ethr =  1.83E-06,  avg # of iterations =  2.0

     negative rho (up, down):  2.123E-05 1.572E-05
 
     Adding external electric field

     Computed dipole along edir(3) : 
        Dipole               -0.4985 Ry au,         -1.2671 Debye
[...]
    -5.9508  -5.9337  -5.9203  -5.9110  -5.8834  -5.8548  -5.8176  -5.8116
    -5.7783  -5.7640  -5.7560  -5.7349  -5.7232  -5.6928  -5.6798  -5.6474
    -5.6411  -5.6271  -5.5985  -5.5900  -5.5803  -5.5617  -5.5271  -5.4796
    -5.4616  -5.4243  -5.3965  -5.3889  -5.3588  -5.3456  -5.3145  -5.2792
    -5.2374  -5.2036  -5.1876  -5.1413  -5.1021  -5.0751  -5.0312  -5.0258
    -4.9975  -4.9709  -4.9568  -4.9076  -4.8938  -4.8614  -4.8412  -4.8239
    -4.7904  -4.7533  -4.6955  -4.6931  -4.6587  -4.6194  -4.5683  -4.5594
    -4.4950  -4.4875  -4.4511  -4.4293  -4.4203  -4.3678  -4.3569  -4.3286
    -4.3115  -4.2643  -4.2123  -4.1890  -4.1571  -4.1271  -4.1174  -4.0927
    -4.0450  -4.0053  -3.9910  -3.9669  -3.9504  -3.9154  -3.9044  -3.8770
    -3.8563  -3.8401  -3.8166  -3.7867  -3.7771  -3.7232  -3.7123  -3.7027
    -3.6828  -3.6711  -3.6337  -3.6322  -3.6306  -3.5989  -3.5895  -3.5218
    -3.5132  -3.4936  -3.4878  -3.4781  -3.4698  -3.4555  -3.4276  -3.4241
    -3.4150  -3.3690  -3.3477  -3.3361  -3.3278  -3.3059  -3.2753  -3.2430
    -3.2227  -3.2036  -3.1723  -3.1600  -3.1436  -3.1311  -3.1191  -3.1130
    -3.0889  -3.0709  -3.0473  -3.0260  -2.9961  -2.9772  -2.9600  -2.9337
    -2.9014  -2.8924  -2.8826  -2.8628  -2.8284  -2.8204  -2.7913  -2.7766
    -2.7630  -2.7553  -2.7359  -2.7320  -2.7250  -2.7108  -2.7051  -2.6994
    -2.6719  -2.6557  -2.6338  -2.6131  -2.6019  -2.6004  -2.5728  -2.5481
    -2.5379  -2.5199  -2.5057  -2.4773  -2.4648  -2.4522  -2.4444  -2.4278
    -2.3889  -2.3829  -2.3702  -2.3543  -2.3218  -2.3111  -2.2737  -2.2619
    -2.2576  -2.2206  -2.2108  -2.1851  -2.1736  -2.1663  -2.1187  -2.1012
    -2.0945  -2.0728  -2.0581  -2.0458  -2.0359  -2.0183  -1.9869  -1.9705
    -1.9621  -1.9465  -1.9385  -1.9319  -1.8962  -1.8763  -1.8645  -1.8400
    -1.8209  -1.8023  -1.7690  -1.7574  -1.7316  -1.7275  -1.6981  -1.6840
    -1.6642  -1.6541  -1.6380  -1.6025  -1.5935  -1.5707  -1.5624  -1.5303
    -1.5104  -1.4912  -1.4903  -1.4699  -1.4328  -1.4235  -1.3977  -1.3963
    -1.3721  -1.3546  -1.3126  -1.2862  -1.2692  -1.2396  -1.2243  -1.2161
    -1.1444  -1.1231  -1.0773  -1.0050  -0.9572  -0.9395  -0.8539  -0.8366
    -0.7967  -0.7558  -0.6930  -0.5058  -0.3637  -0.2931  -0.2810  -0.1886
     0.1352   0.1561   0.1865   0.2253   0.2566   0.2644   0.2754   0.2783
     0.3051   0.3078   0.3392   0.3455   0.3491   0.3593   0.3669   0.3791
     0.3821   0.3849   0.3973   0.4110   0.4200   0.4283   0.4301   0.4415
     0.4420   0.4496   0.4609   0.4705   0.4712   0.4769   0.4815   0.4901
     0.5012   0.5127   0.5161   0.5204   0.5276   0.5326   0.5331   0.5495
     0.5612   0.5663   0.5737   0.5758   0.5818   0.5867   0.5917   0.6106
     0.6154   0.6290   0.6305   0.6392   0.6462   0.6490   0.6548   0.6705
     0.6730   0.6771   0.6845   0.6869   0.7008   0.7022   0.7119   0.7225
     0.7259   0.7336   0.7404   0.7540   0.7594   0.7733   0.7743   0.7806
     0.7918   0.7941   0.8042   0.8157   0.8322   0.8415   0.8577   0.8647
     0.8761   0.8841   0.8905   0.8948   0.9059   0.9116   0.9197   0.9212
     0.9330   0.9450   0.9680   0.9702   0.9831   0.9972   1.0272   1.0413
     1.1514   1.1851   1.6224   1.7045   1.7081   1.7134   1.7417   1.7495
     1.7636   1.8450   1.8753   1.8981   1.9242   1.9617   1.9696   1.9797
     1.9974   2.0423   2.0473   2.0549   2.0705   2.0753   2.0958   2.1276
     2.1547   2.1733   2.1925   2.2035   2.2200   2.2322   2.2664   2.2693
     2.2861   2.2876   2.2998   2.3129   2.3204   2.3325   2.3492   2.3594
     2.3621   2.3829   2.4024   2.4063   2.4268   2.4444   2.4542   2.4687
     2.4902   2.5101   2.5185   2.5252   2.5344   2.5634   2.5798   2.6047
     2.6191   2.6270   2.6374   2.6433   2.7067   2.7462   2.7710   2.8226
     2.8426   2.8488   2.8759   2.8978   2.9392   3.2358   3.2796   3.4528
     3.5333   3.8175   3.8848   3.9622   4.0250   4.0491   4.1075   4.4988
     4.6649   4.7869   4.9126   4.9302   4.9700   5.0770   5.4318   6.3302
     6.3798   6.5287   6.6035   6.7424   6.8093   6.8226   6.8820   6.9186
     7.0337   7.0943   7.1542   7.1686   7.3439   7.3499   7.3874   7.4355
     7.5557   7.5838   7.6309   7.6821   7.7289   7.7549   7.8260   7.8691
     7.8934   7.9418   7.9620   8.0102   8.0356   8.0626   8.0849   8.1086
     8.1415   8.1600   8.2066   8.2213   8.2519   8.2830   8.3223   8.3348
     8.3622   8.3849   8.4379   8.4695   8.4846   8.5127   8.5291   8.5359
     8.5482   8.5710   8.5945   8.6067   8.6368   8.6511   8.6826   8.6880
     8.7238   8.7502   8.8052   8.8225   8.8354   8.8713   8.9092

     the Fermi energy is     1.5981 ev

!    total energy              =   -7398.02996962 Ry
     estimated scf accuracy    <       0.00000077 Ry
     smearing contrib. (-TS)   =      -0.01663466 Ry
     internal energy E=F+TS    =   -7398.01333496 Ry

     The total energy is F=E-TS. E is the sum of the following terms:
     one-electron contribution =  -91646.21071371 Ry
     hartree contribution      =   46471.42757956 Ry
     xc contribution           =   -2260.27533049 Ry
     ewald contribution        =   40038.87786868 Ry
     Dispersion Correction     =      -1.83279455 Ry
     electric field correction =       0.00005555 Ry

     total magnetization       =    80.09 Bohr mag/cell
     absolute magnetization    =    81.62 Bohr mag/cell

     convergence has been achieved in  94 iterations

     negative rho (up, down):  9.325E-04 5.510E-04

     Forces acting on atoms (cartesian axes, Ry/au):

     atom    1 type  2   force =    -0.00034420   -0.00097361    0.00007898
     atom    2 type  1   force =    -0.00027843   -0.00024159   -0.00024920
     atom    3 type  1   force =     0.00136047    0.00074097    0.00133954
     atom    4 type  1   force =    -0.00028091   -0.00007374    0.00022270
     atom    5 type  1   force =     0.00034754   -0.00028570    0.00011718
     atom    6 type  1   force =    -0.00037007    0.00039442    0.00036684
     atom    7 type  1   force =    -0.00026955    0.00058661    0.00039178
     atom    8 type  1   force =    -0.00010968    0.00016017    0.00042416
     atom    9 type  1   force =     0.00018840    0.00044830   -0.00014008
     atom   10 type  1   force =    -0.00005723    0.00024433   -0.00011087
     atom   11 type  1   force =    -0.00009398   -0.00001375   -0.00003854
     atom   12 type  1   force =     0.00006592    0.00015813    0.00002137
     atom   13 type  3   force =    -0.00016220    0.00028522   -0.00036761
     atom   14 type  3   force =    -0.00023080   -0.00005480    0.00008162
     atom   15 type  3   force =    -0.00025270    0.00030474   -0.00047801
     atom   16 type  3   force =     0.00030056    0.00013598    0.00044982
     atom   17 type  4   force =     0.00022892    0.00059965    0.00003440
     atom   18 type  4   force =    -0.00001881   -0.00045903   -0.00031578
     atom   19 type  4   force =     0.00046451    0.00023708    0.00009026
     atom   20 type  4   force =     0.00029734   -0.00008289    0.00006222
     atom   21 type  4   force =    -0.00025046   -0.00041193    0.00010395
     atom   22 type  4   force =     0.00039535   -0.00012062   -0.00005154
     atom   23 type  4   force =    -0.00025611    0.00095542    0.00046433
     atom   24 type  4   force =    -0.00021979    0.00023923   -0.00014433
     atom   25 type  4   force =    -0.00004509   -0.00008220   -0.00025647
     atom   26 type  4   force =    -0.00001854    0.00101330    0.00075638
     atom   27 type  4   force =     0.00022703    0.00006026   -0.00027268
     atom   28 type  4   force =    -0.00015101    0.00019399    0.00022726
     atom   29 type  4   force =     0.00060849    0.00020286    0.00013638
     atom   30 type  4   force =     0.00000367    0.00030782   -0.00001671
     atom   31 type  4   force =     0.00038469    0.00041553    0.00013111
     atom   32 type  4   force =    -0.00005772    0.00016275    0.00020581
     atom   33 type  3   force =     0.00059261   -0.00009604   -0.00024775
     atom   34 type  3   force =     0.00061298   -0.00013813   -0.00015144
     atom   35 type  3   force =     0.00009136    0.00012143    0.00050187
     atom   36 type  3   force =    -0.00013476    0.00005351   -0.00027163
     atom   37 type  4   force =    -0.00012309   -0.00003135   -0.00035545
     atom   38 type  4   force =    -0.00030046    0.00018910   -0.00088513
     atom   39 type  4   force =    -0.00020284   -0.00008591    0.00011933
     atom   40 type  4   force =     0.00012137    0.00017048   -0.00008492
     atom   41 type  4   force =     0.00032334   -0.00014416   -0.00016019
     atom   42 type  4   force =    -0.00008243   -0.00007606    0.00014490
     atom   43 type  4   force =    -0.00041496   -0.00020391    0.00025081
     atom   44 type  4   force =     0.00027446    0.00006995   -0.00059752
     atom   45 type  4   force =     0.00034440    0.00011910    0.00018266
     atom   46 type  4   force =    -0.00004863   -0.00035028   -0.00052535
     atom   47 type  4   force =    -0.00031995   -0.00017220   -0.00009960
     atom   48 type  4   force =    -0.00009202   -0.00026423   -0.00051365
     atom   49 type  4   force =     0.00065979   -0.00007044   -0.00034312
     atom   50 type  4   force =    -0.00006139    0.00097153    0.00021627
     atom   51 type  4   force =    -0.00013748    0.00048577   -0.00001792
     atom   52 type  4   force =    -0.00001692    0.00012810   -0.00035178
     atom   53 type  2   force =     0.00159084   -0.00337842    0.00588770
     atom   54 type  1   force =     0.00509233   -0.00211525    0.00357808
     atom   55 type  1   force =     0.00860218   -0.00247078    0.00524640
     atom   56 type  1   force =    -0.00189981    0.01022889    0.00581685
     atom   57 type  1   force =     0.00022248    0.02301162    0.01441146
     atom   58 type  1   force =     0.00198377   -0.00320702   -0.00189163
     atom   59 type  1   force =     0.00128635   -0.00875095    0.00020470
     atom   60 type  1   force =    -0.00513275   -0.00182440    0.00444092
     atom   61 type  1   force =    -0.00272483   -0.00154497    0.00332914
     atom   62 type  1   force =    -0.00430839    0.00815842    0.00570455
     atom   63 type  1   force =    -0.01122521    0.02575648    0.01831467
     atom   64 type  1   force =    -0.00182965    0.00107761    0.00111840
     atom   65 type  3   force =     0.04609281   -0.11386950   -0.01076625
     atom   66 type  3   force =     0.00007638   -0.00309825    0.00158893
     atom   67 type  3   force =    -0.03907834    0.12695951    0.01488557
     atom   68 type  3   force =     0.06270196   -0.00176434   -0.00330544
     atom   69 type  4   force =     0.01379901   -0.01829780    0.00376185
     atom   70 type  4   force =    -0.00061826    0.00260873   -0.00057105
     atom   71 type  4   force =    -0.00141927    0.00323645   -0.00598422
     atom   72 type  4   force =     0.00411311    0.00179466   -0.00060172
     atom   73 type  4   force =     0.00093045   -0.01145234    0.00290851
     atom   74 type  4   force =    -0.00036953   -0.00089993   -0.00167253
     atom   75 type  4   force =    -0.00098019    0.01408231    0.00653377
     atom   76 type  4   force =     0.00830914    0.00524957    0.00921942
     atom   77 type  4   force =     0.00713619   -0.00255817    0.00158454
     atom   78 type  4   force =     0.04408333   -0.14264223   -0.00519900
     atom   79 type  4   force =     0.00176845    0.00197868    0.00143336
     atom   80 type  4   force =    -0.00019118    0.00224488   -0.00156687
     atom   81 type  4   force =     0.06761924    0.00076218   -0.00586310
     atom   82 type  4   force =     0.00003447    0.00135747   -0.00086911
     atom   83 type  4   force =    -0.03921251    0.13485391    0.00268812
     atom   84 type  4   force =    -0.00287864   -0.01103371   -0.00409068
     atom   85 type  3   force =     0.04000554   -0.12003070   -0.01841136
     atom   86 type  3   force =    -0.06289195   -0.00277738    0.00865955
     atom   87 type  3   force =    -0.04475272    0.12550700    0.01716785
     atom   88 type  3   force =    -0.00167046    0.00005139    0.00254635
     atom   89 type  4   force =     0.00903226   -0.01540288    0.00405757
     atom   90 type  4   force =    -0.00489526    0.00167954    0.00049239
     atom   91 type  4   force =    -0.00903579    0.00799675   -0.00655745
     atom   92 type  4   force =     0.00006842    0.00013761   -0.00056005
     atom   93 type  4   force =    -0.00174585   -0.00835092    0.00749052
     atom   94 type  4   force =    -0.00468739    0.00156015    0.00101955
     atom   95 type  4   force =    -0.00556833    0.01290322    0.00616196
     atom   96 type  4   force =     0.00412250    0.00519691    0.00961065
     atom   97 type  4   force =    -0.00001827    0.00043375    0.00067730
     atom   98 type  4   force =     0.04035628   -0.14147851   -0.00487832
     atom   99 type  4   force =    -0.06672954    0.00004778    0.00631452
     atom  100 type  4   force =    -0.00187726    0.00341607   -0.00276208
     atom  101 type  4   force =    -0.00015868    0.00097777   -0.00056855
     atom  102 type  4   force =    -0.00612373    0.00443012   -0.00141494
     atom  103 type  4   force =    -0.04026622    0.13336369    0.00430310
     atom  104 type  4   force =    -0.00699657   -0.00991729   -0.00518983
     atom  105 type  2   force =     0.00416407   -0.00660399   -0.01811674
     atom  106 type  1   force =     0.02826011    0.01433334    0.01170030
     atom  107 type  1   force =     0.00867559   -0.00620130   -0.01408319
     atom  108 type  1   force =    -0.02844083    0.02171323    0.01870662
     atom  109 type  1   force =     0.00496140    0.01609196    0.00946548
     atom  110 type  1   force =    -0.00255573   -0.00878317   -0.00679146
     atom  111 type  1   force =    -0.00085249   -0.00944678   -0.01150327
     atom  112 type  1   force =     0.02914201    0.01748387    0.01134245
     atom  113 type  1   force =    -0.00067893   -0.00497810   -0.01389063
     atom  114 type  1   force =    -0.02966243    0.02073720    0.01854833
     atom  115 type  1   force =    -0.00707006    0.01850353    0.01218091
     atom  116 type  1   force =    -0.00555059   -0.00433901   -0.00297792
     atom  117 type  3   force =     0.01425499   -0.17391477   -0.10882809
     atom  118 type  3   force =     0.00515509   -0.00851545   -0.01264562
     atom  119 type  3   force =    -0.04465789    0.12495940   -0.00184489
     atom  120 type  3   force =     0.09508409   -0.04106348   -0.07974316
     atom  121 type  4   force =     0.00611591   -0.01708944    0.03717478
     atom  122 type  4   force =    -0.00345083    0.00366107    0.00445954
     atom  123 type  4   force =    -0.00085273    0.00256849   -0.00288662
     atom  124 type  4   force =     0.00849595    0.00217122    0.02694008
     atom  125 type  4   force =     0.00988626   -0.01689069    0.01598760
     atom  126 type  4   force =    -0.00746618    0.00098019   -0.00309023
     atom  127 type  4   force =     0.00399313    0.00967141    0.00042839
     atom  128 type  4   force =    -0.00062071   -0.00108153    0.03020265
     atom  129 type  4   force =    -0.00768378    0.02549132    0.00119110
     atom  130 type  4   force =     0.04341258   -0.14595304   -0.00191687
     atom  131 type  4   force =    -0.01742144   -0.00040479    0.00285907
     atom  132 type  4   force =     0.00337710    0.00265001    0.00199066
     atom  133 type  4   force =     0.06971353    0.00368212   -0.00192554
     atom  134 type  4   force =     0.00094721    0.00364112    0.00271592
     atom  135 type  4   force =    -0.02755370    0.17223389    0.00605758
     atom  136 type  4   force =     0.01959358   -0.00862684    0.00400514
     atom  137 type  3   force =     0.00909233   -0.16688740   -0.09427612
     atom  138 type  3   force =    -0.06466219   -0.00210457   -0.00492992
     atom  139 type  3   force =    -0.04872446    0.11826062    0.00155717
     atom  140 type  3   force =     0.03145721   -0.04325392   -0.07371124
     atom  141 type  4   force =     0.00467196   -0.01330866    0.03209495
     atom  142 type  4   force =    -0.00542428   -0.00034179    0.00430137
     atom  143 type  4   force =    -0.00820076    0.00808263   -0.00352767
     atom  144 type  4   force =     0.00385261    0.00136914    0.02754489
     atom  145 type  4   force =     0.00692366   -0.01299092    0.03238152
     atom  146 type  4   force =    -0.00875601   -0.00177047   -0.00305665
     atom  147 type  4   force =     0.00032233    0.00987015    0.00261894
     atom  148 type  4   force =    -0.00791068    0.00122345    0.02910171
     atom  149 type  4   force =    -0.01315925    0.02941185    0.00050498
     atom  150 type  4   force =     0.03978890   -0.13831581   -0.00140984
     atom  151 type  4   force =    -0.08614843   -0.00174340    0.00915687
     atom  152 type  4   force =     0.00122684    0.00388113    0.00142024
     atom  153 type  4   force =    -0.00351254    0.00085181    0.00296480
     atom  154 type  4   force =    -0.00589866    0.00599178    0.00130012
     atom  155 type  4   force =    -0.02795167    0.16642699    0.00484905
     atom  156 type  4   force =     0.01053949   -0.00974262   -0.00136734
     atom  157 type  4   force =     0.00603082   -0.00822954    0.00025547
     atom  158 type  5   force =    -0.00650338    0.00671798   -0.00199446

     Total force =     0.671632     Total SCF correction =     0.003267
 
     init_run     :      7.81s CPU      8.50s WALL (       1 calls)
     electrons    :   1135.74s CPU   1191.41s WALL (       1 calls)
     forces       :      4.65s CPU      5.16s WALL (       1 calls)
     force_london :      0.09s CPU      0.09s WALL (       1 calls)

     Called by init_run:
     wfcinit      :      4.69s CPU      4.87s WALL (       1 calls)
     potinit      :      0.63s CPU      0.82s WALL (       1 calls)
     hinit0       :      1.37s CPU      1.44s WALL (       1 calls)

     Called by electrons:
     c_bands      :    887.08s CPU    914.83s WALL (      94 calls)
     sum_band     :    160.63s CPU    175.64s WALL (      94 calls)
     v_of_rho     :     16.75s CPU     17.95s WALL (      95 calls)
     newd         :     47.28s CPU     59.00s WALL (      95 calls)
     mix_rho      :     23.07s CPU     23.24s WALL (      94 calls)
     energy_londo :      0.09s CPU      0.09s WALL (       1 calls)

     Called by c_bands:
     init_us_2    :      2.90s CPU      2.95s WALL (     380 calls)
     init_us_2:cp :      2.90s CPU      2.95s WALL (     380 calls)
     regterg      :    866.48s CPU    893.95s WALL (     189 calls)

     Called by *egterg:
     rdiaghg      :    225.84s CPU    238.47s WALL (     698 calls)
     h_psi        :    347.91s CPU    354.41s WALL (     700 calls)
     s_psi        :     69.51s CPU     69.54s WALL (     700 calls)
     g_psi        :      0.47s CPU      0.47s WALL (     509 calls)

     Called by h_psi:
     h_psi:calbec :     92.17s CPU     97.79s WALL (     700 calls)
     vloc_psi     :    183.79s CPU    184.56s WALL (     700 calls)
     add_vuspsi   :     71.00s CPU     71.08s WALL (     700 calls)

     General routines
     calbec       :    136.79s CPU    145.13s WALL (     896 calls)
     fft          :     21.69s CPU     23.28s WALL (    1723 calls)
     ffts         :     14.37s CPU     14.41s WALL (   11723 calls)
     fftw         :    210.98s CPU    211.81s WALL (  313364 calls)
     interpolate  :      1.39s CPU      1.52s WALL (     190 calls)
 
     Parallel routines
 
     PWSCF        :  19m11.77s CPU  20m 8.91s WALL

 
   This run was terminated on:  20:14:39  19Nov2025            

=------------------------------------------------------------------------------=
   JOB DONE.
=------------------------------------------------------------------------------=
