
     Program PWSCF v.7.2 starts on 19Nov2025 at 21:51:58 

     This program is part of the open-source Quantum ESPRESSO suite
     for quantum simulation of materials; please cite
         "P. Giannozzi et al., J. Phys.:Condens. Matter 21 395502 (2009);
         "P. Giannozzi et al., J. Phys.:Condens. Matter 29 465901 (2017);
         "P. Giannozzi et al., J. Chem. Phys. 152 154105 (2020);
          URL http://www.quantum-espresso.org", 
     in publications or presentations arising from this work. More details at
     http://www.quantum-espresso.org/quote

     Parallel version (MPI), running on    64 processors

     MPI processes distributed on     4 nodes
     385057 MiB available memory on the printing compute node when the environment starts
 
     Reading input from PWINPUT_atm158_yp

     Current dimensions of program PWSCF are:
     Max number of different atomic species (ntypx) = 10
     Max number of k-points (npk) =  40000
     Max angular momentum in pseudopotentials (lmaxx) =  4
     Presently no symmetry can be used with electric field

     file Ni.pbe-n-rrkjus_psl.1.0.0.UPF: wavefunction(s)  3D renormalized
     file Mn.pbe-spn-rrkjus_psl.0.3.1.UPF: wavefunction(s)  3D renormalized
     file O.pbe-rrkjus.UPF: wavefunction(s)  2S renormalized
     file H.pbe-rrkjus.UPF: wavefunction(s)  1S renormalized

     gamma-point specific algorithms are used
 
     R & G space division:  proc/nbgrp/npool/nimage =      64
     Subspace diagonalization in iterative solution of the eigenvalue problem:
     one sub-group per band group will be used
     custom distributed-memory algorithm (size of sub-group:  6*  6 procs)

 
     Parallelization info
     --------------------
     sticks:   dense  smooth     PW     G-vecs:    dense   smooth      PW
     Min         208      82     20                59912    15118    1876
     Max         210      84     22                59974    15196    1926
     Sum       13399    5355   1345              3836275   970529  121367
 
     Using Slab Decomposition
 


     bravais-lattice index     =            0
     lattice parameter (alat)  =      17.7004  a.u.
     unit-cell volume          =   20319.7251 (a.u.)^3
     number of atoms/cell      =          158
     number of atomic types    =            5
     number of electrons       =      1078.00
     number of Kohn-Sham states=          647
     kinetic-energy cutoff     =      50.0000  Ry
     charge density cutoff     =     500.0000  Ry
     scf convergence threshold =      1.0E-06
     mixing beta               =       0.1000
     number of iterations used =            8  local-TF  mixing
     Exchange-correlation=  SLA  PW   PBE  PBE
                           (   1   4   3   4   0   0   0)

     celldm(1)=  17.700384  celldm(2)=   0.000000  celldm(3)=   0.000000
     celldm(4)=   0.000000  celldm(5)=   0.000000  celldm(6)=   0.000000

     crystal axes: (cart. coord. in units of alat)
               a(1) = (   1.000000   0.000000   0.000000 )  
               a(2) = (   0.000000   1.075730   0.000000 )  
               a(3) = (   0.000000   0.000000   3.406172 )  

     reciprocal axes: (cart. coord. in units 2 pi/alat)
               b(1) = (  1.000000  0.000000  0.000000 )  
               b(2) = (  0.000000  0.929602  0.000000 )  
               b(3) = (  0.000000  0.000000  0.293585 )  


     PseudoPot. # 1 for Ni read from file:
     ~/PSEUDO/Ni.pbe-n-rrkjus_psl.1.0.0.UPF
     MD5 check sum: Not computed, couldn't open file
     Pseudo is Ultrasoft + core correction, Zval = 10.0
     Generated using "atomic" code by A. Dal Corso  v.5.1.2
     Using radial grid of 1195 points,  6 beta functions with: 
                l(1) =   0
                l(2) =   0
                l(3) =   1
                l(4) =   1
                l(5) =   2
                l(6) =   2
     Q(r) pseudized with 0 coefficients 


     PseudoPot. # 2 for Mn read from file:
     ~/PSEUDO/Mn.pbe-spn-rrkjus_psl.0.3.1.UPF
     MD5 check sum: Not computed, couldn't open file
     Pseudo is Ultrasoft + core correction, Zval = 15.0
     Generated using &quot;atomic&quot; code by A. Dal Corso  v.6.2.2
     Using radial grid of 1187 points,  6 beta functions with: 
                l(1) =   0
                l(2) =   0
                l(3) =   1
                l(4) =   1
                l(5) =   2
                l(6) =   2
     Q(r) pseudized with 0 coefficients 


     PseudoPot. # 3 for P  read from file:
     ~/PSEUDO/P.pbe-n-rrkjus_psl.1.0.0.UPF
     MD5 check sum: Not computed, couldn't open file
     Pseudo is Ultrasoft + core correction, Zval =  5.0
     Generated using "atomic" code by A. Dal Corso  v.5.1
     Using radial grid of 1147 points,  6 beta functions with: 
                l(1) =   0
                l(2) =   0
                l(3) =   1
                l(4) =   1
                l(5) =   2
                l(6) =   2
     Q(r) pseudized with 0 coefficients 


     PseudoPot. # 4 for O  read from file:
     ~/PSEUDO/O.pbe-rrkjus.UPF
     MD5 check sum: Not computed, couldn't open file
     Pseudo is Ultrasoft, Zval =  6.0
     Generated by new atomic code, or converted to UPF format
     Using radial grid of 1269 points,  4 beta functions with: 
                l(1) =   0
                l(2) =   0
                l(3) =   1
                l(4) =   1
     Q(r) pseudized with 0 coefficients 


     PseudoPot. # 5 for H  read from file:
     ~/PSEUDO/H.pbe-rrkjus.UPF
     MD5 check sum: Not computed, couldn't open file
     Pseudo is Ultrasoft, Zval =  1.0
     Generated by new atomic code, or converted to UPF format
     Using radial grid of 1061 points,  2 beta functions with: 
                l(1) =   0
                l(2) =   0
     Q(r) pseudized with 0 coefficients 


     atomic species   valence    mass     pseudopotential
     Ni               10.00    58.69300     Ni( 1.00)
     Mn               15.00    54.93800     Mn( 1.00)
     P                 5.00    30.97300     P ( 1.00)
     O                 6.00    15.99900     O ( 1.00)
     H                 1.00     1.00790     H ( 1.00)

     Starting magnetic structure 
     atomic species   magnetization
     Ni              1.000
     Mn              1.000
     P               1.000
     O               1.000
     H               0.000

     No symmetry found



   Cartesian axes

     site n.     atom                  positions (alat units)
         1        Mn     tau(   1) = (   0.2493609   0.8365715   1.6923971  )
         2        Ni     tau(   2) = (   0.4971079   0.7736156   1.3698727  )
         3        Ni     tau(   3) = (   0.0112576   0.3072794   1.7087583  )
         4        Ni     tau(   4) = (   0.2596239   0.2390995   1.3686499  )
         5        Ni     tau(   5) = (   0.9975634   1.0800649   1.5354411  )
         6        Ni     tau(   6) = (   0.2537367   0.5354741   1.5344197  )
         7        Ni     tau(   7) = (   0.7537322   0.8383734   1.6753574  )
         8        Ni     tau(   8) = (   0.9914315   0.7746670   1.3720254  )
         9        Ni     tau(   9) = (   0.5035551   0.2960273   1.6759017  )
        10        Ni     tau(  10) = (   0.7601897   0.2370242   1.3663370  )
        11        Ni     tau(  11) = (   0.4997103   1.0755509   1.5321392  )
        12        Ni     tau(  12) = (   0.7557358   0.5365151   1.5309164  )
        13        P      tau(  13) = (   0.2102583   0.9729017   1.3795895  )
        14        P      tau(  14) = (   0.4681633   0.6439249   1.6893391  )
        15        P      tau(  15) = (   0.2886425   0.1100006   1.6952171  )
        16        P      tau(  16) = (   0.0425762   0.4312003   1.3742181  )
        17        O      tau(  17) = (   0.1340839   0.9024468   1.5167299  )
        18        O      tau(  18) = (   0.3903743   0.7050921   1.5459491  )
        19        O      tau(  19) = (   0.3645582   0.1700754   1.5496001  )
        20        O      tau(  20) = (   0.1194984   0.3599186   1.5100144  )
        21        O      tau(  21) = (   0.1474941   0.8824110   1.2564130  )
        22        O      tau(  22) = (   0.4040727   0.7408321   1.8053395  )
        23        O      tau(  23) = (   0.3535892   0.2030579   1.8119064  )
        24        O      tau(  24) = (   0.1029989   0.3444961   1.2466039  )
        25        O      tau(  25) = (   0.1016325   0.5871265   1.3783445  )
        26        O      tau(  26) = (   0.3444464   1.0271569   1.6949549  )
        27        O      tau(  27) = (   0.3797210   0.4257846   1.3839545  )
        28        O      tau(  28) = (   0.1239987   0.1120195   1.6852008  )
        29        O      tau(  29) = (   0.1277082   0.6548798   1.6784119  )
        30        O      tau(  30) = (   0.4126374   0.4868061   1.6917006  )
        31        O      tau(  31) = (   0.1512622   0.0516880   1.3795899  )
        32        O      tau(  32) = (   0.3740488   0.9633360   1.3872959  )
        33        P      tau(  33) = (   0.7102783   0.9720020   1.3712879  )
        34        P      tau(  34) = (   0.9622035   0.6496791   1.6938416  )
        35        P      tau(  35) = (   0.7879411   0.1129842   1.6874765  )
        36        P      tau(  36) = (   0.5437247   0.4318676   1.3705585  )
        37        O      tau(  37) = (   0.6320214   0.9007554   1.5076114  )
        38        O      tau(  38) = (   0.8856843   0.7114266   1.5472319  )
        39        O      tau(  39) = (   0.8642929   0.1717044   1.5437885  )
        40        O      tau(  40) = (   0.6216900   0.3608055   1.5064456  )
        41        O      tau(  41) = (   0.6495853   0.8828646   1.2457269  )
        42        O      tau(  42) = (   0.9055096   0.7504361   1.8079161  )
        43        O      tau(  43) = (   0.8450882   0.2103025   1.8047962  )
        44        O      tau(  44) = (   0.6043176   0.3439644   1.2442897  )
        45        O      tau(  45) = (   0.6044957   0.5867090   1.3746570  )
        46        O      tau(  46) = (   0.8440334   1.0304596   1.6909963  )
        47        O      tau(  47) = (   0.8783670   0.4261403   1.3828404  )
        48        O      tau(  48) = (   0.6221236   0.1136819   1.6769158  )
        49        O      tau(  49) = (   0.6324242   0.6520846   1.6793976  )
        50        O      tau(  50) = (   0.9031210   0.4942715   1.6888231  )
        51        O      tau(  51) = (   0.6491651   0.0505825   1.3737527  )
        52        O      tau(  52) = (   0.8740350   0.9654835   1.3844354  )
        53        Mn     tau(  53) = (   0.2404744   0.8246335   1.0701417  )
        54        Ni     tau(  54) = (   0.4968126   0.7601755   0.7454373  )
        55        Ni     tau(  55) = (   0.0066150   0.2811828   1.0628866  )
        56        Ni     tau(  56) = (   0.2585722   0.2230943   0.7421070  )
        57        Ni     tau(  57) = (   0.9987350   1.0571496   0.9014992  )
        58        Ni     tau(  58) = (   0.2517397   0.5205596   0.9040596  )
        59        Ni     tau(  59) = (   0.7451645   0.8212628   1.0648168  )
        60        Ni     tau(  60) = (   0.9939181   0.7613889   0.7462324  )
        61        Ni     tau(  61) = (   0.5111533   0.2799173   1.0618053  )
        62        Ni     tau(  62) = (   0.7606326   0.2194352   0.7418547  )
        63        Ni     tau(  63) = (   0.5024065   1.0563218   0.8999416  )
        64        Ni     tau(  64) = (   0.7529977   0.5192985   0.9024691  )
        65        P      tau(  65) = (   0.2092944   0.9606182   0.7524883  )
        66        P      tau(  66) = (   0.4655727   0.6234620   1.0595283  )
        67        P      tau(  67) = (   0.2910699   0.0902448   1.0573821  )
        68        P      tau(  68) = (   0.0396216   0.4163480   0.7471080  )
        69        O      tau(  69) = (   0.1294378   0.8888345   0.8859300  )
        70        O      tau(  70) = (   0.3874505   0.6929859   0.9232915  )
        71        O      tau(  71) = (   0.3702540   0.1589885   0.9209891  )
        72        O      tau(  72) = (   0.1184398   0.3458043   0.8831565  )
        73        O      tau(  73) = (   0.1451572   0.8725966   0.6282341  )
        74        O      tau(  74) = (   0.4048762   0.7120670   1.1852426  )
        75        O      tau(  75) = (   0.3523506   0.1775664   1.1834175  )
        76        O      tau(  76) = (   0.1017610   0.3285569   0.6213347  )
        77        O      tau(  77) = (   0.0975396   0.5724373   0.7511996  )
        78        O      tau(  78) = (   0.3483552   1.0190030   1.0599597  )
        79        O      tau(  79) = (   0.3784305   0.4100203   0.7560991  )
        80        O      tau(  80) = (   0.1268237   0.0943029   1.0477175  )
        81        O      tau(  81) = (   0.1212267   0.6299255   1.0507023  )
        82        O      tau(  82) = (   0.4053315   0.4684472   1.0569297  )
        83        O      tau(  83) = (   0.1536621   0.0322003   0.7496532  )
        84        O      tau(  84) = (   0.3732349   0.9506802   0.7613277  )
        85        P      tau(  85) = (   0.7119823   0.9571059   0.7496908  )
        86        P      tau(  86) = (   0.9615208   0.6238477   1.0606987  )
        87        P      tau(  87) = (   0.7927710   0.0845145   1.0577754  )
        88        P      tau(  88) = (   0.5426404   0.4144760   0.7459181  )
        89        O      tau(  89) = (   0.6326879   0.8866267   0.8856678  )
        90        O      tau(  90) = (   0.8842163   0.6958291   0.9244764  )
        91        O      tau(  91) = (   0.8716178   0.1552836   0.9216415  )
        92        O      tau(  92) = (   0.6212010   0.3433751   0.8818834  )
        93        O      tau(  93) = (   0.6507714   0.8687427   0.6238197  )
        94        O      tau(  94) = (   0.9014054   0.7139543   1.1859242  )
        95        O      tau(  95) = (   0.8548963   0.1722994   1.1834447  )
        96        O      tau(  96) = (   0.6044469   0.3253792   0.6209553  )
        97        O      tau(  97) = (   0.6024424   0.5698225   0.7490903  )
        98        O      tau(  98) = (   0.8498940   1.0129567   1.0594762  )
        99        O      tau(  99) = (   0.8798395   0.4080910   0.7564148  )
       100        O      tau( 100) = (   0.6286921   0.0909721   1.0472573  )
       101        O      tau( 101) = (   0.6294973   0.6302838   1.0497366  )
       102        O      tau( 102) = (   0.9024339   0.4685397   1.0573501  )
       103        O      tau( 103) = (   0.6547812   0.0286072   0.7473283  )
       104        O      tau( 104) = (   0.8760507   0.9507690   0.7605412  )
       105        Mn     tau( 105) = (   0.2404744   0.8121420   0.4502541  )
       106        Ni     tau( 106) = (   0.4968126   0.7476840   0.1255496  )
       107        Ni     tau( 107) = (   0.0066150   0.2686914   0.4429989  )
       108        Ni     tau( 108) = (   0.2585722   0.2106028   0.1222194  )
       109        Ni     tau( 109) = (   0.9987350   1.0446581   0.2816116  )
       110        Ni     tau( 110) = (   0.2517397   0.5080681   0.2841720  )
       111        Ni     tau( 111) = (   0.7451645   0.8087713   0.4449291  )
       112        Ni     tau( 112) = (   0.9939181   0.7488974   0.1263448  )
       113        Ni     tau( 113) = (   0.5111533   0.2674258   0.4419177  )
       114        Ni     tau( 114) = (   0.7606326   0.2069438   0.1219670  )
       115        Ni     tau( 115) = (   0.5024065   1.0438304   0.2800540  )
       116        Ni     tau( 116) = (   0.7529977   0.5068070   0.2825815  )
       117        P      tau( 117) = (   0.2092944   0.9481267   0.1326007  )
       118        P      tau( 118) = (   0.4655727   0.6109705   0.4396407  )
       119        P      tau( 119) = (   0.2910699   0.0777534   0.4374945  )
       120        P      tau( 120) = (   0.0396216   0.4038566   0.1272204  )
       121        O      tau( 121) = (   0.1294378   0.8763430   0.2660424  )
       122        O      tau( 122) = (   0.3874505   0.6804944   0.3034039  )
       123        O      tau( 123) = (   0.3702540   0.1464970   0.3011014  )
       124        O      tau( 124) = (   0.1184398   0.3333129   0.2632689  )
       125        O      tau( 125) = (   0.1451572   0.8601051   0.0083464  )
       126        O      tau( 126) = (   0.4048762   0.6995756   0.5653550  )
       127        O      tau( 127) = (   0.3523506   0.1650749   0.5635298  )
       128        O      tau( 128) = (   0.1017610   0.3160655   0.0014470  )
       129        O      tau( 129) = (   0.0975396   0.5599458   0.1313120  )
       130        O      tau( 130) = (   0.3483552   1.0065115   0.4400720  )
       131        O      tau( 131) = (   0.3784305   0.3975288   0.1362114  )
       132        O      tau( 132) = (   0.1268237   0.0818115   0.4278298  )
       133        O      tau( 133) = (   0.1212267   0.6174340   0.4308146  )
       134        O      tau( 134) = (   0.4053315   0.4559557   0.4370420  )
       135        O      tau( 135) = (   0.1536621   0.0197088   0.1297656  )
       136        O      tau( 136) = (   0.3732349   0.9381887   0.1414400  )
       137        P      tau( 137) = (   0.7119823   0.9446144   0.1298032  )
       138        P      tau( 138) = (   0.9615208   0.6113562   0.4408111  )
       139        P      tau( 139) = (   0.7927710   0.0720230   0.4378878  )
       140        P      tau( 140) = (   0.5426404   0.4019845   0.1260304  )
       141        O      tau( 141) = (   0.6326879   0.8741353   0.2657802  )
       142        O      tau( 142) = (   0.8842163   0.6833376   0.3045887  )
       143        O      tau( 143) = (   0.8716178   0.1427921   0.3017538  )
       144        O      tau( 144) = (   0.6212010   0.3308836   0.2619957  )
       145        O      tau( 145) = (   0.6507714   0.8562512   0.0039320  )
       146        O      tau( 146) = (   0.9014054   0.7014628   0.5660366  )
       147        O      tau( 147) = (   0.8548963   0.1598079   0.5635571  )
       148        O      tau( 148) = (   0.6044469   0.3128877   0.0010676  )
       149        O      tau( 149) = (   0.6024424   0.5573310   0.1292027  )
       150        O      tau( 150) = (   0.8498940   1.0004653   0.4395886  )
       151        O      tau( 151) = (   0.8798395   0.3955995   0.1365272  )
       152        O      tau( 152) = (   0.6286921   0.0784807   0.4273696  )
       153        O      tau( 153) = (   0.6294973   0.6177923   0.4298489  )
       154        O      tau( 154) = (   0.9024339   0.4560482   0.4374624  )
       155        O      tau( 155) = (   0.6547812   0.0161158   0.1274406  )
       156        O      tau( 156) = (   0.8760507   0.9382775   0.1406535  )
       157        O      tau( 157) = (   0.1248109   0.3901961   1.8430336  )
       158        H      tau( 158) = (   0.2082109   0.3311470   1.8677327  )

     -------------------------------------------------
     Parameters for Dispersion (Grimme-D2) Correction:
     -------------------------------------------------
       atom      VdW radius       C_6     

        Ni         2.952        374.666
        Mn         2.952        374.666
        P          3.222        271.980
        O          2.536         24.284
        H          1.892          4.857

     number of k points=     1  Gaussian smearing, width (Ry)=  0.0100
                       cart. coord. in units 2pi/alat
        k(    1) = (   0.0000000   0.0000000   0.0000000), wk =   1.0000000

     Dense  grid:  1918138 G-vectors     FFT dimensions: ( 125, 135, 432)

     Smooth grid:   485265 G-vectors     FFT dimensions: (  80,  90, 288)

     Estimated max dynamical RAM per process >     320.12 MB

     Estimated total dynamical RAM >      20.01 GB
     Generating pointlists ...
     new r_m :   0.0802 (alat units)  1.4195 (a.u.) for type    1
     new r_m :   0.0869 (alat units)  1.5388 (a.u.) for type    2
     new r_m :   0.0650 (alat units)  1.1499 (a.u.) for type    3
     new r_m :   0.0434 (alat units)  0.7676 (a.u.) for type    4
     new r_m :   0.0434 (alat units)  0.7676 (a.u.) for type    5

     Initial potential from superposition of free atoms

     starting charge    1077.8900, renormalised to    1078.0000

     negative rho (up, down):  1.233E-03 4.557E-04
 
     Adding external electric field

     Computed dipole along edir(3) : 
        Dipole                1.6235 Ry au,          4.1266 Debye
        Dipole field          0.0010 Ry au, 
 
        Potential amp.       -0.1090 Ry
        Total length         54.2615 bohr
 
 
     Adding external electric field

     Computed dipole along edir(3) : 
        Dipole                1.6235 Ry au,          4.1266 Debye
        Dipole field          0.0010 Ry au, 
 
        Potential amp.       -0.1090 Ry
        Total length         54.2615 bohr
 
     Starting wfcs are  812 randomized atomic wfcs

     total cpu time spent up to now is       11.0 secs

     Self-consistent Calculation

     iteration #  1     ecut=    50.00 Ry     beta= 0.10
     Davidson diagonalization with overlap
     ethr =  1.00E-02,  avg # of iterations =  6.0

     negative rho (up, down):  3.455E-01 3.385E-07
 
     Adding external electric field

     Computed dipole along edir(3) : 
        Dipole               -3.3025 Ry au,         -8.3942 Debye
        Dipole field         -0.0020 Ry au, 
 
        Potential amp.        0.2216 Ry
        Total length         54.2615 bohr
 
 
     Adding external electric field

     Computed dipole along edir(3) : 
        Dipole               -3.3025 Ry au,         -8.3942 Debye
        Dipole field         -0.0020 Ry au, 
 
        Potential amp.        0.2216 Ry
        Total length         54.2615 bohr
 

     total cpu time spent up to now is       40.8 secs

     total energy              =   -7176.98752815 Ry
     estimated scf accuracy    <     739.22180332 Ry

     total magnetization       =   216.00 Bohr mag/cell
     absolute magnetization    =   297.45 Bohr mag/cell

     iteration #  2     ecut=    50.00 Ry     beta= 0.10
     Davidson diagonalization with overlap
     ethr =  1.00E-02,  avg # of iterations =  2.0

     negative rho (up, down):  3.244E-01 1.884E-07
 
     Adding external electric field

     Computed dipole along edir(3) : 
        Dipole               -2.2845 Ry au,         -5.8065 Debye
        Dipole field         -0.0014 Ry au, 
 
        Potential amp.        0.1533 Ry
        Total length         54.2615 bohr
 
 
     Adding external electric field

     Computed dipole along edir(3) : 
        Dipole               -2.2845 Ry au,         -5.8065 Debye
        Dipole field         -0.0014 Ry au, 
 
        Potential amp.        0.1533 Ry
        Total length         54.2615 bohr
 

     total cpu time spent up to now is       56.7 secs

     total energy              =   -7262.49661795 Ry
     estimated scf accuracy    <     190.15207213 Ry

     total magnetization       =   152.36 Bohr mag/cell
     absolute magnetization    =   201.53 Bohr mag/cell

     iteration #  3     ecut=    50.00 Ry     beta= 0.10
     Davidson diagonalization with overlap
     ethr =  1.00E-02,  avg # of iterations =  1.5

     negative rho (up, down):  2.855E-01 1.172E-07
 
     Adding external electric field

     Computed dipole along edir(3) : 
        Dipole               -1.9805 Ry au,         -5.0339 Debye
        Dipole field         -0.0012 Ry au, 
 
        Potential amp.        0.1329 Ry
        Total length         54.2615 bohr
 
 
     Adding external electric field

     Computed dipole along edir(3) : 
        Dipole               -1.9805 Ry au,         -5.0339 Debye
        Dipole field         -0.0012 Ry au, 
 
        Potential amp.        0.1329 Ry
        Total length         54.2615 bohr
 

     total cpu time spent up to now is       68.7 secs

     total energy              =   -7292.64036456 Ry
     estimated scf accuracy    <      96.14676360 Ry

     total magnetization       =   127.23 Bohr mag/cell
     absolute magnetization    =   180.27 Bohr mag/cell

     iteration #  4     ecut=    50.00 Ry     beta= 0.10
     Davidson diagonalization with overlap
     ethr =  8.92E-03,  avg # of iterations =  1.5

     negative rho (up, down):  2.138E-01 2.838E-08
 
     Adding external electric field

     Computed dipole along edir(3) : 
        Dipole               -1.9676 Ry au,         -5.0010 Debye
        Dipole field         -0.0012 Ry au, 
 
        Potential amp.        0.1321 Ry
        Total length         54.2615 bohr
 
 
     Adding external electric field

     Computed dipole along edir(3) : 
        Dipole               -1.9676 Ry au,         -5.0010 Debye
        Dipole field         -0.0012 Ry au, 
 
        Potential amp.        0.1321 Ry
        Total length         54.2615 bohr
 

     total cpu time spent up to now is       80.5 secs

     total energy              =   -7326.37479220 Ry
     estimated scf accuracy    <      78.83665077 Ry

     total magnetization       =   111.20 Bohr mag/cell
     absolute magnetization    =   165.64 Bohr mag/cell

     iteration #  5     ecut=    50.00 Ry     beta= 0.10
     Davidson diagonalization with overlap
     ethr =  7.31E-03,  avg # of iterations =  1.5

     negative rho (up, down):  9.070E-03 1.714E-07
 
     Adding external electric field

     Computed dipole along edir(3) : 
        Dipole               -1.5410 Ry au,         -3.9168 Debye
        Dipole field         -0.0010 Ry au, 
 
        Potential amp.        0.1034 Ry
        Total length         54.2615 bohr
 
 
     Adding external electric field

     Computed dipole along edir(3) : 
        Dipole               -1.5410 Ry au,         -3.9168 Debye
        Dipole field         -0.0010 Ry au, 
 
        Potential amp.        0.1034 Ry
        Total length         54.2615 bohr
 

     total cpu time spent up to now is       91.7 secs

     total energy              =   -7384.98618440 Ry
     estimated scf accuracy    <      61.89405312 Ry

     total magnetization       =    88.06 Bohr mag/cell
     absolute magnetization    =   146.53 Bohr mag/cell

     iteration #  6     ecut=    50.00 Ry     beta= 0.10
     Davidson diagonalization with overlap
     ethr =  5.74E-03,  avg # of iterations =  1.5

     negative rho (up, down):  1.911E-04 1.826E-04
 
     Adding external electric field

     Computed dipole along edir(3) : 
        Dipole               -1.1556 Ry au,         -2.9373 Debye
        Dipole field         -0.0007 Ry au, 
 
        Potential amp.        0.0776 Ry
        Total length         54.2615 bohr
 
 
     Adding external electric field

     Computed dipole along edir(3) : 
        Dipole               -1.1556 Ry au,         -2.9373 Debye
        Dipole field         -0.0007 Ry au, 
 
        Potential amp.        0.0776 Ry
        Total length         54.2615 bohr
 

     total cpu time spent up to now is      103.4 secs

     total energy              =   -7395.25179898 Ry
     estimated scf accuracy    <      11.90178596 Ry

     total magnetization       =    81.96 Bohr mag/cell
     absolute magnetization    =   116.66 Bohr mag/cell

     iteration #  7     ecut=    50.00 Ry     beta= 0.10
     Davidson diagonalization with overlap
     ethr =  1.10E-03,  avg # of iterations =  4.5

     negative rho (up, down):  1.770E-04 1.751E-04
 
     Adding external electric field

     Computed dipole along edir(3) : 
        Dipole               -1.1412 Ry au,         -2.9007 Debye
        Dipole field         -0.0007 Ry au, 
 
        Potential amp.        0.0766 Ry
        Total length         54.2615 bohr
 
 
     Adding external electric field

     Computed dipole along edir(3) : 
        Dipole               -1.1412 Ry au,         -2.9007 Debye
        Dipole field         -0.0007 Ry au, 
 
        Potential amp.        0.0766 Ry
        Total length         54.2615 bohr
 

     total cpu time spent up to now is      121.7 secs

     total energy              =   -7397.62742267 Ry
     estimated scf accuracy    <      13.97981171 Ry

     total magnetization       =    70.59 Bohr mag/cell
     absolute magnetization    =    88.33 Bohr mag/cell

     iteration #  8     ecut=    50.00 Ry     beta= 0.10
     Davidson diagonalization with overlap
     ethr =  1.10E-03,  avg # of iterations =  1.0

     negative rho (up, down):  8.863E-05 1.127E-04
 
     Adding external electric field

     Computed dipole along edir(3) : 
        Dipole               -0.9778 Ry au,         -2.4854 Debye
        Dipole field         -0.0006 Ry au, 
 
        Potential amp.        0.0656 Ry
        Total length         54.2615 bohr
 
 
     Adding external electric field

     Computed dipole along edir(3) : 
        Dipole               -0.9778 Ry au,         -2.4854 Debye
        Dipole field         -0.0006 Ry au, 
 
        Potential amp.        0.0656 Ry
        Total length         54.2615 bohr
 

     total cpu time spent up to now is      133.4 secs

     total energy              =   -7397.53972803 Ry
     estimated scf accuracy    <      13.18637877 Ry

     total magnetization       =    70.98 Bohr mag/cell
     absolute magnetization    =    88.40 Bohr mag/cell

     iteration #  9     ecut=    50.00 Ry     beta= 0.10
     Davidson diagonalization with overlap
     ethr =  1.10E-03,  avg # of iterations =  1.5

     negative rho (up, down):  4.523E-05 9.026E-05
 
     Adding external electric field

     Computed dipole along edir(3) : 
        Dipole               -0.8826 Ry au,         -2.2434 Debye
        Dipole field         -0.0005 Ry au, 
 
        Potential amp.        0.0592 Ry
        Total length         54.2615 bohr
 
 
     Adding external electric field

     Computed dipole along edir(3) : 
        Dipole               -0.8826 Ry au,         -2.2434 Debye
        Dipole field         -0.0005 Ry au, 
 
        Potential amp.        0.0592 Ry
        Total length         54.2615 bohr
 

     total cpu time spent up to now is      146.3 secs

     total energy              =   -7397.52493743 Ry
     estimated scf accuracy    <       8.21176411 Ry

     total magnetization       =    72.00 Bohr mag/cell
     absolute magnetization    =    87.90 Bohr mag/cell

     iteration # 10     ecut=    50.00 Ry     beta= 0.10
     Davidson diagonalization with overlap
     ethr =  7.62E-04,  avg # of iterations =  2.0

     negative rho (up, down):  3.789E-05 8.910E-05
 
     Adding external electric field

     Computed dipole along edir(3) : 
        Dipole               -0.9325 Ry au,         -2.3702 Debye
        Dipole field         -0.0006 Ry au, 
 
        Potential amp.        0.0626 Ry
        Total length         54.2615 bohr
 
 
     Adding external electric field

     Computed dipole along edir(3) : 
        Dipole               -0.9325 Ry au,         -2.3702 Debye
        Dipole field         -0.0006 Ry au, 
 
        Potential amp.        0.0626 Ry
        Total length         54.2615 bohr
 

     total cpu time spent up to now is      158.4 secs

     total energy              =   -7397.56783579 Ry
     estimated scf accuracy    <       4.78716250 Ry

     total magnetization       =    73.57 Bohr mag/cell
     absolute magnetization    =    87.56 Bohr mag/cell

     iteration # 11     ecut=    50.00 Ry     beta= 0.10
     Davidson diagonalization with overlap
     ethr =  4.44E-04,  avg # of iterations =  2.0

     negative rho (up, down):  1.572E-05 7.992E-05
 
     Adding external electric field

     Computed dipole along edir(3) : 
        Dipole               -0.9114 Ry au,         -2.3165 Debye
        Dipole field         -0.0006 Ry au, 
 
        Potential amp.        0.0612 Ry
        Total length         54.2615 bohr
 
 
     Adding external electric field

     Computed dipole along edir(3) : 
        Dipole               -0.9114 Ry au,         -2.3165 Debye
        Dipole field         -0.0006 Ry au, 
 
        Potential amp.        0.0612 Ry
        Total length         54.2615 bohr
 

     total cpu time spent up to now is      171.6 secs

     total energy              =   -7397.61594097 Ry
     estimated scf accuracy    <       2.76400741 Ry

     total magnetization       =    75.05 Bohr mag/cell
     absolute magnetization    =    87.86 Bohr mag/cell

     iteration # 12     ecut=    50.00 Ry     beta= 0.10
     Davidson diagonalization with overlap
     ethr =  2.56E-04,  avg # of iterations =  5.0

     negative rho (up, down):  1.173E-05 6.288E-05
 
     Adding external electric field

     Computed dipole along edir(3) : 
        Dipole               -0.8925 Ry au,         -2.2686 Debye
        Dipole field         -0.0006 Ry au, 
 
        Potential amp.        0.0599 Ry
        Total length         54.2615 bohr
 
 
     Adding external electric field

     Computed dipole along edir(3) : 
        Dipole               -0.8925 Ry au,         -2.2686 Debye
        Dipole field         -0.0006 Ry au, 
 
        Potential amp.        0.0599 Ry
        Total length         54.2615 bohr
 

     total cpu time spent up to now is      185.7 secs

     total energy              =   -7397.68141478 Ry
     estimated scf accuracy    <       0.87005340 Ry

     total magnetization       =    78.26 Bohr mag/cell
     absolute magnetization    =    88.54 Bohr mag/cell

     iteration # 13     ecut=    50.00 Ry     beta= 0.10
     Davidson diagonalization with overlap
     c_bands:  1 eigenvalues not converged
     ethr =  8.07E-05,  avg # of iterations = 19.0

     negative rho (up, down):  5.618E-07 4.798E-05
 
     Adding external electric field

     Computed dipole along edir(3) : 
        Dipole               -0.6838 Ry au,         -1.7381 Debye
        Dipole field         -0.0004 Ry au, 
 
        Potential amp.        0.0459 Ry
        Total length         54.2615 bohr
 
 
     Adding external electric field

     Computed dipole along edir(3) : 
        Dipole               -0.6838 Ry au,         -1.7381 Debye
        Dipole field         -0.0004 Ry au, 
 
        Potential amp.        0.0459 Ry
        Total length         54.2615 bohr
 

     total cpu time spent up to now is      213.8 secs

     total energy              =   -7397.80004607 Ry
     estimated scf accuracy    <       1.44978080 Ry

     total magnetization       =    76.36 Bohr mag/cell
     absolute magnetization    =    86.06 Bohr mag/cell

     iteration # 14     ecut=    50.00 Ry     beta= 0.10
     Davidson diagonalization with overlap
     ethr =  8.07E-05,  avg # of iterations =  2.0

     negative rho (up, down):  6.921E-07 4.191E-05
 
     Adding external electric field

     Computed dipole along edir(3) : 
        Dipole               -0.7427 Ry au,         -1.8878 Debye
        Dipole field         -0.0005 Ry au, 
 
        Potential amp.        0.0498 Ry
        Total length         54.2615 bohr
 
 
     Adding external electric field

     Computed dipole along edir(3) : 
        Dipole               -0.7427 Ry au,         -1.8878 Debye
        Dipole field         -0.0005 Ry au, 
 
        Potential amp.        0.0498 Ry
        Total length         54.2615 bohr
 

     total cpu time spent up to now is      226.2 secs

     total energy              =   -7397.87458848 Ry
     estimated scf accuracy    <       0.77142502 Ry

     total magnetization       =    81.81 Bohr mag/cell
     absolute magnetization    =    86.90 Bohr mag/cell

     iteration # 15     ecut=    50.00 Ry     beta= 0.10
     Davidson diagonalization with overlap
     ethr =  7.16E-05,  avg # of iterations =  1.0

     negative rho (up, down):  6.305E-07 4.765E-05
 
     Adding external electric field

     Computed dipole along edir(3) : 
        Dipole               -0.7693 Ry au,         -1.9554 Debye
        Dipole field         -0.0005 Ry au, 
 
        Potential amp.        0.0516 Ry
        Total length         54.2615 bohr
 
 
     Adding external electric field

     Computed dipole along edir(3) : 
        Dipole               -0.7693 Ry au,         -1.9554 Debye
        Dipole field         -0.0005 Ry au, 
 
        Potential amp.        0.0516 Ry
        Total length         54.2615 bohr
 

     total cpu time spent up to now is      237.2 secs

     total energy              =   -7397.85070708 Ry
     estimated scf accuracy    <       0.43314441 Ry

     total magnetization       =    81.07 Bohr mag/cell
     absolute magnetization    =    86.44 Bohr mag/cell

     iteration # 16     ecut=    50.00 Ry     beta= 0.10
     Davidson diagonalization with overlap
     ethr =  4.02E-05,  avg # of iterations =  1.0

     negative rho (up, down):  3.128E-06 1.230E-04
 
     Adding external electric field

     Computed dipole along edir(3) : 
        Dipole               -0.5964 Ry au,         -1.5158 Debye
        Dipole field         -0.0004 Ry au, 
 
        Potential amp.        0.0400 Ry
        Total length         54.2615 bohr
 
 
     Adding external electric field

     Computed dipole along edir(3) : 
        Dipole               -0.5964 Ry au,         -1.5158 Debye
        Dipole field         -0.0004 Ry au, 
 
        Potential amp.        0.0400 Ry
        Total length         54.2615 bohr
 

     total cpu time spent up to now is      248.5 secs

     total energy              =   -7397.98908090 Ry
     estimated scf accuracy    <       0.23675013 Ry

     total magnetization       =    79.68 Bohr mag/cell
     absolute magnetization    =    85.12 Bohr mag/cell

     iteration # 17     ecut=    50.00 Ry     beta= 0.10
     Davidson diagonalization with overlap
     ethr =  2.20E-05,  avg # of iterations =  3.0

     negative rho (up, down):  3.173E-06 1.333E-04
 
     Adding external electric field

     Computed dipole along edir(3) : 
        Dipole               -0.5776 Ry au,         -1.4680 Debye
        Dipole field         -0.0004 Ry au, 
 
        Potential amp.        0.0388 Ry
        Total length         54.2615 bohr
 
 
     Adding external electric field

     Computed dipole along edir(3) : 
        Dipole               -0.5776 Ry au,         -1.4680 Debye
        Dipole field         -0.0004 Ry au, 
 
        Potential amp.        0.0388 Ry
        Total length         54.2615 bohr
 

     total cpu time spent up to now is      263.6 secs

     total energy              =   -7398.05028450 Ry
     estimated scf accuracy    <       0.34780266 Ry

     total magnetization       =    81.29 Bohr mag/cell
     absolute magnetization    =    83.53 Bohr mag/cell

     iteration # 18     ecut=    50.00 Ry     beta= 0.10
     Davidson diagonalization with overlap
     ethr =  2.20E-05,  avg # of iterations =  1.5

     negative rho (up, down):  1.548E-07 2.296E-05
 
     Adding external electric field

     Computed dipole along edir(3) : 
        Dipole               -0.4747 Ry au,         -1.2067 Debye
        Dipole field         -0.0003 Ry au, 
 
        Potential amp.        0.0319 Ry
        Total length         54.2615 bohr
 
 
     Adding external electric field

     Computed dipole along edir(3) : 
        Dipole               -0.4747 Ry au,         -1.2067 Debye
        Dipole field         -0.0003 Ry au, 
 
        Potential amp.        0.0319 Ry
        Total length         54.2615 bohr
 

     total cpu time spent up to now is      275.1 secs

     total energy              =   -7398.03598578 Ry
     estimated scf accuracy    <       0.42857621 Ry

     total magnetization       =    81.60 Bohr mag/cell
     absolute magnetization    =    83.73 Bohr mag/cell

     iteration # 19     ecut=    50.00 Ry     beta= 0.10
     Davidson diagonalization with overlap
     ethr =  2.20E-05,  avg # of iterations =  2.0

     negative rho (up, down):  4.562E-09 6.083E-06
 
     Adding external electric field

     Computed dipole along edir(3) : 
        Dipole               -0.4042 Ry au,         -1.0273 Debye
        Dipole field         -0.0002 Ry au, 
 
        Potential amp.        0.0271 Ry
        Total length         54.2615 bohr
 
 
     Adding external electric field

     Computed dipole along edir(3) : 
        Dipole               -0.4042 Ry au,         -1.0273 Debye
        Dipole field         -0.0002 Ry au, 
 
        Potential amp.        0.0271 Ry
        Total length         54.2615 bohr
 

     total cpu time spent up to now is      288.3 secs

     total energy              =   -7398.04279947 Ry
     estimated scf accuracy    <       0.30705386 Ry

     total magnetization       =    81.06 Bohr mag/cell
     absolute magnetization    =    82.63 Bohr mag/cell

     iteration # 20     ecut=    50.00 Ry     beta= 0.10
     Davidson diagonalization with overlap
     ethr =  2.20E-05,  avg # of iterations =  1.5

     negative rho (up, down):  1.455E-08 9.054E-06
 
     Adding external electric field

     Computed dipole along edir(3) : 
        Dipole               -0.4101 Ry au,         -1.0423 Debye
        Dipole field         -0.0003 Ry au, 
 
        Potential amp.        0.0275 Ry
        Total length         54.2615 bohr
 
 
     Adding external electric field

     Computed dipole along edir(3) : 
        Dipole               -0.4101 Ry au,         -1.0423 Debye
        Dipole field         -0.0003 Ry au, 
 
        Potential amp.        0.0275 Ry
        Total length         54.2615 bohr
 

     total cpu time spent up to now is      299.8 secs

     total energy              =   -7398.04557299 Ry
     estimated scf accuracy    <       0.33667668 Ry

     total magnetization       =    80.99 Bohr mag/cell
     absolute magnetization    =    82.37 Bohr mag/cell

     iteration # 21     ecut=    50.00 Ry     beta= 0.10
     Davidson diagonalization with overlap
     ethr =  2.20E-05,  avg # of iterations =  1.5

     negative rho (up, down):  1.661E-09 7.539E-06
 
     Adding external electric field

     Computed dipole along edir(3) : 
        Dipole               -0.3796 Ry au,         -0.9649 Debye
        Dipole field         -0.0002 Ry au, 
 
        Potential amp.        0.0255 Ry
        Total length         54.2615 bohr
 
 
     Adding external electric field

     Computed dipole along edir(3) : 
        Dipole               -0.3796 Ry au,         -0.9649 Debye
        Dipole field         -0.0002 Ry au, 
 
        Potential amp.        0.0255 Ry
        Total length         54.2615 bohr
 

     total cpu time spent up to now is      311.6 secs

     total energy              =   -7398.04590071 Ry
     estimated scf accuracy    <       0.34529019 Ry

     total magnetization       =    81.06 Bohr mag/cell
     absolute magnetization    =    82.42 Bohr mag/cell

     iteration # 22     ecut=    50.00 Ry     beta= 0.10
     Davidson diagonalization with overlap
     ethr =  2.20E-05,  avg # of iterations =  1.0

     negative rho (up, down):  4.063E-08 8.544E-06
 
     Adding external electric field

     Computed dipole along edir(3) : 
        Dipole               -0.4451 Ry au,         -1.1312 Debye
        Dipole field         -0.0003 Ry au, 
 
        Potential amp.        0.0299 Ry
        Total length         54.2615 bohr
 
 
     Adding external electric field

     Computed dipole along edir(3) : 
        Dipole               -0.4451 Ry au,         -1.1312 Debye
        Dipole field         -0.0003 Ry au, 
 
        Potential amp.        0.0299 Ry
        Total length         54.2615 bohr
 

     total cpu time spent up to now is      322.4 secs

     total energy              =   -7398.04118790 Ry
     estimated scf accuracy    <       0.39613995 Ry

     total magnetization       =    81.04 Bohr mag/cell
     absolute magnetization    =    82.35 Bohr mag/cell

     iteration # 23     ecut=    50.00 Ry     beta= 0.10
     Davidson diagonalization with overlap
     ethr =  2.20E-05,  avg # of iterations =  1.5

     negative rho (up, down):  1.186E-07 8.373E-06
 
     Adding external electric field

     Computed dipole along edir(3) : 
        Dipole               -0.5044 Ry au,         -1.2820 Debye
        Dipole field         -0.0003 Ry au, 
 
        Potential amp.        0.0338 Ry
        Total length         54.2615 bohr
 
 
     Adding external electric field

     Computed dipole along edir(3) : 
        Dipole               -0.5044 Ry au,         -1.2820 Debye
        Dipole field         -0.0003 Ry au, 
 
        Potential amp.        0.0338 Ry
        Total length         54.2615 bohr
 

     total cpu time spent up to now is      334.3 secs

     total energy              =   -7398.02822996 Ry
     estimated scf accuracy    <       0.25475395 Ry

     total magnetization       =    81.04 Bohr mag/cell
     absolute magnetization    =    82.40 Bohr mag/cell

     iteration # 24     ecut=    50.00 Ry     beta= 0.10
     Davidson diagonalization with overlap
     ethr =  2.20E-05,  avg # of iterations =  1.5

     negative rho (up, down):  6.469E-07 7.299E-06
 
     Adding external electric field

     Computed dipole along edir(3) : 
        Dipole               -0.5663 Ry au,         -1.4395 Debye
        Dipole field         -0.0004 Ry au, 
 
        Potential amp.        0.0380 Ry
        Total length         54.2615 bohr
 
 
     Adding external electric field

     Computed dipole along edir(3) : 
        Dipole               -0.5663 Ry au,         -1.4395 Debye
        Dipole field         -0.0004 Ry au, 
 
        Potential amp.        0.0380 Ry
        Total length         54.2615 bohr
 

     total cpu time spent up to now is      346.6 secs

     total energy              =   -7398.03414264 Ry
     estimated scf accuracy    <       0.09517171 Ry

     total magnetization       =    80.02 Bohr mag/cell
     absolute magnetization    =    81.41 Bohr mag/cell

     iteration # 25     ecut=    50.00 Ry     beta= 0.10
     Davidson diagonalization with overlap
     ethr =  8.83E-06,  avg # of iterations =  2.0

     negative rho (up, down):  2.596E-08 2.283E-07
 
     Adding external electric field

     Computed dipole along edir(3) : 
        Dipole               -0.4971 Ry au,         -1.2636 Debye
        Dipole field         -0.0003 Ry au, 
 
        Potential amp.        0.0334 Ry
        Total length         54.2615 bohr
 
 
     Adding external electric field

     Computed dipole along edir(3) : 
        Dipole               -0.4971 Ry au,         -1.2636 Debye
        Dipole field         -0.0003 Ry au, 
 
        Potential amp.        0.0334 Ry
        Total length         54.2615 bohr
 

     total cpu time spent up to now is      358.9 secs

     total energy              =   -7398.03612262 Ry
     estimated scf accuracy    <       0.12473970 Ry

     total magnetization       =    79.11 Bohr mag/cell
     absolute magnetization    =    80.65 Bohr mag/cell

     iteration # 26     ecut=    50.00 Ry     beta= 0.10
     Davidson diagonalization with overlap
     ethr =  8.83E-06,  avg # of iterations =  2.0
 
     Adding external electric field

     Computed dipole along edir(3) : 
        Dipole               -0.4621 Ry au,         -1.1746 Debye
        Dipole field         -0.0003 Ry au, 
 
        Potential amp.        0.0310 Ry
        Total length         54.2615 bohr
 
 
     Adding external electric field

     Computed dipole along edir(3) : 
        Dipole               -0.4621 Ry au,         -1.1746 Debye
        Dipole field         -0.0003 Ry au, 
 
        Potential amp.        0.0310 Ry
        Total length         54.2615 bohr
 

     total cpu time spent up to now is      371.3 secs

     total energy              =   -7398.03297604 Ry
     estimated scf accuracy    <       0.17043356 Ry

     total magnetization       =    79.17 Bohr mag/cell
     absolute magnetization    =    80.76 Bohr mag/cell

     iteration # 27     ecut=    50.00 Ry     beta= 0.10
     Davidson diagonalization with overlap
     ethr =  8.83E-06,  avg # of iterations =  3.0

     negative rho (up, down):  5.850E-07 2.527E-07
 
     Adding external electric field

     Computed dipole along edir(3) : 
        Dipole               -0.5286 Ry au,         -1.3436 Debye
        Dipole field         -0.0003 Ry au, 
 
        Potential amp.        0.0355 Ry
        Total length         54.2615 bohr
 
 
     Adding external electric field

     Computed dipole along edir(3) : 
        Dipole               -0.5286 Ry au,         -1.3436 Debye
        Dipole field         -0.0003 Ry au, 
 
        Potential amp.        0.0355 Ry
        Total length         54.2615 bohr
 

     total cpu time spent up to now is      385.0 secs

     total energy              =   -7398.03332111 Ry
     estimated scf accuracy    <       0.13120273 Ry

     total magnetization       =    80.12 Bohr mag/cell
     absolute magnetization    =    81.76 Bohr mag/cell

     iteration # 28     ecut=    50.00 Ry     beta= 0.10
     Davidson diagonalization with overlap
     ethr =  8.83E-06,  avg # of iterations =  1.5
 
     Adding external electric field

     Computed dipole along edir(3) : 
        Dipole               -0.3508 Ry au,         -0.8917 Debye
        Dipole field         -0.0002 Ry au, 
 
        Potential amp.        0.0235 Ry
        Total length         54.2615 bohr
 
 
     Adding external electric field

     Computed dipole along edir(3) : 
        Dipole               -0.3508 Ry au,         -0.8917 Debye
        Dipole field         -0.0002 Ry au, 
 
        Potential amp.        0.0235 Ry
        Total length         54.2615 bohr
 

     total cpu time spent up to now is      396.5 secs

     total energy              =   -7398.03705537 Ry
     estimated scf accuracy    <       0.09543213 Ry

     total magnetization       =    80.55 Bohr mag/cell
     absolute magnetization    =    82.22 Bohr mag/cell

     iteration # 29     ecut=    50.00 Ry     beta= 0.10
     Davidson diagonalization with overlap
     c_bands:  2 eigenvalues not converged
     ethr =  8.83E-06,  avg # of iterations = 11.0

     negative rho (up, down):  2.091E-08 1.973E-08
 
     Adding external electric field

     Computed dipole along edir(3) : 
        Dipole               -0.2329 Ry au,         -0.5919 Debye
        Dipole field         -0.0001 Ry au, 
 
        Potential amp.        0.0156 Ry
        Total length         54.2615 bohr
 
 
     Adding external electric field

     Computed dipole along edir(3) : 
        Dipole               -0.2329 Ry au,         -0.5919 Debye
        Dipole field         -0.0001 Ry au, 
 
        Potential amp.        0.0156 Ry
        Total length         54.2615 bohr
 

     total cpu time spent up to now is      413.2 secs

     total energy              =   -7398.03860530 Ry
     estimated scf accuracy    <       0.24779772 Ry

     total magnetization       =    80.72 Bohr mag/cell
     absolute magnetization    =    82.28 Bohr mag/cell

     iteration # 30     ecut=    50.00 Ry     beta= 0.10
     Davidson diagonalization with overlap
     ethr =  8.83E-06,  avg # of iterations =  3.0
 
     Adding external electric field

     Computed dipole along edir(3) : 
        Dipole               -0.3302 Ry au,         -0.8393 Debye
        Dipole field         -0.0002 Ry au, 
 
        Potential amp.        0.0222 Ry
        Total length         54.2615 bohr
 
 
     Adding external electric field

     Computed dipole along edir(3) : 
        Dipole               -0.3302 Ry au,         -0.8393 Debye
        Dipole field         -0.0002 Ry au, 
 
        Potential amp.        0.0222 Ry
        Total length         54.2615 bohr
 

     total cpu time spent up to now is      426.3 secs

     total energy              =   -7398.03830193 Ry
     estimated scf accuracy    <       0.32846678 Ry

     total magnetization       =    80.10 Bohr mag/cell
     absolute magnetization    =    81.64 Bohr mag/cell

     iteration # 31     ecut=    50.00 Ry     beta= 0.10
     Davidson diagonalization with overlap
     ethr =  8.83E-06,  avg # of iterations =  2.0

     negative rho (up, down):  2.229E-08 2.149E-08
 
     Adding external electric field

     Computed dipole along edir(3) : 
        Dipole               -0.2098 Ry au,         -0.5333 Debye
        Dipole field         -0.0001 Ry au, 
 
        Potential amp.        0.0141 Ry
        Total length         54.2615 bohr
 
 
     Adding external electric field

     Computed dipole along edir(3) : 
        Dipole               -0.2098 Ry au,         -0.5333 Debye
        Dipole field         -0.0001 Ry au, 
 
        Potential amp.        0.0141 Ry
        Total length         54.2615 bohr
 

     total cpu time spent up to now is      438.0 secs

     total energy              =   -7398.04243651 Ry
     estimated scf accuracy    <       0.24422150 Ry

     total magnetization       =    80.27 Bohr mag/cell
     absolute magnetization    =    81.82 Bohr mag/cell

     iteration # 32     ecut=    50.00 Ry     beta= 0.10
     Davidson diagonalization with overlap
     c_bands:  2 eigenvalues not converged
     ethr =  8.83E-06,  avg # of iterations = 21.0
 
     Adding external electric field

     Computed dipole along edir(3) : 
        Dipole               -0.4165 Ry au,         -1.0587 Debye
        Dipole field         -0.0003 Ry au, 
 
        Potential amp.        0.0280 Ry
        Total length         54.2615 bohr
 
 
     Adding external electric field

     Computed dipole along edir(3) : 
        Dipole               -0.4165 Ry au,         -1.0587 Debye
        Dipole field         -0.0003 Ry au, 
 
        Potential amp.        0.0280 Ry
        Total length         54.2615 bohr
 

     total cpu time spent up to now is      463.7 secs

     total energy              =   -7398.03524405 Ry
     estimated scf accuracy    <       0.40075157 Ry

     total magnetization       =    80.48 Bohr mag/cell
     absolute magnetization    =    81.99 Bohr mag/cell

     iteration # 33     ecut=    50.00 Ry     beta= 0.10
     Davidson diagonalization with overlap
     ethr =  8.83E-06,  avg # of iterations =  1.5

     negative rho (up, down):  1.575E-07 3.968E-06
 
     Adding external electric field

     Computed dipole along edir(3) : 
        Dipole               -0.5584 Ry au,         -1.4194 Debye
        Dipole field         -0.0003 Ry au, 
 
        Potential amp.        0.0375 Ry
        Total length         54.2615 bohr
 
 
     Adding external electric field

     Computed dipole along edir(3) : 
        Dipole               -0.5584 Ry au,         -1.4194 Debye
        Dipole field         -0.0003 Ry au, 
 
        Potential amp.        0.0375 Ry
        Total length         54.2615 bohr
 

     total cpu time spent up to now is      475.1 secs

     total energy              =   -7398.03203622 Ry
     estimated scf accuracy    <       0.20938769 Ry

     total magnetization       =    80.50 Bohr mag/cell
     absolute magnetization    =    82.04 Bohr mag/cell

     iteration # 34     ecut=    50.00 Ry     beta= 0.10
     Davidson diagonalization with overlap
     ethr =  8.83E-06,  avg # of iterations =  2.0

     negative rho (up, down):  1.166E-06 1.536E-05
 
     Adding external electric field

     Computed dipole along edir(3) : 
        Dipole               -0.6471 Ry au,         -1.6449 Debye
        Dipole field         -0.0004 Ry au, 
 
        Potential amp.        0.0434 Ry
        Total length         54.2615 bohr
 
 
     Adding external electric field

     Computed dipole along edir(3) : 
        Dipole               -0.6471 Ry au,         -1.6449 Debye
        Dipole field         -0.0004 Ry au, 
 
        Potential amp.        0.0434 Ry
        Total length         54.2615 bohr
 

     total cpu time spent up to now is      486.7 secs

     total energy              =   -7398.03464221 Ry
     estimated scf accuracy    <       0.05773030 Ry

     total magnetization       =    79.99 Bohr mag/cell
     absolute magnetization    =    81.49 Bohr mag/cell

     iteration # 35     ecut=    50.00 Ry     beta= 0.10
     Davidson diagonalization with overlap
     ethr =  5.36E-06,  avg # of iterations =  2.0
 
     Adding external electric field

     Computed dipole along edir(3) : 
        Dipole               -0.4234 Ry au,         -1.0762 Debye
        Dipole field         -0.0003 Ry au, 
 
        Potential amp.        0.0284 Ry
        Total length         54.2615 bohr
 
 
     Adding external electric field

     Computed dipole along edir(3) : 
        Dipole               -0.4234 Ry au,         -1.0762 Debye
        Dipole field         -0.0003 Ry au, 
 
        Potential amp.        0.0284 Ry
        Total length         54.2615 bohr
 

     total cpu time spent up to now is      499.0 secs

     total energy              =   -7398.02913661 Ry
     estimated scf accuracy    <       0.11733748 Ry

     total magnetization       =    79.53 Bohr mag/cell
     absolute magnetization    =    81.08 Bohr mag/cell

     iteration # 36     ecut=    50.00 Ry     beta= 0.10
     Davidson diagonalization with overlap
     ethr =  5.36E-06,  avg # of iterations =  2.0

     negative rho (up, down):  1.554E-07 9.653E-07
 
     Adding external electric field

     Computed dipole along edir(3) : 
        Dipole               -0.6029 Ry au,         -1.5324 Debye
        Dipole field         -0.0004 Ry au, 
 
        Potential amp.        0.0405 Ry
        Total length         54.2615 bohr
 
 
     Adding external electric field

     Computed dipole along edir(3) : 
        Dipole               -0.6029 Ry au,         -1.5324 Debye
        Dipole field         -0.0004 Ry au, 
 
        Potential amp.        0.0405 Ry
        Total length         54.2615 bohr
 

     total cpu time spent up to now is      510.9 secs

     total energy              =   -7398.03185987 Ry
     estimated scf accuracy    <       0.16960222 Ry

     total magnetization       =    80.43 Bohr mag/cell
     absolute magnetization    =    81.97 Bohr mag/cell

     iteration # 37     ecut=    50.00 Ry     beta= 0.10
     Davidson diagonalization with overlap
     ethr =  5.36E-06,  avg # of iterations =  2.0

     negative rho (up, down):  2.146E-06 1.011E-05
 
     Adding external electric field

     Computed dipole along edir(3) : 
        Dipole               -0.6870 Ry au,         -1.7462 Debye
        Dipole field         -0.0004 Ry au, 
 
        Potential amp.        0.0461 Ry
        Total length         54.2615 bohr
 
 
     Adding external electric field

     Computed dipole along edir(3) : 
        Dipole               -0.6870 Ry au,         -1.7462 Debye
        Dipole field         -0.0004 Ry au, 
 
        Potential amp.        0.0461 Ry
        Total length         54.2615 bohr
 

     total cpu time spent up to now is      523.7 secs

     total energy              =   -7398.03676113 Ry
     estimated scf accuracy    <       0.06910911 Ry

     total magnetization       =    79.55 Bohr mag/cell
     absolute magnetization    =    81.22 Bohr mag/cell

     iteration # 38     ecut=    50.00 Ry     beta= 0.10
     Davidson diagonalization with overlap
     ethr =  5.36E-06,  avg # of iterations =  2.0

     negative rho (up, down):  6.295E-08 8.455E-08
 
     Adding external electric field

     Computed dipole along edir(3) : 
        Dipole               -0.4546 Ry au,         -1.1556 Debye
        Dipole field         -0.0003 Ry au, 
 
        Potential amp.        0.0305 Ry
        Total length         54.2615 bohr
 
 
     Adding external electric field

     Computed dipole along edir(3) : 
        Dipole               -0.4546 Ry au,         -1.1556 Debye
        Dipole field         -0.0003 Ry au, 
 
        Potential amp.        0.0305 Ry
        Total length         54.2615 bohr
 

     total cpu time spent up to now is      536.8 secs

     total energy              =   -7398.02603260 Ry
     estimated scf accuracy    <       0.21344081 Ry

     total magnetization       =    79.17 Bohr mag/cell
     absolute magnetization    =    80.80 Bohr mag/cell

     iteration # 39     ecut=    50.00 Ry     beta= 0.10
     Davidson diagonalization with overlap
     ethr =  5.36E-06,  avg # of iterations =  2.0

     negative rho (up, down):  3.262E-07 3.411E-07
 
     Adding external electric field

     Computed dipole along edir(3) : 
        Dipole               -0.4760 Ry au,         -1.2099 Debye
        Dipole field         -0.0003 Ry au, 
 
        Potential amp.        0.0319 Ry
        Total length         54.2615 bohr
 
 
     Adding external electric field

     Computed dipole along edir(3) : 
        Dipole               -0.4760 Ry au,         -1.2099 Debye
        Dipole field         -0.0003 Ry au, 
 
        Potential amp.        0.0319 Ry
        Total length         54.2615 bohr
 

     total cpu time spent up to now is      548.4 secs

     total energy              =   -7398.03441917 Ry
     estimated scf accuracy    <       0.08280317 Ry

     total magnetization       =    80.30 Bohr mag/cell
     absolute magnetization    =    81.74 Bohr mag/cell

     iteration # 40     ecut=    50.00 Ry     beta= 0.10
     Davidson diagonalization with overlap
     ethr =  5.36E-06,  avg # of iterations =  1.5

     negative rho (up, down):  6.193E-07 5.484E-07
 
     Adding external electric field

     Computed dipole along edir(3) : 
        Dipole               -0.4773 Ry au,         -1.2132 Debye
        Dipole field         -0.0003 Ry au, 
 
        Potential amp.        0.0320 Ry
        Total length         54.2615 bohr
 
 
     Adding external electric field

     Computed dipole along edir(3) : 
        Dipole               -0.4773 Ry au,         -1.2132 Debye
        Dipole field         -0.0003 Ry au, 
 
        Potential amp.        0.0320 Ry
        Total length         54.2615 bohr
 

     total cpu time spent up to now is      560.2 secs

     total energy              =   -7398.03405785 Ry
     estimated scf accuracy    <       0.05846282 Ry

     total magnetization       =    80.28 Bohr mag/cell
     absolute magnetization    =    81.67 Bohr mag/cell

     iteration # 41     ecut=    50.00 Ry     beta= 0.10
     Davidson diagonalization with overlap
     ethr =  5.36E-06,  avg # of iterations =  1.0

     negative rho (up, down):  8.103E-07 7.028E-07
 
     Adding external electric field

     Computed dipole along edir(3) : 
        Dipole               -0.4815 Ry au,         -1.2238 Debye
        Dipole field         -0.0003 Ry au, 
 
        Potential amp.        0.0323 Ry
        Total length         54.2615 bohr
 
 
     Adding external electric field

     Computed dipole along edir(3) : 
        Dipole               -0.4815 Ry au,         -1.2238 Debye
        Dipole field         -0.0003 Ry au, 
 
        Potential amp.        0.0323 Ry
        Total length         54.2615 bohr
 

     total cpu time spent up to now is      571.0 secs

     total energy              =   -7398.03386527 Ry
     estimated scf accuracy    <       0.05330047 Ry

     total magnetization       =    80.28 Bohr mag/cell
     absolute magnetization    =    81.64 Bohr mag/cell

     iteration # 42     ecut=    50.00 Ry     beta= 0.10
     Davidson diagonalization with overlap
     ethr =  4.94E-06,  avg # of iterations =  1.0

     negative rho (up, down):  1.353E-06 1.238E-06
 
     Adding external electric field

     Computed dipole along edir(3) : 
        Dipole               -0.4570 Ry au,         -1.1615 Debye
        Dipole field         -0.0003 Ry au, 
 
        Potential amp.        0.0307 Ry
        Total length         54.2615 bohr
 
 
     Adding external electric field

     Computed dipole along edir(3) : 
        Dipole               -0.4570 Ry au,         -1.1615 Debye
        Dipole field         -0.0003 Ry au, 
 
        Potential amp.        0.0307 Ry
        Total length         54.2615 bohr
 

     total cpu time spent up to now is      581.9 secs

     total energy              =   -7398.03295076 Ry
     estimated scf accuracy    <       0.04644412 Ry

     total magnetization       =    80.25 Bohr mag/cell
     absolute magnetization    =    81.61 Bohr mag/cell

     iteration # 43     ecut=    50.00 Ry     beta= 0.10
     Davidson diagonalization with overlap
     ethr =  4.31E-06,  avg # of iterations =  2.0

     negative rho (up, down):  1.394E-06 1.224E-06
 
     Adding external electric field

     Computed dipole along edir(3) : 
        Dipole               -0.4568 Ry au,         -1.1612 Debye
        Dipole field         -0.0003 Ry au, 
 
        Potential amp.        0.0307 Ry
        Total length         54.2615 bohr
 
 
     Adding external electric field

     Computed dipole along edir(3) : 
        Dipole               -0.4568 Ry au,         -1.1612 Debye
        Dipole field         -0.0003 Ry au, 
 
        Potential amp.        0.0307 Ry
        Total length         54.2615 bohr
 

     total cpu time spent up to now is      595.0 secs

     total energy              =   -7398.03321669 Ry
     estimated scf accuracy    <       0.02959751 Ry

     total magnetization       =    80.11 Bohr mag/cell
     absolute magnetization    =    81.47 Bohr mag/cell

     iteration # 44     ecut=    50.00 Ry     beta= 0.10
     Davidson diagonalization with overlap
     ethr =  2.75E-06,  avg # of iterations =  1.0

     negative rho (up, down):  1.247E-06 1.021E-06
 
     Adding external electric field

     Computed dipole along edir(3) : 
        Dipole               -0.4368 Ry au,         -1.1103 Debye
        Dipole field         -0.0003 Ry au, 
 
        Potential amp.        0.0293 Ry
        Total length         54.2615 bohr
 
 
     Adding external electric field

     Computed dipole along edir(3) : 
        Dipole               -0.4368 Ry au,         -1.1103 Debye
        Dipole field         -0.0003 Ry au, 
 
        Potential amp.        0.0293 Ry
        Total length         54.2615 bohr
 

     total cpu time spent up to now is      604.9 secs

     total energy              =   -7398.03322136 Ry
     estimated scf accuracy    <       0.02910040 Ry

     total magnetization       =    80.12 Bohr mag/cell
     absolute magnetization    =    81.47 Bohr mag/cell

     iteration # 45     ecut=    50.00 Ry     beta= 0.10
     Davidson diagonalization with overlap
     ethr =  2.70E-06,  avg # of iterations =  2.0

     negative rho (up, down):  2.251E-06 1.421E-06
 
     Adding external electric field

     Computed dipole along edir(3) : 
        Dipole               -0.4544 Ry au,         -1.1550 Debye
        Dipole field         -0.0003 Ry au, 
 
        Potential amp.        0.0305 Ry
        Total length         54.2615 bohr
 
 
     Adding external electric field

     Computed dipole along edir(3) : 
        Dipole               -0.4544 Ry au,         -1.1550 Debye
        Dipole field         -0.0003 Ry au, 
 
        Potential amp.        0.0305 Ry
        Total length         54.2615 bohr
 

     total cpu time spent up to now is      618.0 secs

     total energy              =   -7398.03302435 Ry
     estimated scf accuracy    <       0.04026321 Ry

     total magnetization       =    80.19 Bohr mag/cell
     absolute magnetization    =    81.55 Bohr mag/cell

     iteration # 46     ecut=    50.00 Ry     beta= 0.10
     Davidson diagonalization with overlap
     ethr =  2.70E-06,  avg # of iterations =  2.0

     negative rho (up, down):  2.996E-06 1.791E-06
 
     Adding external electric field

     Computed dipole along edir(3) : 
        Dipole               -0.4475 Ry au,         -1.1375 Debye
        Dipole field         -0.0003 Ry au, 
 
        Potential amp.        0.0300 Ry
        Total length         54.2615 bohr
 
 
     Adding external electric field

     Computed dipole along edir(3) : 
        Dipole               -0.4475 Ry au,         -1.1375 Debye
        Dipole field         -0.0003 Ry au, 
 
        Potential amp.        0.0300 Ry
        Total length         54.2615 bohr
 

     total cpu time spent up to now is      630.0 secs

     total energy              =   -7398.03286526 Ry
     estimated scf accuracy    <       0.02875639 Ry

     total magnetization       =    80.16 Bohr mag/cell
     absolute magnetization    =    81.55 Bohr mag/cell

     iteration # 47     ecut=    50.00 Ry     beta= 0.10
     Davidson diagonalization with overlap
     ethr =  2.67E-06,  avg # of iterations =  2.0

     negative rho (up, down):  2.729E-06 2.056E-06
 
     Adding external electric field

     Computed dipole along edir(3) : 
        Dipole               -0.4095 Ry au,         -1.0409 Debye
        Dipole field         -0.0003 Ry au, 
 
        Potential amp.        0.0275 Ry
        Total length         54.2615 bohr
 
 
     Adding external electric field

     Computed dipole along edir(3) : 
        Dipole               -0.4095 Ry au,         -1.0409 Debye
        Dipole field         -0.0003 Ry au, 
 
        Potential amp.        0.0275 Ry
        Total length         54.2615 bohr
 

     total cpu time spent up to now is      641.9 secs

     total energy              =   -7398.03272793 Ry
     estimated scf accuracy    <       0.02232140 Ry

     total magnetization       =    80.12 Bohr mag/cell
     absolute magnetization    =    81.53 Bohr mag/cell

     iteration # 48     ecut=    50.00 Ry     beta= 0.10
     Davidson diagonalization with overlap
     c_bands:  5 eigenvalues not converged
     c_bands:  2 eigenvalues not converged
     ethr =  2.07E-06,  avg # of iterations = 20.0

     negative rho (up, down):  1.173E-06 1.020E-06
 
     Adding external electric field

     Computed dipole along edir(3) : 
        Dipole               -0.3441 Ry au,         -0.8746 Debye
        Dipole field         -0.0002 Ry au, 
 
        Potential amp.        0.0231 Ry
        Total length         54.2615 bohr
 
 
     Adding external electric field

     Computed dipole along edir(3) : 
        Dipole               -0.3441 Ry au,         -0.8746 Debye
        Dipole field         -0.0002 Ry au, 
 
        Potential amp.        0.0231 Ry
        Total length         54.2615 bohr
 

     total cpu time spent up to now is      663.9 secs

     total energy              =   -7398.03237817 Ry
     estimated scf accuracy    <       0.01607885 Ry

     total magnetization       =    80.01 Bohr mag/cell
     absolute magnetization    =    81.43 Bohr mag/cell

     iteration # 49     ecut=    50.00 Ry     beta= 0.10
     Davidson diagonalization with overlap
     c_bands:  1 eigenvalues not converged
     ethr =  1.49E-06,  avg # of iterations = 11.0

     negative rho (up, down):  1.931E-06 1.686E-06
 
     Adding external electric field

     Computed dipole along edir(3) : 
        Dipole               -0.3784 Ry au,         -0.9618 Debye
        Dipole field         -0.0002 Ry au, 
 
        Potential amp.        0.0254 Ry
        Total length         54.2615 bohr
 
 
     Adding external electric field

     Computed dipole along edir(3) : 
        Dipole               -0.3784 Ry au,         -0.9618 Debye
        Dipole field         -0.0002 Ry au, 
 
        Potential amp.        0.0254 Ry
        Total length         54.2615 bohr
 

     total cpu time spent up to now is      679.8 secs

     total energy              =   -7398.03240353 Ry
     estimated scf accuracy    <       0.01921752 Ry

     total magnetization       =    79.94 Bohr mag/cell
     absolute magnetization    =    81.34 Bohr mag/cell

     iteration # 50     ecut=    50.00 Ry     beta= 0.10
     Davidson diagonalization with overlap
     ethr =  1.49E-06,  avg # of iterations =  1.5

     negative rho (up, down):  6.170E-07 6.795E-07
 
     Adding external electric field

     Computed dipole along edir(3) : 
        Dipole               -0.3528 Ry au,         -0.8966 Debye
        Dipole field         -0.0002 Ry au, 
 
        Potential amp.        0.0237 Ry
        Total length         54.2615 bohr
 
 
     Adding external electric field

     Computed dipole along edir(3) : 
        Dipole               -0.3528 Ry au,         -0.8966 Debye
        Dipole field         -0.0002 Ry au, 
 
        Potential amp.        0.0237 Ry
        Total length         54.2615 bohr
 

     total cpu time spent up to now is      690.5 secs

     total energy              =   -7398.03284028 Ry
     estimated scf accuracy    <       0.01853328 Ry

     total magnetization       =    79.96 Bohr mag/cell
     absolute magnetization    =    81.33 Bohr mag/cell

     iteration # 51     ecut=    50.00 Ry     beta= 0.10
     Davidson diagonalization with overlap
     ethr =  1.49E-06,  avg # of iterations =  1.5

     negative rho (up, down):  4.554E-06 6.330E-06
 
     Adding external electric field

     Computed dipole along edir(3) : 
        Dipole               -0.3365 Ry au,         -0.8552 Debye
        Dipole field         -0.0002 Ry au, 
 
        Potential amp.        0.0226 Ry
        Total length         54.2615 bohr
 
 
     Adding external electric field

     Computed dipole along edir(3) : 
        Dipole               -0.3365 Ry au,         -0.8552 Debye
        Dipole field         -0.0002 Ry au, 
 
        Potential amp.        0.0226 Ry
        Total length         54.2615 bohr
 

     total cpu time spent up to now is      701.5 secs

     total energy              =   -7398.03270553 Ry
     estimated scf accuracy    <       0.02073530 Ry

     total magnetization       =    79.97 Bohr mag/cell
     absolute magnetization    =    81.43 Bohr mag/cell

     iteration # 52     ecut=    50.00 Ry     beta= 0.10
     Davidson diagonalization with overlap
     ethr =  1.49E-06,  avg # of iterations =  1.5

     negative rho (up, down):  1.055E-06 1.236E-06
 
     Adding external electric field

     Computed dipole along edir(3) : 
        Dipole               -0.3413 Ry au,         -0.8676 Debye
        Dipole field         -0.0002 Ry au, 
 
        Potential amp.        0.0229 Ry
        Total length         54.2615 bohr
 
 
     Adding external electric field

     Computed dipole along edir(3) : 
        Dipole               -0.3413 Ry au,         -0.8676 Debye
        Dipole field         -0.0002 Ry au, 
 
        Potential amp.        0.0229 Ry
        Total length         54.2615 bohr
 

     total cpu time spent up to now is      712.4 secs

     total energy              =   -7398.03282879 Ry
     estimated scf accuracy    <       0.01959822 Ry

     total magnetization       =    79.95 Bohr mag/cell
     absolute magnetization    =    81.41 Bohr mag/cell

     iteration # 53     ecut=    50.00 Ry     beta= 0.10
     Davidson diagonalization with overlap
     ethr =  1.49E-06,  avg # of iterations =  1.5

     negative rho (up, down):  3.682E-06 5.447E-06
 
     Adding external electric field

     Computed dipole along edir(3) : 
        Dipole               -0.3343 Ry au,         -0.8497 Debye
        Dipole field         -0.0002 Ry au, 
 
        Potential amp.        0.0224 Ry
        Total length         54.2615 bohr
 
 
     Adding external electric field

     Computed dipole along edir(3) : 
        Dipole               -0.3343 Ry au,         -0.8497 Debye
        Dipole field         -0.0002 Ry au, 
 
        Potential amp.        0.0224 Ry
        Total length         54.2615 bohr
 

     total cpu time spent up to now is      723.1 secs

     total energy              =   -7398.03268863 Ry
     estimated scf accuracy    <       0.02071318 Ry

     total magnetization       =    79.95 Bohr mag/cell
     absolute magnetization    =    81.40 Bohr mag/cell

     iteration # 54     ecut=    50.00 Ry     beta= 0.10
     Davidson diagonalization with overlap
     ethr =  1.49E-06,  avg # of iterations =  1.5

     negative rho (up, down):  6.095E-06 1.219E-05
 
     Adding external electric field

     Computed dipole along edir(3) : 
        Dipole               -0.3259 Ry au,         -0.8283 Debye
        Dipole field         -0.0002 Ry au, 
 
        Potential amp.        0.0219 Ry
        Total length         54.2615 bohr
 
 
     Adding external electric field

     Computed dipole along edir(3) : 
        Dipole               -0.3259 Ry au,         -0.8283 Debye
        Dipole field         -0.0002 Ry au, 
 
        Potential amp.        0.0219 Ry
        Total length         54.2615 bohr
 

     total cpu time spent up to now is      733.9 secs

     total energy              =   -7398.03269619 Ry
     estimated scf accuracy    <       0.02203196 Ry

     total magnetization       =    79.95 Bohr mag/cell
     absolute magnetization    =    81.39 Bohr mag/cell

     iteration # 55     ecut=    50.00 Ry     beta= 0.10
     Davidson diagonalization with overlap
     ethr =  1.49E-06,  avg # of iterations =  1.0

     negative rho (up, down):  6.974E-07 5.832E-07
 
     Adding external electric field

     Computed dipole along edir(3) : 
        Dipole               -0.3854 Ry au,         -0.9795 Debye
        Dipole field         -0.0002 Ry au, 
 
        Potential amp.        0.0259 Ry
        Total length         54.2615 bohr
 
 
     Adding external electric field

     Computed dipole along edir(3) : 
        Dipole               -0.3854 Ry au,         -0.9795 Debye
        Dipole field         -0.0002 Ry au, 
 
        Potential amp.        0.0259 Ry
        Total length         54.2615 bohr
 

     total cpu time spent up to now is      743.8 secs

     total energy              =   -7398.03291688 Ry
     estimated scf accuracy    <       0.02269863 Ry

     total magnetization       =    79.93 Bohr mag/cell
     absolute magnetization    =    81.37 Bohr mag/cell

     iteration # 56     ecut=    50.00 Ry     beta= 0.10
     Davidson diagonalization with overlap
     ethr =  1.49E-06,  avg # of iterations =  1.5

     negative rho (up, down):  9.061E-07 6.741E-07
 
     Adding external electric field

     Computed dipole along edir(3) : 
        Dipole               -0.4028 Ry au,         -1.0237 Debye
        Dipole field         -0.0002 Ry au, 
 
        Potential amp.        0.0270 Ry
        Total length         54.2615 bohr
 
 
     Adding external electric field

     Computed dipole along edir(3) : 
        Dipole               -0.4028 Ry au,         -1.0237 Debye
        Dipole field         -0.0002 Ry au, 
 
        Potential amp.        0.0270 Ry
        Total length         54.2615 bohr
 

     total cpu time spent up to now is      754.4 secs

     total energy              =   -7398.03287255 Ry
     estimated scf accuracy    <       0.01909745 Ry

     total magnetization       =    79.97 Bohr mag/cell
     absolute magnetization    =    81.46 Bohr mag/cell

     iteration # 57     ecut=    50.00 Ry     beta= 0.10
     Davidson diagonalization with overlap
     ethr =  1.49E-06,  avg # of iterations =  1.0

     negative rho (up, down):  3.294E-05 4.680E-05
 
     Adding external electric field

     Computed dipole along edir(3) : 
        Dipole               -0.3426 Ry au,         -0.8707 Debye
        Dipole field         -0.0002 Ry au, 
 
        Potential amp.        0.0230 Ry
        Total length         54.2615 bohr
 
 
     Adding external electric field

     Computed dipole along edir(3) : 
        Dipole               -0.3426 Ry au,         -0.8707 Debye
        Dipole field         -0.0002 Ry au, 
 
        Potential amp.        0.0230 Ry
        Total length         54.2615 bohr
 

     total cpu time spent up to now is      764.9 secs

     total energy              =   -7398.03215266 Ry
     estimated scf accuracy    <       0.01781098 Ry

     total magnetization       =    80.01 Bohr mag/cell
     absolute magnetization    =    81.48 Bohr mag/cell

     iteration # 58     ecut=    50.00 Ry     beta= 0.10
     Davidson diagonalization with overlap
     ethr =  1.49E-06,  avg # of iterations =  2.0

     negative rho (up, down):  1.321E-06 6.829E-07
 
     Adding external electric field

     Computed dipole along edir(3) : 
        Dipole               -0.3630 Ry au,         -0.9226 Debye
        Dipole field         -0.0002 Ry au, 
 
        Potential amp.        0.0244 Ry
        Total length         54.2615 bohr
 
 
     Adding external electric field

     Computed dipole along edir(3) : 
[...]
    -5.9508  -5.9337  -5.9203  -5.9108  -5.8833  -5.8547  -5.8177  -5.8116
    -5.7782  -5.7640  -5.7555  -5.7351  -5.7234  -5.6926  -5.6797  -5.6475
    -5.6411  -5.6269  -5.5983  -5.5897  -5.5805  -5.5617  -5.5268  -5.4797
    -5.4617  -5.4244  -5.3966  -5.3887  -5.3591  -5.3457  -5.3147  -5.2791
    -5.2375  -5.2034  -5.1876  -5.1413  -5.1023  -5.0752  -5.0310  -5.0257
    -4.9978  -4.9714  -4.9566  -4.9077  -4.8939  -4.8624  -4.8417  -4.8245
    -4.7910  -4.7534  -4.6962  -4.6934  -4.6592  -4.6197  -4.5718  -4.5616
    -4.4964  -4.4876  -4.4517  -4.4316  -4.4201  -4.3690  -4.3585  -4.3292
    -4.3224  -4.2661  -4.2126  -4.1889  -4.1568  -4.1273  -4.1182  -4.0931
    -4.0450  -4.0052  -3.9910  -3.9672  -3.9515  -3.9161  -3.9044  -3.8768
    -3.8581  -3.8401  -3.8168  -3.7876  -3.7771  -3.7230  -3.7123  -3.7027
    -3.6825  -3.6712  -3.6337  -3.6321  -3.6304  -3.5986  -3.5895  -3.5232
    -3.5140  -3.4943  -3.4877  -3.4784  -3.4700  -3.4556  -3.4276  -3.4243
    -3.4152  -3.3690  -3.3476  -3.3366  -3.3291  -3.3060  -3.2759  -3.2428
    -3.2224  -3.2041  -3.1724  -3.1602  -3.1439  -3.1308  -3.1191  -3.1132
    -3.0889  -3.0711  -3.0476  -3.0255  -2.9961  -2.9773  -2.9601  -2.9340
    -2.9018  -2.8926  -2.8828  -2.8637  -2.8284  -2.8205  -2.7913  -2.7766
    -2.7630  -2.7555  -2.7359  -2.7321  -2.7251  -2.7109  -2.7057  -2.6994
    -2.6726  -2.6562  -2.6340  -2.6131  -2.6021  -2.6002  -2.5730  -2.5495
    -2.5379  -2.5204  -2.5058  -2.4773  -2.4646  -2.4525  -2.4443  -2.4282
    -2.3888  -2.3830  -2.3704  -2.3550  -2.3217  -2.3107  -2.2739  -2.2620
    -2.2576  -2.2207  -2.2103  -2.1853  -2.1734  -2.1657  -2.1187  -2.1010
    -2.0949  -2.0732  -2.0577  -2.0458  -2.0366  -2.0187  -1.9870  -1.9706
    -1.9620  -1.9472  -1.9386  -1.9324  -1.8963  -1.8765  -1.8645  -1.8400
    -1.8209  -1.8013  -1.7692  -1.7574  -1.7308  -1.7273  -1.6978  -1.6834
    -1.6643  -1.6530  -1.6381  -1.6019  -1.5932  -1.5702  -1.5626  -1.5300
    -1.5103  -1.4913  -1.4906  -1.4706  -1.4326  -1.4231  -1.3976  -1.3958
    -1.3719  -1.3542  -1.3126  -1.2865  -1.2691  -1.2398  -1.2240  -1.2149
    -1.1439  -1.1234  -1.0771  -1.0046  -0.9571  -0.9394  -0.8538  -0.8365
    -0.7965  -0.7520  -0.6920  -0.5056  -0.3635  -0.2965  -0.2929  -0.1885
     0.1354   0.1562   0.1867   0.2255   0.2567   0.2643   0.2758   0.2784
     0.3051   0.3079   0.3391   0.3455   0.3492   0.3592   0.3668   0.3789
     0.3819   0.3847   0.3976   0.4108   0.4200   0.4283   0.4300   0.4417
     0.4420   0.4495   0.4607   0.4706   0.4713   0.4768   0.4813   0.4900
     0.5013   0.5127   0.5158   0.5203   0.5275   0.5323   0.5330   0.5496
     0.5611   0.5662   0.5737   0.5756   0.5818   0.5865   0.5914   0.6107
     0.6155   0.6290   0.6304   0.6391   0.6462   0.6491   0.6549   0.6703
     0.6729   0.6776   0.6844   0.6882   0.7005   0.7024   0.7119   0.7224
     0.7261   0.7338   0.7404   0.7541   0.7593   0.7730   0.7741   0.7813
     0.7921   0.7940   0.8048   0.8160   0.8320   0.8412   0.8575   0.8649
     0.8762   0.8842   0.8905   0.8946   0.9065   0.9119   0.9201   0.9211
     0.9334   0.9450   0.9678   0.9699   0.9834   0.9987   1.0270   1.0413
     1.1515   1.1852   1.6215   1.7044   1.7076   1.7129   1.7413   1.7492
     1.7631   1.8447   1.8752   1.8978   1.9245   1.9615   1.9697   1.9797
     1.9969   2.0422   2.0472   2.0550   2.0706   2.0753   2.0955   2.1275
     2.1543   2.1732   2.1925   2.2033   2.2203   2.2324   2.2661   2.2691
     2.2861   2.2875   2.2998   2.3130   2.3202   2.3326   2.3492   2.3595
     2.3616   2.3829   2.4024   2.4060   2.4266   2.4448   2.4540   2.4684
     2.4903   2.5102   2.5183   2.5252   2.5344   2.5630   2.5796   2.6044
     2.6187   2.6270   2.6375   2.6433   2.7070   2.7459   2.7712   2.8223
     2.8424   2.8488   2.8757   2.8981   2.9388   3.2359   3.2797   3.4529
     3.5335   3.8167   3.8838   3.9615   4.0243   4.0482   4.1069   4.4994
     4.6650   4.7861   4.9120   4.9303   4.9692   5.0758   5.4322   6.3305
     6.3798   6.5287   6.6038   6.7424   6.8104   6.8226   6.8818   6.9197
     7.0338   7.0945   7.1544   7.1688   7.3437   7.3503   7.3876   7.4358
     7.5558   7.5841   7.6309   7.6823   7.7291   7.7549   7.8260   7.8692
     7.8945   7.9419   7.9622   8.0107   8.0360   8.0628   8.0851   8.1093
     8.1416   8.1606   8.2067   8.2234   8.2525   8.2832   8.3229   8.3348
     8.3624   8.3850   8.4389   8.4701   8.4852   8.5127   8.5294   8.5368
     8.5486   8.5714   8.5946   8.6066   8.6373   8.6511   8.6826   8.6884
     8.7243   8.7497   8.8049   8.8210   8.8356   8.8712   8.9374

     the Fermi energy is     1.5976 ev

!    total energy              =   -7398.03000944 Ry
     estimated scf accuracy    <       0.00000087 Ry
     smearing contrib. (-TS)   =      -0.01662811 Ry
     internal energy E=F+TS    =   -7398.01338133 Ry

     The total energy is F=E-TS. E is the sum of the following terms:
     one-electron contribution =  -91646.37472905 Ry
     hartree contribution      =   46471.47739814 Ry
     xc contribution           =   -2260.28249370 Ry
     ewald contribution        =   40038.99920478 Ry
     Dispersion Correction     =      -1.83281256 Ry
     electric field correction =       0.00005107 Ry

     total magnetization       =    80.09 Bohr mag/cell
     absolute magnetization    =    81.62 Bohr mag/cell

     convergence has been achieved in  86 iterations

     negative rho (up, down):  9.325E-04 5.509E-04

     Forces acting on atoms (cartesian axes, Ry/au):

     atom    1 type  2   force =    -0.00031629   -0.00081793    0.00008543
     atom    2 type  1   force =    -0.00003172   -0.00042699   -0.00044335
     atom    3 type  1   force =     0.00037406   -0.00123868   -0.00001060
     atom    4 type  1   force =    -0.00017219    0.00012944   -0.00025409
     atom    5 type  1   force =     0.00002453    0.00001276    0.00013664
     atom    6 type  1   force =    -0.00025239    0.00032977   -0.00004489
     atom    7 type  1   force =    -0.00024001    0.00075366    0.00038531
     atom    8 type  1   force =    -0.00038308    0.00002536    0.00017573
     atom    9 type  1   force =     0.00030307    0.00013232   -0.00028815
     atom   10 type  1   force =    -0.00005856    0.00027652   -0.00053251
     atom   11 type  1   force =     0.00023429    0.00020004   -0.00012846
     atom   12 type  1   force =    -0.00005124   -0.00010865   -0.00039707
     atom   13 type  3   force =    -0.00016092    0.00031324   -0.00031182
     atom   14 type  3   force =    -0.00019921    0.00001881    0.00008539
     atom   15 type  3   force =    -0.00020949    0.00087347    0.00030153
     atom   16 type  3   force =     0.00030142    0.00011245    0.00045909
     atom   17 type  4   force =     0.00019470    0.00052535    0.00012399
     atom   18 type  4   force =    -0.00004786   -0.00044231   -0.00036673
     atom   19 type  4   force =     0.00059779    0.00031158   -0.00015579
     atom   20 type  4   force =     0.00030209   -0.00009521    0.00008385
     atom   21 type  4   force =    -0.00026314   -0.00043303    0.00005491
     atom   22 type  4   force =     0.00035735   -0.00008423    0.00010030
     atom   23 type  4   force =     0.00037773    0.00064417    0.00007236
     atom   24 type  4   force =    -0.00027879    0.00028036   -0.00007781
     atom   25 type  4   force =    -0.00001853   -0.00004449   -0.00026698
     atom   26 type  4   force =     0.00003146    0.00068407    0.00071513
     atom   27 type  4   force =     0.00023768    0.00006645   -0.00027943
     atom   28 type  4   force =    -0.00042075   -0.00011284   -0.00005079
     atom   29 type  4   force =     0.00076557    0.00001955    0.00028503
     atom   30 type  4   force =    -0.00011676    0.00016620    0.00008098
     atom   31 type  4   force =     0.00033690    0.00047009    0.00008519
     atom   32 type  4   force =     0.00005294    0.00015887    0.00017309
     atom   33 type  3   force =     0.00059060   -0.00006956   -0.00020498
     atom   34 type  3   force =     0.00051879   -0.00014243   -0.00010622
     atom   35 type  3   force =     0.00005891    0.00008278    0.00052215
     atom   36 type  3   force =    -0.00012160    0.00001513   -0.00024692
     atom   37 type  4   force =    -0.00012729   -0.00007221   -0.00029923
     atom   38 type  4   force =    -0.00033582    0.00021695   -0.00092014
     atom   39 type  4   force =    -0.00026877   -0.00001170    0.00004745
     atom   40 type  4   force =     0.00013519    0.00019330   -0.00009806
     atom   41 type  4   force =     0.00032894   -0.00013686   -0.00013436
     atom   42 type  4   force =    -0.00010928    0.00001249    0.00032095
     atom   43 type  4   force =    -0.00046265   -0.00014255    0.00029672
     atom   44 type  4   force =     0.00020909    0.00013960   -0.00046840
     atom   45 type  4   force =     0.00035094    0.00009453    0.00018609
     atom   46 type  4   force =    -0.00003486   -0.00044613   -0.00050227
     atom   47 type  4   force =    -0.00028192   -0.00018599   -0.00009978
     atom   48 type  4   force =    -0.00012640   -0.00027037   -0.00052443
     atom   49 type  4   force =     0.00075735   -0.00009096   -0.00032068
     atom   50 type  4   force =     0.00001961    0.00087246    0.00036925
     atom   51 type  4   force =    -0.00008925    0.00044049   -0.00002456
     atom   52 type  4   force =    -0.00002196    0.00013698   -0.00036005
     atom   53 type  2   force =     0.00158207   -0.00342956    0.00563772
     atom   54 type  1   force =     0.00518796   -0.00233211    0.00370064
     atom   55 type  1   force =     0.00833664   -0.00249150    0.00518761
     atom   56 type  1   force =    -0.00190507    0.01040606    0.00611324
     atom   57 type  1   force =     0.00002670    0.02336466    0.01462919
     atom   58 type  1   force =     0.00193142   -0.00351748   -0.00180295
     atom   59 type  1   force =     0.00134323   -0.00868136    0.00017686
     atom   60 type  1   force =    -0.00513519   -0.00193336    0.00471583
     atom   61 type  1   force =    -0.00249034   -0.00161889    0.00332558
     atom   62 type  1   force =    -0.00431131    0.00831810    0.00610561
     atom   63 type  1   force =    -0.01106149    0.02620908    0.01860034
     atom   64 type  1   force =    -0.00176916    0.00071787    0.00125375
     atom   65 type  3   force =     0.04609439   -0.11386496   -0.01072195
     atom   66 type  3   force =     0.00007777   -0.00311669    0.00162827
     atom   67 type  3   force =    -0.03909380    0.12696873    0.01493386
     atom   68 type  3   force =     0.06269521   -0.00177009   -0.00325766
     atom   69 type  4   force =     0.01382195   -0.01830828    0.00380869
     atom   70 type  4   force =    -0.00062613    0.00259624   -0.00050189
     atom   71 type  4   force =    -0.00145268    0.00318146   -0.00586141
     atom   72 type  4   force =     0.00406049    0.00184732   -0.00065109
     atom   73 type  4   force =     0.00094601   -0.01146289    0.00291208
     atom   74 type  4   force =    -0.00037984   -0.00090188   -0.00167420
     atom   75 type  4   force =    -0.00100201    0.01404994    0.00645299
     atom   76 type  4   force =     0.00827252    0.00527455    0.00929925
     atom   77 type  4   force =     0.00711257   -0.00261874    0.00162719
     atom   78 type  4   force =     0.04406349   -0.14262470   -0.00519501
     atom   79 type  4   force =     0.00186023    0.00195992    0.00148317
     atom   80 type  4   force =    -0.00010103    0.00226473   -0.00156317
     atom   81 type  4   force =     0.06757087    0.00076713   -0.00584091
     atom   82 type  4   force =     0.00009708    0.00145278   -0.00085720
     atom   83 type  4   force =    -0.03919118    0.13479897    0.00273167
     atom   84 type  4   force =    -0.00290087   -0.01102912   -0.00406288
     atom   85 type  3   force =     0.04000133   -0.12002055   -0.01836062
     atom   86 type  3   force =    -0.06289866   -0.00279325    0.00869973
     atom   87 type  3   force =    -0.04476920    0.12552481    0.01722107
     atom   88 type  3   force =    -0.00167391    0.00004324    0.00259620
     atom   89 type  4   force =     0.00904554   -0.01539002    0.00408623
     atom   90 type  4   force =    -0.00487137    0.00163801    0.00057738
     atom   91 type  4   force =    -0.00909836    0.00793463   -0.00640696
     atom   92 type  4   force =     0.00001938    0.00020168   -0.00063011
     atom   93 type  4   force =    -0.00177423   -0.00837206    0.00748279
     atom   94 type  4   force =    -0.00468598    0.00153523    0.00101302
     atom   95 type  4   force =    -0.00566412    0.01285507    0.00603104
     atom   96 type  4   force =     0.00408719    0.00522706    0.00971102
     atom   97 type  4   force =    -0.00004561    0.00035509    0.00072514
     atom   98 type  4   force =     0.04031118   -0.14137781   -0.00487810
     atom   99 type  4   force =    -0.06660105    0.00002618    0.00637492
     atom  100 type  4   force =    -0.00171616    0.00345115   -0.00275433
     atom  101 type  4   force =    -0.00024349    0.00095303   -0.00053744
     atom  102 type  4   force =    -0.00605940    0.00454905   -0.00141399
     atom  103 type  4   force =    -0.04022943    0.13331732    0.00436283
     atom  104 type  4   force =    -0.00701791   -0.00990795   -0.00514850
     atom  105 type  2   force =     0.00413245   -0.00654916   -0.01840512
     atom  106 type  1   force =     0.02831174    0.01422535    0.01135022
     atom  107 type  1   force =     0.00863589   -0.00611357   -0.01399575
     atom  108 type  1   force =    -0.02843090    0.02182224    0.01841097
     atom  109 type  1   force =     0.00504766    0.01608778    0.00915418
     atom  110 type  1   force =    -0.00253967   -0.00879660   -0.00708364
     atom  111 type  1   force =    -0.00087176   -0.00945346   -0.01161438
     atom  112 type  1   force =     0.02928976    0.01762263    0.01108862
     atom  113 type  1   force =    -0.00059988   -0.00504270   -0.01383462
     atom  114 type  1   force =    -0.02973102    0.02081028    0.01821371
     atom  115 type  1   force =    -0.00717425    0.01863143    0.01193874
     atom  116 type  1   force =    -0.00553739   -0.00447447   -0.00330396
     atom  117 type  3   force =     0.01427198   -0.17391887   -0.10878246
     atom  118 type  3   force =     0.00514248   -0.00851361   -0.01261622
     atom  119 type  3   force =    -0.04465882    0.12496349   -0.00180511
     atom  120 type  3   force =     0.09507880   -0.04106204   -0.07970499
     atom  121 type  4   force =     0.00618306   -0.01704831    0.03715346
     atom  122 type  4   force =    -0.00344266    0.00362953    0.00452986
     atom  123 type  4   force =    -0.00089427    0.00250941   -0.00282523
     atom  124 type  4   force =     0.00847132    0.00220594    0.02691599
     atom  125 type  4   force =     0.00993047   -0.01681904    0.01620628
     atom  126 type  4   force =    -0.00748499    0.00096712   -0.00310834
     atom  127 type  4   force =     0.00396844    0.00963114    0.00039859
     atom  128 type  4   force =    -0.00065887   -0.00099609    0.03042324
     atom  129 type  4   force =    -0.00773087    0.02539328    0.00122224
     atom  130 type  4   force =     0.04335566   -0.14592053   -0.00192277
     atom  131 type  4   force =    -0.01728158   -0.00041256    0.00287674
     atom  132 type  4   force =     0.00344533    0.00263574    0.00200251
     atom  133 type  4   force =     0.06965401    0.00370052   -0.00190879
     atom  134 type  4   force =     0.00096608    0.00369306    0.00273420
     atom  135 type  4   force =    -0.02748578    0.17209191    0.00610224
     atom  136 type  4   force =     0.01944389   -0.00863003    0.00404044
     atom  137 type  3   force =     0.00909700   -0.16689003   -0.09423888
     atom  138 type  3   force =    -0.06466502   -0.00210902   -0.00489410
     atom  139 type  3   force =    -0.04871902    0.11826778    0.00159828
     atom  140 type  3   force =     0.03144790   -0.04325341   -0.07367930
     atom  141 type  4   force =     0.00467568   -0.01329488    0.03207997
     atom  142 type  4   force =    -0.00538622   -0.00037812    0.00433765
     atom  143 type  4   force =    -0.00822086    0.00804967   -0.00348232
     atom  144 type  4   force =     0.00382803    0.00139762    0.02752115
     atom  145 type  4   force =     0.00695760   -0.01292264    0.03257553
     atom  146 type  4   force =    -0.00873656   -0.00179819   -0.00304665
     atom  147 type  4   force =     0.00029008    0.00984680    0.00259730
     atom  148 type  4   force =    -0.00795391    0.00131519    0.02932803
     atom  149 type  4   force =    -0.01322775    0.02928386    0.00053822
     atom  150 type  4   force =     0.03980314   -0.13831157   -0.00139526
     atom  151 type  4   force =    -0.08602085   -0.00174071    0.00917545
     atom  152 type  4   force =     0.00126060    0.00387956    0.00143573
     atom  153 type  4   force =    -0.00354663    0.00083055    0.00298601
     atom  154 type  4   force =    -0.00585902    0.00606040    0.00131462
     atom  155 type  4   force =    -0.02790329    0.16631778    0.00487704
     atom  156 type  4   force =     0.01045095   -0.00974490   -0.00135138
     atom  157 type  4   force =    -0.00800352    0.00585372   -0.00241157
     atom  158 type  5   force =     0.00758884   -0.00509120    0.00197110

     Total force =     0.671499     Total SCF correction =     0.004073
 
     init_run     :      8.16s CPU      8.85s WALL (       1 calls)
     electrons    :   1084.49s CPU   1129.99s WALL (       1 calls)
     forces       :      3.79s CPU      4.19s WALL (       1 calls)
     force_london :      0.09s CPU      0.09s WALL (       1 calls)

     Called by init_run:
     wfcinit      :      4.76s CPU      4.93s WALL (       1 calls)
     potinit      :      0.63s CPU      0.83s WALL (       1 calls)
     hinit0       :      1.73s CPU      1.85s WALL (       1 calls)

     Called by electrons:
     c_bands      :    848.63s CPU    873.32s WALL (      86 calls)
     sum_band     :    151.24s CPU    162.57s WALL (      86 calls)
     v_of_rho     :     15.68s CPU     16.61s WALL (      87 calls)
     newd         :     46.84s CPU     55.46s WALL (      87 calls)
     mix_rho      :     21.30s CPU     21.44s WALL (      86 calls)
     energy_londo :      0.08s CPU      0.08s WALL (       1 calls)

     Called by c_bands:
     init_us_2    :      1.83s CPU      1.89s WALL (     348 calls)
     init_us_2:cp :      1.82s CPU      1.89s WALL (     348 calls)
     regterg      :    830.88s CPU    855.37s WALL (     173 calls)

     Called by *egterg:
     rdiaghg      :    215.00s CPU    227.25s WALL (     725 calls)
     h_psi        :    311.72s CPU    316.99s WALL (     727 calls)
     s_psi        :     52.08s CPU     52.13s WALL (     727 calls)
     g_psi        :      0.38s CPU      0.38s WALL (     552 calls)

     Called by h_psi:
     h_psi:calbec :     87.96s CPU     92.05s WALL (     727 calls)
     vloc_psi     :    170.24s CPU    170.85s WALL (     727 calls)
     add_vuspsi   :     52.99s CPU     53.55s WALL (     727 calls)

     General routines
     calbec       :    130.28s CPU    136.43s WALL (     907 calls)
     fft          :     31.58s CPU     32.95s WALL (    1579 calls)
     ffts         :     13.35s CPU     13.38s WALL (   10715 calls)
     fftw         :    199.02s CPU    199.66s WALL (  288480 calls)
     interpolate  :      1.41s CPU      1.50s WALL (     174 calls)
 
     Parallel routines
 
     PWSCF        :  18m18.45s CPU  19m 5.37s WALL

 
   This run was terminated on:  22:11: 4  19Nov2025            

=------------------------------------------------------------------------------=
   JOB DONE.
=------------------------------------------------------------------------------=
