
     Program PWSCF v.7.2 starts on 19Nov2025 at 21:13:22 

     This program is part of the open-source Quantum ESPRESSO suite
     for quantum simulation of materials; please cite
         "P. Giannozzi et al., J. Phys.:Condens. Matter 21 395502 (2009);
         "P. Giannozzi et al., J. Phys.:Condens. Matter 29 465901 (2017);
         "P. Giannozzi et al., J. Chem. Phys. 152 154105 (2020);
          URL http://www.quantum-espresso.org", 
     in publications or presentations arising from this work. More details at
     http://www.quantum-espresso.org/quote

     Parallel version (MPI), running on    64 processors

     MPI processes distributed on     4 nodes
     384898 MiB available memory on the printing compute node when the environment starts
 
     Reading input from PWINPUT_atm158_xp

     Current dimensions of program PWSCF are:
     Max number of different atomic species (ntypx) = 10
     Max number of k-points (npk) =  40000
     Max angular momentum in pseudopotentials (lmaxx) =  4
     Presently no symmetry can be used with electric field

     file Ni.pbe-n-rrkjus_psl.1.0.0.UPF: wavefunction(s)  3D renormalized
     file Mn.pbe-spn-rrkjus_psl.0.3.1.UPF: wavefunction(s)  3D renormalized
     file O.pbe-rrkjus.UPF: wavefunction(s)  2S renormalized
     file H.pbe-rrkjus.UPF: wavefunction(s)  1S renormalized

     gamma-point specific algorithms are used
 
     R & G space division:  proc/nbgrp/npool/nimage =      64
     Subspace diagonalization in iterative solution of the eigenvalue problem:
     one sub-group per band group will be used
     custom distributed-memory algorithm (size of sub-group:  6*  6 procs)

 
     Parallelization info
     --------------------
     sticks:   dense  smooth     PW     G-vecs:    dense   smooth      PW
     Min         208      82     20                59912    15118    1876
     Max         210      84     22                59974    15196    1926
     Sum       13399    5355   1345              3836275   970529  121367
 
     Using Slab Decomposition
 


     bravais-lattice index     =            0
     lattice parameter (alat)  =      17.7004  a.u.
     unit-cell volume          =   20319.7251 (a.u.)^3
     number of atoms/cell      =          158
     number of atomic types    =            5
     number of electrons       =      1078.00
     number of Kohn-Sham states=          647
     kinetic-energy cutoff     =      50.0000  Ry
     charge density cutoff     =     500.0000  Ry
     scf convergence threshold =      1.0E-06
     mixing beta               =       0.1000
     number of iterations used =            8  local-TF  mixing
     Exchange-correlation=  SLA  PW   PBE  PBE
                           (   1   4   3   4   0   0   0)

     celldm(1)=  17.700384  celldm(2)=   0.000000  celldm(3)=   0.000000
     celldm(4)=   0.000000  celldm(5)=   0.000000  celldm(6)=   0.000000

     crystal axes: (cart. coord. in units of alat)
               a(1) = (   1.000000   0.000000   0.000000 )  
               a(2) = (   0.000000   1.075730   0.000000 )  
               a(3) = (   0.000000   0.000000   3.406172 )  

     reciprocal axes: (cart. coord. in units 2 pi/alat)
               b(1) = (  1.000000  0.000000  0.000000 )  
               b(2) = (  0.000000  0.929602  0.000000 )  
               b(3) = (  0.000000  0.000000  0.293585 )  


     PseudoPot. # 1 for Ni read from file:
     ~/PSEUDO/Ni.pbe-n-rrkjus_psl.1.0.0.UPF
     MD5 check sum: Not computed, couldn't open file
     Pseudo is Ultrasoft + core correction, Zval = 10.0
     Generated using "atomic" code by A. Dal Corso  v.5.1.2
     Using radial grid of 1195 points,  6 beta functions with: 
                l(1) =   0
                l(2) =   0
                l(3) =   1
                l(4) =   1
                l(5) =   2
                l(6) =   2
     Q(r) pseudized with 0 coefficients 


     PseudoPot. # 2 for Mn read from file:
     ~/PSEUDO/Mn.pbe-spn-rrkjus_psl.0.3.1.UPF
     MD5 check sum: Not computed, couldn't open file
     Pseudo is Ultrasoft + core correction, Zval = 15.0
     Generated using &quot;atomic&quot; code by A. Dal Corso  v.6.2.2
     Using radial grid of 1187 points,  6 beta functions with: 
                l(1) =   0
                l(2) =   0
                l(3) =   1
                l(4) =   1
                l(5) =   2
                l(6) =   2
     Q(r) pseudized with 0 coefficients 


     PseudoPot. # 3 for P  read from file:
     ~/PSEUDO/P.pbe-n-rrkjus_psl.1.0.0.UPF
     MD5 check sum: Not computed, couldn't open file
     Pseudo is Ultrasoft + core correction, Zval =  5.0
     Generated using "atomic" code by A. Dal Corso  v.5.1
     Using radial grid of 1147 points,  6 beta functions with: 
                l(1) =   0
                l(2) =   0
                l(3) =   1
                l(4) =   1
                l(5) =   2
                l(6) =   2
     Q(r) pseudized with 0 coefficients 


     PseudoPot. # 4 for O  read from file:
     ~/PSEUDO/O.pbe-rrkjus.UPF
     MD5 check sum: Not computed, couldn't open file
     Pseudo is Ultrasoft, Zval =  6.0
     Generated by new atomic code, or converted to UPF format
     Using radial grid of 1269 points,  4 beta functions with: 
                l(1) =   0
                l(2) =   0
                l(3) =   1
                l(4) =   1
     Q(r) pseudized with 0 coefficients 


     PseudoPot. # 5 for H  read from file:
     ~/PSEUDO/H.pbe-rrkjus.UPF
     MD5 check sum: Not computed, couldn't open file
     Pseudo is Ultrasoft, Zval =  1.0
     Generated by new atomic code, or converted to UPF format
     Using radial grid of 1061 points,  2 beta functions with: 
                l(1) =   0
                l(2) =   0
     Q(r) pseudized with 0 coefficients 


     atomic species   valence    mass     pseudopotential
     Ni               10.00    58.69300     Ni( 1.00)
     Mn               15.00    54.93800     Mn( 1.00)
     P                 5.00    30.97300     P ( 1.00)
     O                 6.00    15.99900     O ( 1.00)
     H                 1.00     1.00790     H ( 1.00)

     Starting magnetic structure 
     atomic species   magnetization
     Ni              1.000
     Mn              1.000
     P               1.000
     O               1.000
     H               0.000

     No symmetry found



   Cartesian axes

     site n.     atom                  positions (alat units)
         1        Mn     tau(   1) = (   0.2493609   0.8365715   1.6923971  )
         2        Ni     tau(   2) = (   0.4971079   0.7736156   1.3698727  )
         3        Ni     tau(   3) = (   0.0112576   0.3072794   1.7087583  )
         4        Ni     tau(   4) = (   0.2596239   0.2390995   1.3686499  )
         5        Ni     tau(   5) = (   0.9975634   1.0800649   1.5354411  )
         6        Ni     tau(   6) = (   0.2537367   0.5354741   1.5344197  )
         7        Ni     tau(   7) = (   0.7537322   0.8383734   1.6753574  )
         8        Ni     tau(   8) = (   0.9914315   0.7746670   1.3720254  )
         9        Ni     tau(   9) = (   0.5035551   0.2960273   1.6759017  )
        10        Ni     tau(  10) = (   0.7601897   0.2370242   1.3663370  )
        11        Ni     tau(  11) = (   0.4997103   1.0755509   1.5321392  )
        12        Ni     tau(  12) = (   0.7557358   0.5365151   1.5309164  )
        13        P      tau(  13) = (   0.2102583   0.9729017   1.3795895  )
        14        P      tau(  14) = (   0.4681633   0.6439249   1.6893391  )
        15        P      tau(  15) = (   0.2886425   0.1100006   1.6952171  )
        16        P      tau(  16) = (   0.0425762   0.4312003   1.3742181  )
        17        O      tau(  17) = (   0.1340839   0.9024468   1.5167299  )
        18        O      tau(  18) = (   0.3903743   0.7050921   1.5459491  )
        19        O      tau(  19) = (   0.3645582   0.1700754   1.5496001  )
        20        O      tau(  20) = (   0.1194984   0.3599186   1.5100144  )
        21        O      tau(  21) = (   0.1474941   0.8824110   1.2564130  )
        22        O      tau(  22) = (   0.4040727   0.7408321   1.8053395  )
        23        O      tau(  23) = (   0.3535892   0.2030579   1.8119064  )
        24        O      tau(  24) = (   0.1029989   0.3444961   1.2466039  )
        25        O      tau(  25) = (   0.1016325   0.5871265   1.3783445  )
        26        O      tau(  26) = (   0.3444464   1.0271569   1.6949549  )
        27        O      tau(  27) = (   0.3797210   0.4257846   1.3839545  )
        28        O      tau(  28) = (   0.1239987   0.1120195   1.6852008  )
        29        O      tau(  29) = (   0.1277082   0.6548798   1.6784119  )
        30        O      tau(  30) = (   0.4126374   0.4868061   1.6917006  )
        31        O      tau(  31) = (   0.1512622   0.0516880   1.3795899  )
        32        O      tau(  32) = (   0.3740488   0.9633360   1.3872959  )
        33        P      tau(  33) = (   0.7102783   0.9720020   1.3712879  )
        34        P      tau(  34) = (   0.9622035   0.6496791   1.6938416  )
        35        P      tau(  35) = (   0.7879411   0.1129842   1.6874765  )
        36        P      tau(  36) = (   0.5437247   0.4318676   1.3705585  )
        37        O      tau(  37) = (   0.6320214   0.9007554   1.5076114  )
        38        O      tau(  38) = (   0.8856843   0.7114266   1.5472319  )
        39        O      tau(  39) = (   0.8642929   0.1717044   1.5437885  )
        40        O      tau(  40) = (   0.6216900   0.3608055   1.5064456  )
        41        O      tau(  41) = (   0.6495853   0.8828646   1.2457269  )
        42        O      tau(  42) = (   0.9055096   0.7504361   1.8079161  )
        43        O      tau(  43) = (   0.8450882   0.2103025   1.8047962  )
        44        O      tau(  44) = (   0.6043176   0.3439644   1.2442897  )
        45        O      tau(  45) = (   0.6044957   0.5867090   1.3746570  )
        46        O      tau(  46) = (   0.8440334   1.0304596   1.6909963  )
        47        O      tau(  47) = (   0.8783670   0.4261403   1.3828404  )
        48        O      tau(  48) = (   0.6221236   0.1136819   1.6769158  )
        49        O      tau(  49) = (   0.6324242   0.6520846   1.6793976  )
        50        O      tau(  50) = (   0.9031210   0.4942715   1.6888231  )
        51        O      tau(  51) = (   0.6491651   0.0505825   1.3737527  )
        52        O      tau(  52) = (   0.8740350   0.9654835   1.3844354  )
        53        Mn     tau(  53) = (   0.2404744   0.8246335   1.0701417  )
        54        Ni     tau(  54) = (   0.4968126   0.7601755   0.7454373  )
        55        Ni     tau(  55) = (   0.0066150   0.2811828   1.0628866  )
        56        Ni     tau(  56) = (   0.2585722   0.2230943   0.7421070  )
        57        Ni     tau(  57) = (   0.9987350   1.0571496   0.9014992  )
        58        Ni     tau(  58) = (   0.2517397   0.5205596   0.9040596  )
        59        Ni     tau(  59) = (   0.7451645   0.8212628   1.0648168  )
        60        Ni     tau(  60) = (   0.9939181   0.7613889   0.7462324  )
        61        Ni     tau(  61) = (   0.5111533   0.2799173   1.0618053  )
        62        Ni     tau(  62) = (   0.7606326   0.2194352   0.7418547  )
        63        Ni     tau(  63) = (   0.5024065   1.0563218   0.8999416  )
        64        Ni     tau(  64) = (   0.7529977   0.5192985   0.9024691  )
        65        P      tau(  65) = (   0.2092944   0.9606182   0.7524883  )
        66        P      tau(  66) = (   0.4655727   0.6234620   1.0595283  )
        67        P      tau(  67) = (   0.2910699   0.0902448   1.0573821  )
        68        P      tau(  68) = (   0.0396216   0.4163480   0.7471080  )
        69        O      tau(  69) = (   0.1294378   0.8888345   0.8859300  )
        70        O      tau(  70) = (   0.3874505   0.6929859   0.9232915  )
        71        O      tau(  71) = (   0.3702540   0.1589885   0.9209891  )
        72        O      tau(  72) = (   0.1184398   0.3458043   0.8831565  )
        73        O      tau(  73) = (   0.1451572   0.8725966   0.6282341  )
        74        O      tau(  74) = (   0.4048762   0.7120670   1.1852426  )
        75        O      tau(  75) = (   0.3523506   0.1775664   1.1834175  )
        76        O      tau(  76) = (   0.1017610   0.3285569   0.6213347  )
        77        O      tau(  77) = (   0.0975396   0.5724373   0.7511996  )
        78        O      tau(  78) = (   0.3483552   1.0190030   1.0599597  )
        79        O      tau(  79) = (   0.3784305   0.4100203   0.7560991  )
        80        O      tau(  80) = (   0.1268237   0.0943029   1.0477175  )
        81        O      tau(  81) = (   0.1212267   0.6299255   1.0507023  )
        82        O      tau(  82) = (   0.4053315   0.4684472   1.0569297  )
        83        O      tau(  83) = (   0.1536621   0.0322003   0.7496532  )
        84        O      tau(  84) = (   0.3732349   0.9506802   0.7613277  )
        85        P      tau(  85) = (   0.7119823   0.9571059   0.7496908  )
        86        P      tau(  86) = (   0.9615208   0.6238477   1.0606987  )
        87        P      tau(  87) = (   0.7927710   0.0845145   1.0577754  )
        88        P      tau(  88) = (   0.5426404   0.4144760   0.7459181  )
        89        O      tau(  89) = (   0.6326879   0.8866267   0.8856678  )
        90        O      tau(  90) = (   0.8842163   0.6958291   0.9244764  )
        91        O      tau(  91) = (   0.8716178   0.1552836   0.9216415  )
        92        O      tau(  92) = (   0.6212010   0.3433751   0.8818834  )
        93        O      tau(  93) = (   0.6507714   0.8687427   0.6238197  )
        94        O      tau(  94) = (   0.9014054   0.7139543   1.1859242  )
        95        O      tau(  95) = (   0.8548963   0.1722994   1.1834447  )
        96        O      tau(  96) = (   0.6044469   0.3253792   0.6209553  )
        97        O      tau(  97) = (   0.6024424   0.5698225   0.7490903  )
        98        O      tau(  98) = (   0.8498940   1.0129567   1.0594762  )
        99        O      tau(  99) = (   0.8798395   0.4080910   0.7564148  )
       100        O      tau( 100) = (   0.6286921   0.0909721   1.0472573  )
       101        O      tau( 101) = (   0.6294973   0.6302838   1.0497366  )
       102        O      tau( 102) = (   0.9024339   0.4685397   1.0573501  )
       103        O      tau( 103) = (   0.6547812   0.0286072   0.7473283  )
       104        O      tau( 104) = (   0.8760507   0.9507690   0.7605412  )
       105        Mn     tau( 105) = (   0.2404744   0.8121420   0.4502541  )
       106        Ni     tau( 106) = (   0.4968126   0.7476840   0.1255496  )
       107        Ni     tau( 107) = (   0.0066150   0.2686914   0.4429989  )
       108        Ni     tau( 108) = (   0.2585722   0.2106028   0.1222194  )
       109        Ni     tau( 109) = (   0.9987350   1.0446581   0.2816116  )
       110        Ni     tau( 110) = (   0.2517397   0.5080681   0.2841720  )
       111        Ni     tau( 111) = (   0.7451645   0.8087713   0.4449291  )
       112        Ni     tau( 112) = (   0.9939181   0.7488974   0.1263448  )
       113        Ni     tau( 113) = (   0.5111533   0.2674258   0.4419177  )
       114        Ni     tau( 114) = (   0.7606326   0.2069438   0.1219670  )
       115        Ni     tau( 115) = (   0.5024065   1.0438304   0.2800540  )
       116        Ni     tau( 116) = (   0.7529977   0.5068070   0.2825815  )
       117        P      tau( 117) = (   0.2092944   0.9481267   0.1326007  )
       118        P      tau( 118) = (   0.4655727   0.6109705   0.4396407  )
       119        P      tau( 119) = (   0.2910699   0.0777534   0.4374945  )
       120        P      tau( 120) = (   0.0396216   0.4038566   0.1272204  )
       121        O      tau( 121) = (   0.1294378   0.8763430   0.2660424  )
       122        O      tau( 122) = (   0.3874505   0.6804944   0.3034039  )
       123        O      tau( 123) = (   0.3702540   0.1464970   0.3011014  )
       124        O      tau( 124) = (   0.1184398   0.3333129   0.2632689  )
       125        O      tau( 125) = (   0.1451572   0.8601051   0.0083464  )
       126        O      tau( 126) = (   0.4048762   0.6995756   0.5653550  )
       127        O      tau( 127) = (   0.3523506   0.1650749   0.5635298  )
       128        O      tau( 128) = (   0.1017610   0.3160655   0.0014470  )
       129        O      tau( 129) = (   0.0975396   0.5599458   0.1313120  )
       130        O      tau( 130) = (   0.3483552   1.0065115   0.4400720  )
       131        O      tau( 131) = (   0.3784305   0.3975288   0.1362114  )
       132        O      tau( 132) = (   0.1268237   0.0818115   0.4278298  )
       133        O      tau( 133) = (   0.1212267   0.6174340   0.4308146  )
       134        O      tau( 134) = (   0.4053315   0.4559557   0.4370420  )
       135        O      tau( 135) = (   0.1536621   0.0197088   0.1297656  )
       136        O      tau( 136) = (   0.3732349   0.9381887   0.1414400  )
       137        P      tau( 137) = (   0.7119823   0.9446144   0.1298032  )
       138        P      tau( 138) = (   0.9615208   0.6113562   0.4408111  )
       139        P      tau( 139) = (   0.7927710   0.0720230   0.4378878  )
       140        P      tau( 140) = (   0.5426404   0.4019845   0.1260304  )
       141        O      tau( 141) = (   0.6326879   0.8741353   0.2657802  )
       142        O      tau( 142) = (   0.8842163   0.6833376   0.3045887  )
       143        O      tau( 143) = (   0.8716178   0.1427921   0.3017538  )
       144        O      tau( 144) = (   0.6212010   0.3308836   0.2619957  )
       145        O      tau( 145) = (   0.6507714   0.8562512   0.0039320  )
       146        O      tau( 146) = (   0.9014054   0.7014628   0.5660366  )
       147        O      tau( 147) = (   0.8548963   0.1598079   0.5635571  )
       148        O      tau( 148) = (   0.6044469   0.3128877   0.0010676  )
       149        O      tau( 149) = (   0.6024424   0.5573310   0.1292027  )
       150        O      tau( 150) = (   0.8498940   1.0004653   0.4395886  )
       151        O      tau( 151) = (   0.8798395   0.3955995   0.1365272  )
       152        O      tau( 152) = (   0.6286921   0.0784807   0.4273696  )
       153        O      tau( 153) = (   0.6294973   0.6177923   0.4298489  )
       154        O      tau( 154) = (   0.9024339   0.4560482   0.4374624  )
       155        O      tau( 155) = (   0.6547812   0.0161158   0.1274406  )
       156        O      tau( 156) = (   0.8760507   0.9382775   0.1406535  )
       157        O      tau( 157) = (   0.1248109   0.3901961   1.8430336  )
       158        H      tau( 158) = (   0.2092786   0.3300793   1.8677327  )

     -------------------------------------------------
     Parameters for Dispersion (Grimme-D2) Correction:
     -------------------------------------------------
       atom      VdW radius       C_6     

        Ni         2.952        374.666
        Mn         2.952        374.666
        P          3.222        271.980
        O          2.536         24.284
        H          1.892          4.857

     number of k points=     1  Gaussian smearing, width (Ry)=  0.0100
                       cart. coord. in units 2pi/alat
        k(    1) = (   0.0000000   0.0000000   0.0000000), wk =   1.0000000

     Dense  grid:  1918138 G-vectors     FFT dimensions: ( 125, 135, 432)

     Smooth grid:   485265 G-vectors     FFT dimensions: (  80,  90, 288)

     Estimated max dynamical RAM per process >     320.12 MB

     Estimated total dynamical RAM >      20.01 GB
     Generating pointlists ...
     new r_m :   0.0802 (alat units)  1.4195 (a.u.) for type    1
     new r_m :   0.0869 (alat units)  1.5388 (a.u.) for type    2
     new r_m :   0.0650 (alat units)  1.1499 (a.u.) for type    3
     new r_m :   0.0440 (alat units)  0.7782 (a.u.) for type    4
     new r_m :   0.0440 (alat units)  0.7782 (a.u.) for type    5

     Initial potential from superposition of free atoms

     starting charge    1077.8900, renormalised to    1078.0000

     negative rho (up, down):  1.233E-03 4.564E-04
 
     Adding external electric field

     Computed dipole along edir(3) : 
        Dipole                1.6235 Ry au,          4.1266 Debye
        Dipole field          0.0010 Ry au, 
 
        Potential amp.       -0.1090 Ry
        Total length         54.2615 bohr
 
 
     Adding external electric field

     Computed dipole along edir(3) : 
        Dipole                1.6235 Ry au,          4.1266 Debye
        Dipole field          0.0010 Ry au, 
 
        Potential amp.       -0.1090 Ry
        Total length         54.2615 bohr
 
     Starting wfcs are  812 randomized atomic wfcs

     total cpu time spent up to now is       13.5 secs

     Self-consistent Calculation

     iteration #  1     ecut=    50.00 Ry     beta= 0.10
     Davidson diagonalization with overlap
     ethr =  1.00E-02,  avg # of iterations =  6.0

     negative rho (up, down):  3.428E-01 1.472E-06
 
     Adding external electric field

     Computed dipole along edir(3) : 
        Dipole               -3.5736 Ry au,         -9.0831 Debye
        Dipole field         -0.0022 Ry au, 
 
        Potential amp.        0.2398 Ry
        Total length         54.2615 bohr
 
 
     Adding external electric field

     Computed dipole along edir(3) : 
        Dipole               -3.5736 Ry au,         -9.0831 Debye
        Dipole field         -0.0022 Ry au, 
 
        Potential amp.        0.2398 Ry
        Total length         54.2615 bohr
 

     total cpu time spent up to now is       49.4 secs

     total energy              =   -7178.36119589 Ry
     estimated scf accuracy    <     739.50324313 Ry

     total magnetization       =   216.00 Bohr mag/cell
     absolute magnetization    =   297.46 Bohr mag/cell

     iteration #  2     ecut=    50.00 Ry     beta= 0.10
     Davidson diagonalization with overlap
     ethr =  1.00E-02,  avg # of iterations =  2.0

     negative rho (up, down):  3.226E-01 7.775E-07
 
     Adding external electric field

     Computed dipole along edir(3) : 
        Dipole               -2.4442 Ry au,         -6.2124 Debye
        Dipole field         -0.0015 Ry au, 
 
        Potential amp.        0.1640 Ry
        Total length         54.2615 bohr
 
 
     Adding external electric field

     Computed dipole along edir(3) : 
        Dipole               -2.4442 Ry au,         -6.2124 Debye
        Dipole field         -0.0015 Ry au, 
 
        Potential amp.        0.1640 Ry
        Total length         54.2615 bohr
 

     total cpu time spent up to now is       72.2 secs

     total energy              =   -7262.47578455 Ry
     estimated scf accuracy    <     199.39068947 Ry

     total magnetization       =   149.06 Bohr mag/cell
     absolute magnetization    =   198.95 Bohr mag/cell

     iteration #  3     ecut=    50.00 Ry     beta= 0.10
     Davidson diagonalization with overlap
     ethr =  1.00E-02,  avg # of iterations =  1.5

     negative rho (up, down):  2.820E-01 6.173E-07
 
     Adding external electric field

     Computed dipole along edir(3) : 
        Dipole               -2.0346 Ry au,         -5.1715 Debye
        Dipole field         -0.0013 Ry au, 
 
        Potential amp.        0.1366 Ry
        Total length         54.2615 bohr
 
 
     Adding external electric field

     Computed dipole along edir(3) : 
        Dipole               -2.0346 Ry au,         -5.1715 Debye
        Dipole field         -0.0013 Ry au, 
 
        Potential amp.        0.1366 Ry
        Total length         54.2615 bohr
 

     total cpu time spent up to now is       91.0 secs

     total energy              =   -7294.45516087 Ry
     estimated scf accuracy    <      98.82153129 Ry

     total magnetization       =   125.19 Bohr mag/cell
     absolute magnetization    =   178.90 Bohr mag/cell

     iteration #  4     ecut=    50.00 Ry     beta= 0.10
     Davidson diagonalization with overlap
     ethr =  9.17E-03,  avg # of iterations =  1.5

     negative rho (up, down):  2.131E-01 2.357E-07
 
     Adding external electric field

     Computed dipole along edir(3) : 
        Dipole               -2.1025 Ry au,         -5.3439 Debye
        Dipole field         -0.0013 Ry au, 
 
        Potential amp.        0.1411 Ry
        Total length         54.2615 bohr
 
 
     Adding external electric field

     Computed dipole along edir(3) : 
        Dipole               -2.1025 Ry au,         -5.3439 Debye
        Dipole field         -0.0013 Ry au, 
 
        Potential amp.        0.1411 Ry
        Total length         54.2615 bohr
 

     total cpu time spent up to now is      109.6 secs

     total energy              =   -7326.28825313 Ry
     estimated scf accuracy    <      77.76537278 Ry

     total magnetization       =   109.23 Bohr mag/cell
     absolute magnetization    =   164.09 Bohr mag/cell

     iteration #  5     ecut=    50.00 Ry     beta= 0.10
     Davidson diagonalization with overlap
     ethr =  7.21E-03,  avg # of iterations =  1.5

     negative rho (up, down):  1.232E-02 7.680E-08
 
     Adding external electric field

     Computed dipole along edir(3) : 
        Dipole               -1.6537 Ry au,         -4.2032 Debye
        Dipole field         -0.0010 Ry au, 
 
        Potential amp.        0.1110 Ry
        Total length         54.2615 bohr
 
 
     Adding external electric field

     Computed dipole along edir(3) : 
        Dipole               -1.6537 Ry au,         -4.2032 Debye
        Dipole field         -0.0010 Ry au, 
 
        Potential amp.        0.1110 Ry
        Total length         54.2615 bohr
 

     total cpu time spent up to now is      127.1 secs

     total energy              =   -7384.63768997 Ry
     estimated scf accuracy    <      62.35398373 Ry

     total magnetization       =    88.05 Bohr mag/cell
     absolute magnetization    =   146.17 Bohr mag/cell

     iteration #  6     ecut=    50.00 Ry     beta= 0.10
     Davidson diagonalization with overlap
     ethr =  5.78E-03,  avg # of iterations =  1.5

     negative rho (up, down):  1.955E-04 2.193E-04
 
     Adding external electric field

     Computed dipole along edir(3) : 
        Dipole               -1.2470 Ry au,         -3.1696 Debye
        Dipole field         -0.0008 Ry au, 
 
        Potential amp.        0.0837 Ry
        Total length         54.2615 bohr
 
 
     Adding external electric field

     Computed dipole along edir(3) : 
        Dipole               -1.2470 Ry au,         -3.1696 Debye
        Dipole field         -0.0008 Ry au, 
 
        Potential amp.        0.0837 Ry
        Total length         54.2615 bohr
 

     total cpu time spent up to now is      140.4 secs

     total energy              =   -7395.30089000 Ry
     estimated scf accuracy    <      12.86424784 Ry

     total magnetization       =    82.00 Bohr mag/cell
     absolute magnetization    =   117.05 Bohr mag/cell

     iteration #  7     ecut=    50.00 Ry     beta= 0.10
     Davidson diagonalization with overlap
     ethr =  1.19E-03,  avg # of iterations =  5.0

     negative rho (up, down):  1.829E-04 2.108E-04
 
     Adding external electric field

     Computed dipole along edir(3) : 
        Dipole               -1.2307 Ry au,         -3.1280 Debye
        Dipole field         -0.0008 Ry au, 
 
        Potential amp.        0.0826 Ry
        Total length         54.2615 bohr
 
 
     Adding external electric field

     Computed dipole along edir(3) : 
        Dipole               -1.2307 Ry au,         -3.1280 Debye
        Dipole field         -0.0008 Ry au, 
 
        Potential amp.        0.0826 Ry
        Total length         54.2615 bohr
 

     total cpu time spent up to now is      160.3 secs

     total energy              =   -7397.64105256 Ry
     estimated scf accuracy    <      13.86185971 Ry

     total magnetization       =    70.74 Bohr mag/cell
     absolute magnetization    =    88.31 Bohr mag/cell

     iteration #  8     ecut=    50.00 Ry     beta= 0.10
     Davidson diagonalization with overlap
     ethr =  1.19E-03,  avg # of iterations =  1.0

     negative rho (up, down):  1.260E-04 1.573E-04
 
     Adding external electric field

     Computed dipole along edir(3) : 
        Dipole               -1.1069 Ry au,         -2.8134 Debye
        Dipole field         -0.0007 Ry au, 
 
        Potential amp.        0.0743 Ry
        Total length         54.2615 bohr
 
 
     Adding external electric field

     Computed dipole along edir(3) : 
        Dipole               -1.1069 Ry au,         -2.8134 Debye
        Dipole field         -0.0007 Ry au, 
 
        Potential amp.        0.0743 Ry
        Total length         54.2615 bohr
 

     total cpu time spent up to now is      172.1 secs

     total energy              =   -7397.58357321 Ry
     estimated scf accuracy    <      13.33272947 Ry

     total magnetization       =    71.00 Bohr mag/cell
     absolute magnetization    =    88.34 Bohr mag/cell

     iteration #  9     ecut=    50.00 Ry     beta= 0.10
     Davidson diagonalization with overlap
     ethr =  1.19E-03,  avg # of iterations =  1.0

     negative rho (up, down):  6.487E-05 1.387E-04
 
     Adding external electric field

     Computed dipole along edir(3) : 
        Dipole               -0.9087 Ry au,         -2.3097 Debye
        Dipole field         -0.0006 Ry au, 
 
        Potential amp.        0.0610 Ry
        Total length         54.2615 bohr
 
 
     Adding external electric field

     Computed dipole along edir(3) : 
        Dipole               -0.9087 Ry au,         -2.3097 Debye
        Dipole field         -0.0006 Ry au, 
 
        Potential amp.        0.0610 Ry
        Total length         54.2615 bohr
 

     total cpu time spent up to now is      184.0 secs

     total energy              =   -7397.52159766 Ry
     estimated scf accuracy    <       9.83874213 Ry

     total magnetization       =    71.98 Bohr mag/cell
     absolute magnetization    =    88.31 Bohr mag/cell

     iteration # 10     ecut=    50.00 Ry     beta= 0.10
     Davidson diagonalization with overlap
     ethr =  9.13E-04,  avg # of iterations =  1.0

     negative rho (up, down):  6.048E-05 1.337E-04
 
     Adding external electric field

     Computed dipole along edir(3) : 
        Dipole               -0.9363 Ry au,         -2.3797 Debye
        Dipole field         -0.0006 Ry au, 
 
        Potential amp.        0.0628 Ry
        Total length         54.2615 bohr
 
 
     Adding external electric field

     Computed dipole along edir(3) : 
        Dipole               -0.9363 Ry au,         -2.3797 Debye
        Dipole field         -0.0006 Ry au, 
 
        Potential amp.        0.0628 Ry
        Total length         54.2615 bohr
 

     total cpu time spent up to now is      195.6 secs

     total energy              =   -7397.55707119 Ry
     estimated scf accuracy    <       5.36897929 Ry

     total magnetization       =    73.01 Bohr mag/cell
     absolute magnetization    =    87.21 Bohr mag/cell

     iteration # 11     ecut=    50.00 Ry     beta= 0.10
     Davidson diagonalization with overlap
     ethr =  4.98E-04,  avg # of iterations =  1.5

     negative rho (up, down):  2.966E-05 2.293E-04
 
     Adding external electric field

     Computed dipole along edir(3) : 
        Dipole               -0.7774 Ry au,         -1.9759 Debye
        Dipole field         -0.0005 Ry au, 
 
        Potential amp.        0.0522 Ry
        Total length         54.2615 bohr
 
 
     Adding external electric field

     Computed dipole along edir(3) : 
        Dipole               -0.7774 Ry au,         -1.9759 Debye
        Dipole field         -0.0005 Ry au, 
 
        Potential amp.        0.0522 Ry
        Total length         54.2615 bohr
 

     total cpu time spent up to now is      207.7 secs

     total energy              =   -7397.57786668 Ry
     estimated scf accuracy    <       3.28362793 Ry

     total magnetization       =    74.62 Bohr mag/cell
     absolute magnetization    =    87.82 Bohr mag/cell

     iteration # 12     ecut=    50.00 Ry     beta= 0.10
     Davidson diagonalization with overlap
     ethr =  3.05E-04,  avg # of iterations =  5.5

     negative rho (up, down):  2.335E-05 2.061E-04
 
     Adding external electric field

     Computed dipole along edir(3) : 
        Dipole               -0.7672 Ry au,         -1.9499 Debye
        Dipole field         -0.0005 Ry au, 
 
        Potential amp.        0.0515 Ry
        Total length         54.2615 bohr
 
 
     Adding external electric field

     Computed dipole along edir(3) : 
        Dipole               -0.7672 Ry au,         -1.9499 Debye
        Dipole field         -0.0005 Ry au, 
 
        Potential amp.        0.0515 Ry
        Total length         54.2615 bohr
 

     total cpu time spent up to now is      221.7 secs

     total energy              =   -7397.64019012 Ry
     estimated scf accuracy    <       0.95315165 Ry

     total magnetization       =    79.02 Bohr mag/cell
     absolute magnetization    =    89.27 Bohr mag/cell

     iteration # 13     ecut=    50.00 Ry     beta= 0.10
     Davidson diagonalization with overlap
     c_bands:  2 eigenvalues not converged
     ethr =  8.84E-05,  avg # of iterations = 11.0

     negative rho (up, down):  6.433E-06 1.489E-04
 
     Adding external electric field

     Computed dipole along edir(3) : 
        Dipole               -0.7164 Ry au,         -1.8208 Debye
        Dipole field         -0.0004 Ry au, 
 
        Potential amp.        0.0481 Ry
        Total length         54.2615 bohr
 
 
     Adding external electric field

     Computed dipole along edir(3) : 
        Dipole               -0.7164 Ry au,         -1.8208 Debye
        Dipole field         -0.0004 Ry au, 
 
        Potential amp.        0.0481 Ry
        Total length         54.2615 bohr
 

     total cpu time spent up to now is      241.5 secs

     total energy              =   -7397.77871096 Ry
     estimated scf accuracy    <       1.32408847 Ry

     total magnetization       =    77.52 Bohr mag/cell
     absolute magnetization    =    87.46 Bohr mag/cell

     iteration # 14     ecut=    50.00 Ry     beta= 0.10
     Davidson diagonalization with overlap
     ethr =  8.84E-05,  avg # of iterations =  3.0

     negative rho (up, down):  1.111E-05 5.633E-04
 
     Adding external electric field

     Computed dipole along edir(3) : 
        Dipole               -0.7028 Ry au,         -1.7863 Debye
        Dipole field         -0.0004 Ry au, 
 
        Potential amp.        0.0472 Ry
        Total length         54.2615 bohr
 
 
     Adding external electric field

     Computed dipole along edir(3) : 
        Dipole               -0.7028 Ry au,         -1.7863 Debye
        Dipole field         -0.0004 Ry au, 
 
        Potential amp.        0.0472 Ry
        Total length         54.2615 bohr
 

     total cpu time spent up to now is      254.2 secs

     total energy              =   -7397.85422611 Ry
     estimated scf accuracy    <       0.73170071 Ry

     total magnetization       =    77.98 Bohr mag/cell
     absolute magnetization    =    85.71 Bohr mag/cell

     iteration # 15     ecut=    50.00 Ry     beta= 0.10
     Davidson diagonalization with overlap
     ethr =  6.79E-05,  avg # of iterations =  1.5

     negative rho (up, down):  6.738E-06 4.875E-04
 
     Adding external electric field

     Computed dipole along edir(3) : 
        Dipole               -0.7401 Ry au,         -1.8812 Debye
        Dipole field         -0.0005 Ry au, 
 
        Potential amp.        0.0497 Ry
        Total length         54.2615 bohr
 
 
     Adding external electric field

     Computed dipole along edir(3) : 
        Dipole               -0.7401 Ry au,         -1.8812 Debye
        Dipole field         -0.0005 Ry au, 
 
        Potential amp.        0.0497 Ry
        Total length         54.2615 bohr
 

     total cpu time spent up to now is      265.4 secs

     total energy              =   -7397.86993281 Ry
     estimated scf accuracy    <       0.35222569 Ry

     total magnetization       =    80.40 Bohr mag/cell
     absolute magnetization    =    85.73 Bohr mag/cell

     iteration # 16     ecut=    50.00 Ry     beta= 0.10
     Davidson diagonalization with overlap
     c_bands:  1 eigenvalues not converged
     ethr =  3.27E-05,  avg # of iterations = 10.5

     negative rho (up, down):  2.032E-04 1.266E-03
 
     Adding external electric field

     Computed dipole along edir(3) : 
        Dipole               -0.6375 Ry au,         -1.6204 Debye
        Dipole field         -0.0004 Ry au, 
 
        Potential amp.        0.0428 Ry
        Total length         54.2615 bohr
 
 
     Adding external electric field

     Computed dipole along edir(3) : 
        Dipole               -0.6375 Ry au,         -1.6204 Debye
        Dipole field         -0.0004 Ry au, 
 
        Potential amp.        0.0428 Ry
        Total length         54.2615 bohr
 

     total cpu time spent up to now is      286.5 secs

     total energy              =   -7397.95781472 Ry
     estimated scf accuracy    <       0.31403830 Ry

     total magnetization       =    79.30 Bohr mag/cell
     absolute magnetization    =    84.66 Bohr mag/cell

     iteration # 17     ecut=    50.00 Ry     beta= 0.10
     Davidson diagonalization with overlap
     ethr =  2.91E-05,  avg # of iterations =  2.0

     negative rho (up, down):  2.232E-04 5.193E-04
 
     Adding external electric field

     Computed dipole along edir(3) : 
        Dipole               -0.6164 Ry au,         -1.5667 Debye
        Dipole field         -0.0004 Ry au, 
 
        Potential amp.        0.0414 Ry
        Total length         54.2615 bohr
 
 
     Adding external electric field

     Computed dipole along edir(3) : 
        Dipole               -0.6164 Ry au,         -1.5667 Debye
        Dipole field         -0.0004 Ry au, 
 
        Potential amp.        0.0414 Ry
        Total length         54.2615 bohr
 

     total cpu time spent up to now is      300.8 secs

     total energy              =   -7398.03541203 Ry
     estimated scf accuracy    <       0.37692073 Ry

     total magnetization       =    81.37 Bohr mag/cell
     absolute magnetization    =    84.20 Bohr mag/cell

     iteration # 18     ecut=    50.00 Ry     beta= 0.10
     Davidson diagonalization with overlap
     ethr =  2.91E-05,  avg # of iterations =  1.0

     negative rho (up, down):  3.591E-05 1.134E-05
 
     Adding external electric field

     Computed dipole along edir(3) : 
        Dipole               -0.5802 Ry au,         -1.4748 Debye
        Dipole field         -0.0004 Ry au, 
 
        Potential amp.        0.0389 Ry
        Total length         54.2615 bohr
 
 
     Adding external electric field

     Computed dipole along edir(3) : 
        Dipole               -0.5802 Ry au,         -1.4748 Debye
        Dipole field         -0.0004 Ry au, 
 
        Potential amp.        0.0389 Ry
        Total length         54.2615 bohr
 

     total cpu time spent up to now is      313.2 secs

     total energy              =   -7398.02117757 Ry
     estimated scf accuracy    <       0.23966720 Ry

     total magnetization       =    81.29 Bohr mag/cell
     absolute magnetization    =    83.71 Bohr mag/cell

     iteration # 19     ecut=    50.00 Ry     beta= 0.10
     Davidson diagonalization with overlap
     ethr =  2.22E-05,  avg # of iterations =  2.0

     negative rho (up, down):  1.916E-05 7.478E-06
 
     Adding external electric field

     Computed dipole along edir(3) : 
        Dipole               -0.5472 Ry au,         -1.3907 Debye
        Dipole field         -0.0003 Ry au, 
 
        Potential amp.        0.0367 Ry
        Total length         54.2615 bohr
 
 
     Adding external electric field

     Computed dipole along edir(3) : 
        Dipole               -0.5472 Ry au,         -1.3907 Debye
        Dipole field         -0.0003 Ry au, 
 
        Potential amp.        0.0367 Ry
        Total length         54.2615 bohr
 

     total cpu time spent up to now is      326.6 secs

     total energy              =   -7398.03134721 Ry
     estimated scf accuracy    <       0.09218120 Ry

     total magnetization       =    79.79 Bohr mag/cell
     absolute magnetization    =    81.75 Bohr mag/cell

     iteration # 20     ecut=    50.00 Ry     beta= 0.10
     Davidson diagonalization with overlap
     ethr =  8.55E-06,  avg # of iterations =  2.0

     negative rho (up, down):  3.462E-05 1.207E-05
 
     Adding external electric field

     Computed dipole along edir(3) : 
        Dipole               -0.5523 Ry au,         -1.4039 Debye
        Dipole field         -0.0003 Ry au, 
 
        Potential amp.        0.0371 Ry
        Total length         54.2615 bohr
 
 
     Adding external electric field

     Computed dipole along edir(3) : 
        Dipole               -0.5523 Ry au,         -1.4039 Debye
        Dipole field         -0.0003 Ry au, 
 
        Potential amp.        0.0371 Ry
        Total length         54.2615 bohr
 

     total cpu time spent up to now is      340.2 secs

     total energy              =   -7398.03539999 Ry
     estimated scf accuracy    <       0.18768555 Ry

     total magnetization       =    79.90 Bohr mag/cell
     absolute magnetization    =    81.79 Bohr mag/cell

     iteration # 21     ecut=    50.00 Ry     beta= 0.10
     Davidson diagonalization with overlap
     ethr =  8.55E-06,  avg # of iterations =  1.5

     negative rho (up, down):  3.258E-05 1.123E-05
 
     Adding external electric field

     Computed dipole along edir(3) : 
        Dipole               -0.5524 Ry au,         -1.4040 Debye
        Dipole field         -0.0003 Ry au, 
 
        Potential amp.        0.0371 Ry
        Total length         54.2615 bohr
 
 
     Adding external electric field

     Computed dipole along edir(3) : 
        Dipole               -0.5524 Ry au,         -1.4040 Debye
        Dipole field         -0.0003 Ry au, 
 
        Potential amp.        0.0371 Ry
        Total length         54.2615 bohr
 

     total cpu time spent up to now is      352.4 secs

     total energy              =   -7398.03622084 Ry
     estimated scf accuracy    <       0.14273062 Ry

     total magnetization       =    80.26 Bohr mag/cell
     absolute magnetization    =    82.12 Bohr mag/cell

     iteration # 22     ecut=    50.00 Ry     beta= 0.10
     Davidson diagonalization with overlap
     ethr =  8.55E-06,  avg # of iterations =  1.0

     negative rho (up, down):  9.753E-06 1.302E-06
 
     Adding external electric field

     Computed dipole along edir(3) : 
        Dipole               -0.5182 Ry au,         -1.3172 Debye
        Dipole field         -0.0003 Ry au, 
 
        Potential amp.        0.0348 Ry
        Total length         54.2615 bohr
 
 
     Adding external electric field

     Computed dipole along edir(3) : 
        Dipole               -0.5182 Ry au,         -1.3172 Debye
        Dipole field         -0.0003 Ry au, 
 
        Potential amp.        0.0348 Ry
        Total length         54.2615 bohr
 

     total cpu time spent up to now is      364.2 secs

     total energy              =   -7398.03266692 Ry
     estimated scf accuracy    <       0.16460932 Ry

     total magnetization       =    80.18 Bohr mag/cell
     absolute magnetization    =    82.03 Bohr mag/cell

     iteration # 23     ecut=    50.00 Ry     beta= 0.10
     Davidson diagonalization with overlap
     ethr =  8.55E-06,  avg # of iterations =  1.5

     negative rho (up, down):  3.643E-06 7.126E-06
 
     Adding external electric field

     Computed dipole along edir(3) : 
        Dipole               -0.5121 Ry au,         -1.3015 Debye
        Dipole field         -0.0003 Ry au, 
 
        Potential amp.        0.0344 Ry
        Total length         54.2615 bohr
 
 
     Adding external electric field

     Computed dipole along edir(3) : 
        Dipole               -0.5121 Ry au,         -1.3015 Debye
        Dipole field         -0.0003 Ry au, 
 
        Potential amp.        0.0344 Ry
        Total length         54.2615 bohr
 

     total cpu time spent up to now is      376.5 secs

     total energy              =   -7398.03510704 Ry
     estimated scf accuracy    <       0.12519421 Ry

     total magnetization       =    79.46 Bohr mag/cell
     absolute magnetization    =    81.12 Bohr mag/cell

     iteration # 24     ecut=    50.00 Ry     beta= 0.10
     Davidson diagonalization with overlap
     ethr =  8.55E-06,  avg # of iterations =  2.0

     negative rho (up, down):  2.172E-07 2.022E-07
 
     Adding external electric field

     Computed dipole along edir(3) : 
        Dipole               -0.4243 Ry au,         -1.0785 Debye
        Dipole field         -0.0003 Ry au, 
 
        Potential amp.        0.0285 Ry
        Total length         54.2615 bohr
 
 
     Adding external electric field

     Computed dipole along edir(3) : 
        Dipole               -0.4243 Ry au,         -1.0785 Debye
        Dipole field         -0.0003 Ry au, 
 
        Potential amp.        0.0285 Ry
        Total length         54.2615 bohr
 

     total cpu time spent up to now is      389.5 secs

     total energy              =   -7398.03509183 Ry
     estimated scf accuracy    <       0.11766414 Ry

     total magnetization       =    79.67 Bohr mag/cell
     absolute magnetization    =    81.35 Bohr mag/cell

     iteration # 25     ecut=    50.00 Ry     beta= 0.10
     Davidson diagonalization with overlap
     ethr =  8.55E-06,  avg # of iterations =  2.0

     negative rho (up, down):  1.198E-06 6.747E-07
 
     Adding external electric field

     Computed dipole along edir(3) : 
        Dipole               -0.4331 Ry au,         -1.1008 Debye
        Dipole field         -0.0003 Ry au, 
 
        Potential amp.        0.0291 Ry
        Total length         54.2615 bohr
 
 
     Adding external electric field

     Computed dipole along edir(3) : 
        Dipole               -0.4331 Ry au,         -1.1008 Debye
        Dipole field         -0.0003 Ry au, 
 
        Potential amp.        0.0291 Ry
        Total length         54.2615 bohr
 

     total cpu time spent up to now is      402.7 secs

     total energy              =   -7398.03442669 Ry
     estimated scf accuracy    <       0.26766359 Ry

     total magnetization       =    78.90 Bohr mag/cell
     absolute magnetization    =    80.58 Bohr mag/cell

     iteration # 26     ecut=    50.00 Ry     beta= 0.10
     Davidson diagonalization with overlap
     ethr =  8.55E-06,  avg # of iterations =  1.0

     negative rho (up, down):  7.948E-07 1.234E-06
 
     Adding external electric field

     Computed dipole along edir(3) : 
        Dipole               -0.4425 Ry au,         -1.1247 Debye
        Dipole field         -0.0003 Ry au, 
 
        Potential amp.        0.0297 Ry
        Total length         54.2615 bohr
 
 
     Adding external electric field

     Computed dipole along edir(3) : 
        Dipole               -0.4425 Ry au,         -1.1247 Debye
        Dipole field         -0.0003 Ry au, 
 
        Potential amp.        0.0297 Ry
        Total length         54.2615 bohr
 

     total cpu time spent up to now is      414.3 secs

     total energy              =   -7398.03606684 Ry
     estimated scf accuracy    <       0.12447093 Ry

     total magnetization       =    79.37 Bohr mag/cell
     absolute magnetization    =    80.86 Bohr mag/cell

     iteration # 27     ecut=    50.00 Ry     beta= 0.10
     Davidson diagonalization with overlap
     ethr =  8.55E-06,  avg # of iterations =  2.0

     negative rho (up, down):  7.080E-06 9.630E-06
 
     Adding external electric field

     Computed dipole along edir(3) : 
        Dipole               -0.4849 Ry au,         -1.2324 Debye
        Dipole field         -0.0003 Ry au, 
 
        Potential amp.        0.0325 Ry
        Total length         54.2615 bohr
 
 
     Adding external electric field

     Computed dipole along edir(3) : 
        Dipole               -0.4849 Ry au,         -1.2324 Debye
        Dipole field         -0.0003 Ry au, 
 
        Potential amp.        0.0325 Ry
        Total length         54.2615 bohr
 

     total cpu time spent up to now is      427.7 secs

     total energy              =   -7398.03511832 Ry
     estimated scf accuracy    <       0.19969700 Ry

     total magnetization       =    79.08 Bohr mag/cell
     absolute magnetization    =    80.59 Bohr mag/cell

     iteration # 28     ecut=    50.00 Ry     beta= 0.10
     Davidson diagonalization with overlap
     ethr =  8.55E-06,  avg # of iterations =  1.5

     negative rho (up, down):  5.320E-06 1.616E-05
 
     Adding external electric field

     Computed dipole along edir(3) : 
        Dipole               -0.4458 Ry au,         -1.1332 Debye
        Dipole field         -0.0003 Ry au, 
 
        Potential amp.        0.0299 Ry
        Total length         54.2615 bohr
 
 
     Adding external electric field

     Computed dipole along edir(3) : 
        Dipole               -0.4458 Ry au,         -1.1332 Debye
        Dipole field         -0.0003 Ry au, 
 
        Potential amp.        0.0299 Ry
        Total length         54.2615 bohr
 

     total cpu time spent up to now is      440.4 secs

     total energy              =   -7398.02866081 Ry
     estimated scf accuracy    <       0.17772406 Ry

     total magnetization       =    79.24 Bohr mag/cell
     absolute magnetization    =    80.76 Bohr mag/cell

     iteration # 29     ecut=    50.00 Ry     beta= 0.10
     Davidson diagonalization with overlap
     ethr =  8.55E-06,  avg # of iterations =  2.0

     negative rho (up, down):  1.203E-05 1.319E-05
 
     Adding external electric field

     Computed dipole along edir(3) : 
        Dipole               -0.4866 Ry au,         -1.2368 Debye
        Dipole field         -0.0003 Ry au, 
 
        Potential amp.        0.0327 Ry
        Total length         54.2615 bohr
 
 
     Adding external electric field

     Computed dipole along edir(3) : 
        Dipole               -0.4866 Ry au,         -1.2368 Debye
        Dipole field         -0.0003 Ry au, 
 
        Potential amp.        0.0327 Ry
        Total length         54.2615 bohr
 

     total cpu time spent up to now is      452.4 secs

     total energy              =   -7398.03436112 Ry
     estimated scf accuracy    <       0.03918413 Ry

     total magnetization       =    80.07 Bohr mag/cell
     absolute magnetization    =    81.51 Bohr mag/cell

     iteration # 30     ecut=    50.00 Ry     beta= 0.10
     Davidson diagonalization with overlap
     ethr =  3.63E-06,  avg # of iterations =  3.0

     negative rho (up, down):  2.401E-06 2.588E-06
 
     Adding external electric field

     Computed dipole along edir(3) : 
        Dipole               -0.4240 Ry au,         -1.0776 Debye
        Dipole field         -0.0003 Ry au, 
 
        Potential amp.        0.0285 Ry
        Total length         54.2615 bohr
 
 
     Adding external electric field

     Computed dipole along edir(3) : 
        Dipole               -0.4240 Ry au,         -1.0776 Debye
        Dipole field         -0.0003 Ry au, 
 
        Potential amp.        0.0285 Ry
        Total length         54.2615 bohr
 

     total cpu time spent up to now is      464.7 secs

     total energy              =   -7398.03481542 Ry
     estimated scf accuracy    <       0.06483253 Ry

     total magnetization       =    79.67 Bohr mag/cell
     absolute magnetization    =    81.15 Bohr mag/cell

     iteration # 31     ecut=    50.00 Ry     beta= 0.10
     Davidson diagonalization with overlap
     c_bands:  5 eigenvalues not converged
     ethr =  3.63E-06,  avg # of iterations = 11.0

     negative rho (up, down):  2.955E-05 9.697E-06
 
     Adding external electric field

     Computed dipole along edir(3) : 
        Dipole               -0.4057 Ry au,         -1.0311 Debye
        Dipole field         -0.0003 Ry au, 
 
        Potential amp.        0.0272 Ry
        Total length         54.2615 bohr
 
 
     Adding external electric field

     Computed dipole along edir(3) : 
        Dipole               -0.4057 Ry au,         -1.0311 Debye
        Dipole field         -0.0003 Ry au, 
 
        Potential amp.        0.0272 Ry
        Total length         54.2615 bohr
 

     total cpu time spent up to now is      480.9 secs

     total energy              =   -7398.03177880 Ry
     estimated scf accuracy    <       0.08377401 Ry

     total magnetization       =    79.55 Bohr mag/cell
     absolute magnetization    =    81.05 Bohr mag/cell

     iteration # 32     ecut=    50.00 Ry     beta= 0.10
     Davidson diagonalization with overlap
     ethr =  3.63E-06,  avg # of iterations =  2.0

     negative rho (up, down):  8.522E-06 1.011E-05
 
     Adding external electric field

     Computed dipole along edir(3) : 
        Dipole               -0.4203 Ry au,         -1.0682 Debye
        Dipole field         -0.0003 Ry au, 
 
        Potential amp.        0.0282 Ry
        Total length         54.2615 bohr
 
 
     Adding external electric field

     Computed dipole along edir(3) : 
        Dipole               -0.4203 Ry au,         -1.0682 Debye
        Dipole field         -0.0003 Ry au, 
 
        Potential amp.        0.0282 Ry
        Total length         54.2615 bohr
 

     total cpu time spent up to now is      493.0 secs

     total energy              =   -7398.03411645 Ry
     estimated scf accuracy    <       0.04759259 Ry

     total magnetization       =    79.96 Bohr mag/cell
     absolute magnetization    =    81.32 Bohr mag/cell

     iteration # 33     ecut=    50.00 Ry     beta= 0.10
     Davidson diagonalization with overlap
     ethr =  3.63E-06,  avg # of iterations =  1.0

     negative rho (up, down):  3.908E-05 2.414E-05
 
     Adding external electric field

     Computed dipole along edir(3) : 
        Dipole               -0.2879 Ry au,         -0.7317 Debye
        Dipole field         -0.0002 Ry au, 
 
        Potential amp.        0.0193 Ry
        Total length         54.2615 bohr
 
 
     Adding external electric field

     Computed dipole along edir(3) : 
        Dipole               -0.2879 Ry au,         -0.7317 Debye
        Dipole field         -0.0002 Ry au, 
 
        Potential amp.        0.0193 Ry
        Total length         54.2615 bohr
 

     total cpu time spent up to now is      503.3 secs

     total energy              =   -7398.03006179 Ry
     estimated scf accuracy    <       0.08048421 Ry

     total magnetization       =    79.68 Bohr mag/cell
     absolute magnetization    =    81.14 Bohr mag/cell

     iteration # 34     ecut=    50.00 Ry     beta= 0.10
     Davidson diagonalization with overlap
     ethr =  3.63E-06,  avg # of iterations =  2.0

     negative rho (up, down):  4.193E-05 2.532E-05
 
     Adding external electric field

     Computed dipole along edir(3) : 
        Dipole               -0.2697 Ry au,         -0.6855 Debye
        Dipole field         -0.0002 Ry au, 
 
        Potential amp.        0.0181 Ry
        Total length         54.2615 bohr
 
 
     Adding external electric field

     Computed dipole along edir(3) : 
        Dipole               -0.2697 Ry au,         -0.6855 Debye
        Dipole field         -0.0002 Ry au, 
 
        Potential amp.        0.0181 Ry
        Total length         54.2615 bohr
 

     total cpu time spent up to now is      514.9 secs

     total energy              =   -7398.03111243 Ry
     estimated scf accuracy    <       0.03170187 Ry

     total magnetization       =    80.11 Bohr mag/cell
     absolute magnetization    =    81.43 Bohr mag/cell

     iteration # 35     ecut=    50.00 Ry     beta= 0.10
     Davidson diagonalization with overlap
     ethr =  2.94E-06,  avg # of iterations =  1.5

     negative rho (up, down):  8.445E-05 4.103E-05
 
     Adding external electric field

     Computed dipole along edir(3) : 
        Dipole               -0.1945 Ry au,         -0.4943 Debye
        Dipole field         -0.0001 Ry au, 
 
        Potential amp.        0.0131 Ry
        Total length         54.2615 bohr
 
 
     Adding external electric field

     Computed dipole along edir(3) : 
        Dipole               -0.1945 Ry au,         -0.4943 Debye
        Dipole field         -0.0001 Ry au, 
 
        Potential amp.        0.0131 Ry
        Total length         54.2615 bohr
 

     total cpu time spent up to now is      525.7 secs

     total energy              =   -7398.03047664 Ry
     estimated scf accuracy    <       0.03016474 Ry

     total magnetization       =    80.16 Bohr mag/cell
     absolute magnetization    =    81.46 Bohr mag/cell

     iteration # 36     ecut=    50.00 Ry     beta= 0.10
     Davidson diagonalization with overlap
     ethr =  2.80E-06,  avg # of iterations =  2.0

     negative rho (up, down):  7.130E-05 3.455E-05
 
     Adding external electric field

     Computed dipole along edir(3) : 
        Dipole               -0.1993 Ry au,         -0.5066 Debye
        Dipole field         -0.0001 Ry au, 
 
        Potential amp.        0.0134 Ry
        Total length         54.2615 bohr
 
 
     Adding external electric field

     Computed dipole along edir(3) : 
        Dipole               -0.1993 Ry au,         -0.5066 Debye
        Dipole field         -0.0001 Ry au, 
 
        Potential amp.        0.0134 Ry
        Total length         54.2615 bohr
 

     total cpu time spent up to now is      537.9 secs

     total energy              =   -7398.03101870 Ry
     estimated scf accuracy    <       0.02881180 Ry

     total magnetization       =    80.26 Bohr mag/cell
     absolute magnetization    =    81.69 Bohr mag/cell

     iteration # 37     ecut=    50.00 Ry     beta= 0.10
     Davidson diagonalization with overlap
     ethr =  2.67E-06,  avg # of iterations =  1.5

     negative rho (up, down):  1.530E-04 1.002E-04
 
     Adding external electric field

     Computed dipole along edir(3) : 
        Dipole               -0.1427 Ry au,         -0.3627 Debye
        Dipole field         -0.0001 Ry au, 
 
        Potential amp.        0.0096 Ry
        Total length         54.2615 bohr
 
 
     Adding external electric field

     Computed dipole along edir(3) : 
        Dipole               -0.1427 Ry au,         -0.3627 Debye
        Dipole field         -0.0001 Ry au, 
 
        Potential amp.        0.0096 Ry
        Total length         54.2615 bohr
 

     total cpu time spent up to now is      549.0 secs

     total energy              =   -7398.03088053 Ry
     estimated scf accuracy    <       0.02933679 Ry

     total magnetization       =    80.24 Bohr mag/cell
     absolute magnetization    =    81.69 Bohr mag/cell

     iteration # 38     ecut=    50.00 Ry     beta= 0.10
     Davidson diagonalization with overlap
     ethr =  2.67E-06,  avg # of iterations = 21.0

     negative rho (up, down):  2.733E-04 2.132E-04
 
     Adding external electric field

     Computed dipole along edir(3) : 
        Dipole               -0.1473 Ry au,         -0.3744 Debye
        Dipole field         -0.0001 Ry au, 
 
        Potential amp.        0.0099 Ry
        Total length         54.2615 bohr
 
 
     Adding external electric field

     Computed dipole along edir(3) : 
        Dipole               -0.1473 Ry au,         -0.3744 Debye
        Dipole field         -0.0001 Ry au, 
 
        Potential amp.        0.0099 Ry
        Total length         54.2615 bohr
 

     total cpu time spent up to now is      575.5 secs

     total energy              =   -7398.03021939 Ry
     estimated scf accuracy    <       0.02934393 Ry

     total magnetization       =    80.28 Bohr mag/cell
     absolute magnetization    =    81.69 Bohr mag/cell

     iteration # 39     ecut=    50.00 Ry     beta= 0.10
     Davidson diagonalization with overlap
     ethr =  2.67E-06,  avg # of iterations =  2.0

     negative rho (up, down):  3.878E-04 2.198E-04
 
     Adding external electric field

     Computed dipole along edir(3) : 
        Dipole               -0.0697 Ry au,         -0.1772 Debye
        Dipole field         -0.0000 Ry au, 
 
        Potential amp.        0.0047 Ry
        Total length         54.2615 bohr
 
 
     Adding external electric field

     Computed dipole along edir(3) : 
        Dipole               -0.0697 Ry au,         -0.1772 Debye
        Dipole field         -0.0000 Ry au, 
 
        Potential amp.        0.0047 Ry
        Total length         54.2615 bohr
 

     total cpu time spent up to now is      587.5 secs

     total energy              =   -7398.02854005 Ry
     estimated scf accuracy    <       0.02695136 Ry

     total magnetization       =    80.13 Bohr mag/cell
     absolute magnetization    =    81.49 Bohr mag/cell

     iteration # 40     ecut=    50.00 Ry     beta= 0.10
     Davidson diagonalization with overlap
     ethr =  2.50E-06,  avg # of iterations =  2.0

     negative rho (up, down):  4.988E-04 4.364E-04
 
     Adding external electric field

     Computed dipole along edir(3) : 
        Dipole               -0.1668 Ry au,         -0.4241 Debye
        Dipole field         -0.0001 Ry au, 
 
        Potential amp.        0.0112 Ry
        Total length         54.2615 bohr
 
 
     Adding external electric field

     Computed dipole along edir(3) : 
        Dipole               -0.1668 Ry au,         -0.4241 Debye
        Dipole field         -0.0001 Ry au, 
 
        Potential amp.        0.0112 Ry
        Total length         54.2615 bohr
 

     total cpu time spent up to now is      599.2 secs

     total energy              =   -7398.02989698 Ry
     estimated scf accuracy    <       0.02815377 Ry

     total magnetization       =    80.19 Bohr mag/cell
     absolute magnetization    =    81.51 Bohr mag/cell

     iteration # 41     ecut=    50.00 Ry     beta= 0.10
     Davidson diagonalization with overlap
     ethr =  2.50E-06,  avg # of iterations =  2.0

     negative rho (up, down):  1.092E-03 1.054E-03
 
     Adding external electric field

     Computed dipole along edir(3) : 
        Dipole               -0.0382 Ry au,         -0.0970 Debye
        Dipole field         -0.0000 Ry au, 
 
        Potential amp.        0.0026 Ry
        Total length         54.2615 bohr
 
 
     Adding external electric field

     Computed dipole along edir(3) : 
        Dipole               -0.0382 Ry au,         -0.0970 Debye
        Dipole field         -0.0000 Ry au, 
 
        Potential amp.        0.0026 Ry
        Total length         54.2615 bohr
 

     total cpu time spent up to now is      611.0 secs

     total energy              =   -7398.02982398 Ry
     estimated scf accuracy    <       0.02502752 Ry

     total magnetization       =    80.02 Bohr mag/cell
     absolute magnetization    =    81.38 Bohr mag/cell

     iteration # 42     ecut=    50.00 Ry     beta= 0.10
     Davidson diagonalization with overlap
     ethr =  2.32E-06,  avg # of iterations =  2.0

     negative rho (up, down):  2.354E-03 2.150E-03
 
     Adding external electric field

     Computed dipole along edir(3) : 
        Dipole                0.0097 Ry au,          0.0248 Debye
        Dipole field          0.0000 Ry au, 
 
        Potential amp.       -0.0007 Ry
        Total length         54.2615 bohr
 
 
     Adding external electric field

     Computed dipole along edir(3) : 
        Dipole                0.0097 Ry au,          0.0248 Debye
        Dipole field          0.0000 Ry au, 
 
        Potential amp.       -0.0007 Ry
        Total length         54.2615 bohr
 

     total cpu time spent up to now is      623.0 secs

     total energy              =   -7398.02899475 Ry
     estimated scf accuracy    <       0.02073003 Ry

     total magnetization       =    80.09 Bohr mag/cell
     absolute magnetization    =    81.47 Bohr mag/cell

     iteration # 43     ecut=    50.00 Ry     beta= 0.10
     Davidson diagonalization with overlap
     ethr =  1.92E-06,  avg # of iterations = 10.5

     negative rho (up, down):  2.988E-03 2.668E-03
 
     Adding external electric field

     Computed dipole along edir(3) : 
        Dipole                0.0525 Ry au,          0.1334 Debye
        Dipole field          0.0000 Ry au, 
 
        Potential amp.       -0.0035 Ry
        Total length         54.2615 bohr
 
 
     Adding external electric field

     Computed dipole along edir(3) : 
        Dipole                0.0525 Ry au,          0.1334 Debye
        Dipole field          0.0000 Ry au, 
 
        Potential amp.       -0.0035 Ry
        Total length         54.2615 bohr
 

     total cpu time spent up to now is      639.5 secs

     total energy              =   -7398.02860041 Ry
     estimated scf accuracy    <       0.01868995 Ry

     total magnetization       =    80.17 Bohr mag/cell
     absolute magnetization    =    81.58 Bohr mag/cell

     iteration # 44     ecut=    50.00 Ry     beta= 0.10
     Davidson diagonalization with overlap
     ethr =  1.73E-06,  avg # of iterations =  2.0

     negative rho (up, down):  3.612E-03 3.101E-03
 
     Adding external electric field

     Computed dipole along edir(3) : 
        Dipole                0.1339 Ry au,          0.3404 Debye
        Dipole field          0.0001 Ry au, 
 
        Potential amp.       -0.0090 Ry
        Total length         54.2615 bohr
 
 
     Adding external electric field

     Computed dipole along edir(3) : 
        Dipole                0.1339 Ry au,          0.3404 Debye
        Dipole field          0.0001 Ry au, 
 
        Potential amp.       -0.0090 Ry
        Total length         54.2615 bohr
 

     total cpu time spent up to now is      650.8 secs

     total energy              =   -7398.02817995 Ry
     estimated scf accuracy    <       0.01751885 Ry

     total magnetization       =    80.19 Bohr mag/cell
     absolute magnetization    =    81.58 Bohr mag/cell

     iteration # 45     ecut=    50.00 Ry     beta= 0.10
     Davidson diagonalization with overlap
     ethr =  1.63E-06,  avg # of iterations =  2.0

     negative rho (up, down):  2.347E-03 2.281E-03
 
     Adding external electric field

     Computed dipole along edir(3) : 
        Dipole                0.3380 Ry au,          0.8590 Debye
        Dipole field          0.0002 Ry au, 
 
        Potential amp.       -0.0227 Ry
        Total length         54.2615 bohr
 
 
     Adding external electric field

     Computed dipole along edir(3) : 
        Dipole                0.3380 Ry au,          0.8590 Debye
        Dipole field          0.0002 Ry au, 
 
        Potential amp.       -0.0227 Ry
        Total length         54.2615 bohr
 

     total cpu time spent up to now is      663.5 secs

     total energy              =   -7398.02884667 Ry
     estimated scf accuracy    <       0.01391482 Ry

     total magnetization       =    80.17 Bohr mag/cell
     absolute magnetization    =    81.52 Bohr mag/cell

     iteration # 46     ecut=    50.00 Ry     beta= 0.10
     Davidson diagonalization with overlap
     ethr =  1.29E-06,  avg # of iterations =  4.0

     negative rho (up, down):  5.088E-03 4.744E-03
 
     Adding external electric field

     Computed dipole along edir(3) : 
        Dipole                0.4409 Ry au,          1.1206 Debye
        Dipole field          0.0003 Ry au, 
 
        Potential amp.       -0.0296 Ry
        Total length         54.2615 bohr
 
 
     Adding external electric field

     Computed dipole along edir(3) : 
        Dipole                0.4409 Ry au,          1.1206 Debye
        Dipole field          0.0003 Ry au, 
 
        Potential amp.       -0.0296 Ry
        Total length         54.2615 bohr
 

     total cpu time spent up to now is      675.6 secs

     total energy              =   -7398.02951364 Ry
     estimated scf accuracy    <       0.00673355 Ry

     total magnetization       =    80.14 Bohr mag/cell
     absolute magnetization    =    81.52 Bohr mag/cell

     iteration # 47     ecut=    50.00 Ry     beta= 0.10
     Davidson diagonalization with overlap
     ethr =  6.25E-07,  avg # of iterations =  5.0

     negative rho (up, down):  4.956E-04 3.950E-04
 
     Adding external electric field

     Computed dipole along edir(3) : 
        Dipole                0.3257 Ry au,          0.8279 Debye
        Dipole field          0.0002 Ry au, 
 
        Potential amp.       -0.0219 Ry
        Total length         54.2615 bohr
 
 
     Adding external electric field

     Computed dipole along edir(3) : 
        Dipole                0.3257 Ry au,          0.8279 Debye
        Dipole field          0.0002 Ry au, 
 
        Potential amp.       -0.0219 Ry
        Total length         54.2615 bohr
 

     total cpu time spent up to now is      688.0 secs

     total energy              =   -7398.02945195 Ry
     estimated scf accuracy    <       0.00335688 Ry

     total magnetization       =    80.13 Bohr mag/cell
     absolute magnetization    =    81.54 Bohr mag/cell

     iteration # 48     ecut=    50.00 Ry     beta= 0.10
     Davidson diagonalization with overlap
     ethr =  3.11E-07,  avg # of iterations =  4.0

     negative rho (up, down):  1.755E-04 1.462E-04
 
     Adding external electric field

     Computed dipole along edir(3) : 
        Dipole                0.3050 Ry au,          0.7751 Debye
        Dipole field          0.0002 Ry au, 
 
        Potential amp.       -0.0205 Ry
        Total length         54.2615 bohr
 
 
     Adding external electric field

     Computed dipole along edir(3) : 
        Dipole                0.3050 Ry au,          0.7751 Debye
        Dipole field          0.0002 Ry au, 
 
        Potential amp.       -0.0205 Ry
        Total length         54.2615 bohr
 

     total cpu time spent up to now is      700.0 secs

     total energy              =   -7398.02961974 Ry
     estimated scf accuracy    <       0.00200988 Ry

     total magnetization       =    80.11 Bohr mag/cell
     absolute magnetization    =    81.53 Bohr mag/cell

     iteration # 49     ecut=    50.00 Ry     beta= 0.10
     Davidson diagonalization with overlap
     ethr =  1.86E-07,  avg # of iterations =  2.0

     negative rho (up, down):  4.616E-05 3.107E-05
 
     Adding external electric field

     Computed dipole along edir(3) : 
        Dipole                0.2904 Ry au,          0.7381 Debye
        Dipole field          0.0002 Ry au, 
 
        Potential amp.       -0.0195 Ry
        Total length         54.2615 bohr
 
 
     Adding external electric field

     Computed dipole along edir(3) : 
        Dipole                0.2904 Ry au,          0.7381 Debye
        Dipole field          0.0002 Ry au, 
 
        Potential amp.       -0.0195 Ry
        Total length         54.2615 bohr
 

     total cpu time spent up to now is      712.2 secs

     total energy              =   -7398.02974874 Ry
     estimated scf accuracy    <       0.00120346 Ry

     total magnetization       =    80.09 Bohr mag/cell
     absolute magnetization    =    81.55 Bohr mag/cell

     iteration # 50     ecut=    50.00 Ry     beta= 0.10
     Davidson diagonalization with overlap
     ethr =  1.12E-07,  avg # of iterations =  1.5

     negative rho (up, down):  3.666E-06 2.090E-06
 
     Adding external electric field

     Computed dipole along edir(3) : 
        Dipole                0.2399 Ry au,          0.6097 Debye
        Dipole field          0.0001 Ry au, 
 
        Potential amp.       -0.0161 Ry
        Total length         54.2615 bohr
 
 
     Adding external electric field

     Computed dipole along edir(3) : 
        Dipole                0.2399 Ry au,          0.6097 Debye
        Dipole field          0.0001 Ry au, 
 
        Potential amp.       -0.0161 Ry
        Total length         54.2615 bohr
 

     total cpu time spent up to now is      723.7 secs

     total energy              =   -7398.02973705 Ry
     estimated scf accuracy    <       0.00090792 Ry

     total magnetization       =    80.10 Bohr mag/cell
     absolute magnetization    =    81.59 Bohr mag/cell

     iteration # 51     ecut=    50.00 Ry     beta= 0.10
     Davidson diagonalization with overlap
     ethr =  8.42E-08,  avg # of iterations =  2.0

     negative rho (up, down):  3.030E-06 1.551E-06
 
     Adding external electric field

     Computed dipole along edir(3) : 
        Dipole                0.2286 Ry au,          0.5811 Debye
        Dipole field          0.0001 Ry au, 
 
        Potential amp.       -0.0153 Ry
        Total length         54.2615 bohr
 
 
     Adding external electric field

     Computed dipole along edir(3) : 
        Dipole                0.2286 Ry au,          0.5811 Debye
        Dipole field          0.0001 Ry au, 
 
        Potential amp.       -0.0153 Ry
        Total length         54.2615 bohr
 

     total cpu time spent up to now is      735.1 secs

     total energy              =   -7398.02973011 Ry
     estimated scf accuracy    <       0.00078683 Ry

     total magnetization       =    80.09 Bohr mag/cell
     absolute magnetization    =    81.61 Bohr mag/cell

     iteration # 52     ecut=    50.00 Ry     beta= 0.10
     Davidson diagonalization with overlap
     ethr =  7.30E-08,  avg # of iterations =  1.0

     negative rho (up, down):  5.440E-06 1.968E-06
 
     Adding external electric field

     Computed dipole along edir(3) : 
        Dipole                0.2311 Ry au,          0.5875 Debye
        Dipole field          0.0001 Ry au, 
 
        Potential amp.       -0.0155 Ry
        Total length         54.2615 bohr
 
 
     Adding external electric field

     Computed dipole along edir(3) : 
        Dipole                0.2311 Ry au,          0.5875 Debye
        Dipole field          0.0001 Ry au, 
 
        Potential amp.       -0.0155 Ry
        Total length         54.2615 bohr
 

     total cpu time spent up to now is      744.9 secs

     total energy              =   -7398.02978422 Ry
     estimated scf accuracy    <       0.00070274 Ry

     total magnetization       =    80.10 Bohr mag/cell
     absolute magnetization    =    81.61 Bohr mag/cell

     iteration # 53     ecut=    50.00 Ry     beta= 0.10
     Davidson diagonalization with overlap
     ethr =  6.52E-08,  avg # of iterations =  2.0

     negative rho (up, down):  7.003E-06 3.024E-06
 
     Adding external electric field

     Computed dipole along edir(3) : 
        Dipole                0.2296 Ry au,          0.5837 Debye
        Dipole field          0.0001 Ry au, 
 
        Potential amp.       -0.0154 Ry
        Total length         54.2615 bohr
 
 
     Adding external electric field

     Computed dipole along edir(3) : 
        Dipole                0.2296 Ry au,          0.5837 Debye
        Dipole field          0.0001 Ry au, 
 
        Potential amp.       -0.0154 Ry
        Total length         54.2615 bohr
 

     total cpu time spent up to now is      756.0 secs

     total energy              =   -7398.02980894 Ry
     estimated scf accuracy    <       0.00057726 Ry

     total magnetization       =    80.12 Bohr mag/cell
     absolute magnetization    =    81.62 Bohr mag/cell

     iteration # 54     ecut=    50.00 Ry     beta= 0.10
     Davidson diagonalization with overlap
     ethr =  5.35E-08,  avg # of iterations =  1.5

     negative rho (up, down):  1.241E-05 3.826E-06
 
     Adding external electric field

     Computed dipole along edir(3) : 
        Dipole                0.2381 Ry au,          0.6053 Debye
        Dipole field          0.0001 Ry au, 
 
        Potential amp.       -0.0160 Ry
        Total length         54.2615 bohr
 
 
     Adding external electric field

     Computed dipole along edir(3) : 
        Dipole                0.2381 Ry au,          0.6053 Debye
        Dipole field          0.0001 Ry au, 
 
        Potential amp.       -0.0160 Ry
        Total length         54.2615 bohr
 

     total cpu time spent up to now is      766.7 secs

     total energy              =   -7398.02985149 Ry
     estimated scf accuracy    <       0.00049844 Ry

     total magnetization       =    80.12 Bohr mag/cell
     absolute magnetization    =    81.63 Bohr mag/cell

     iteration # 55     ecut=    50.00 Ry     beta= 0.10
     Davidson diagonalization with overlap
     ethr =  4.62E-08,  avg # of iterations =  2.0

     negative rho (up, down):  1.832E-04 6.957E-05
 
     Adding external electric field

     Computed dipole along edir(3) : 
        Dipole                0.2746 Ry au,          0.6980 Debye
        Dipole field          0.0002 Ry au, 
 
        Potential amp.       -0.0184 Ry
        Total length         54.2615 bohr
 
 
     Adding external electric field

     Computed dipole along edir(3) : 
        Dipole                0.2746 Ry au,          0.6980 Debye
        Dipole field          0.0002 Ry au, 
 
        Potential amp.       -0.0184 Ry
        Total length         54.2615 bohr
 

     total cpu time spent up to now is      777.9 secs

     total energy              =   -7398.02993443 Ry
     estimated scf accuracy    <       0.00039247 Ry

     total magnetization       =    80.12 Bohr mag/cell
     absolute magnetization    =    81.63 Bohr mag/cell

     iteration # 56     ecut=    50.00 Ry     beta= 0.10
     Davidson diagonalization with overlap
     ethr =  3.64E-08,  avg # of iterations =  2.0

     negative rho (up, down):  2.807E-04 1.119E-04
 
     Adding external electric field

     Computed dipole along edir(3) : 
        Dipole                0.2776 Ry au,          0.7056 Debye
        Dipole field          0.0002 Ry au, 
 
        Potential amp.       -0.0186 Ry
        Total length         54.2615 bohr
 
 
     Adding external electric field

     Computed dipole along edir(3) : 
        Dipole                0.2776 Ry au,          0.7056 Debye
        Dipole field          0.0002 Ry au, 
 
        Potential amp.       -0.0186 Ry
        Total length         54.2615 bohr
 

     total cpu time spent up to now is      790.2 secs

     total energy              =   -7398.02995244 Ry
     estimated scf accuracy    <       0.00023902 Ry

     total magnetization       =    80.11 Bohr mag/cell
     absolute magnetization    =    81.63 Bohr mag/cell

     iteration # 57     ecut=    50.00 Ry     beta= 0.10
     Davidson diagonalization with overlap
     ethr =  2.22E-08,  avg # of iterations =  2.0

     negative rho (up, down):  3.052E-04 1.134E-04
 
     Adding external electric field

     Computed dipole along edir(3) : 
        Dipole                0.2775 Ry au,          0.7054 Debye
        Dipole field          0.0002 Ry au, 
 
        Potential amp.       -0.0186 Ry
        Total length         54.2615 bohr
 
 
     Adding external electric field

     Computed dipole along edir(3) : 
        Dipole                0.2775 Ry au,          0.7054 Debye
        Dipole field          0.0002 Ry au, 
 
        Potential amp.       -0.0186 Ry
        Total length         54.2615 bohr
 

     total cpu time spent up to now is      802.7 secs

     total energy              =   -7398.02995805 Ry
     estimated scf accuracy    <       0.00019412 Ry

     total magnetization       =    80.11 Bohr mag/cell
     absolute magnetization    =    81.63 Bohr mag/cell

     iteration # 58     ecut=    50.00 Ry     beta= 0.10
     Davidson diagonalization with overlap
     ethr =  1.80E-08,  avg # of iterations =  2.0

     negative rho (up, down):  1.345E-03 1.016E-03
 
     Adding external electric field

     Computed dipole along edir(3) : 
        Dipole                0.2985 Ry au,          0.7588 Debye
        Dipole field          0.0002 Ry au, 
 
        Potential amp.       -0.0200 Ry
[...]
    -5.9495  -5.9325  -5.9191  -5.9099  -5.8824  -5.8537  -5.8165  -5.8104
    -5.7773  -5.7632  -5.7550  -5.7337  -5.7220  -5.6916  -5.6786  -5.6463
    -5.6399  -5.6259  -5.5974  -5.5889  -5.5790  -5.5603  -5.5260  -5.4789
    -5.4609  -5.4234  -5.3955  -5.3881  -5.3584  -5.3441  -5.3130  -5.2791
    -5.2363  -5.2026  -5.1866  -5.1410  -5.1004  -5.0735  -5.0317  -5.0257
    -4.9961  -4.9710  -4.9558  -4.9066  -4.8924  -4.8606  -4.8400  -4.8246
    -4.7894  -4.7523  -4.6946  -4.6917  -4.6575  -4.6183  -4.5694  -4.5599
    -4.4945  -4.4863  -4.4501  -4.4289  -4.4192  -4.3681  -4.3566  -4.3274
    -4.3155  -4.2639  -4.2113  -4.1880  -4.1563  -4.1260  -4.1170  -4.0919
    -4.0439  -4.0043  -3.9899  -3.9658  -3.9503  -3.9154  -3.9033  -3.8760
    -3.8572  -3.8387  -3.8155  -3.7860  -3.7761  -3.7223  -3.7112  -3.7016
    -3.6823  -3.6700  -3.6325  -3.6311  -3.6295  -3.5979  -3.5885  -3.5217
    -3.5126  -3.4931  -3.4870  -3.4778  -3.4685  -3.4543  -3.4264  -3.4230
    -3.4140  -3.3679  -3.3465  -3.3353  -3.3281  -3.3047  -3.2746  -3.2420
    -3.2220  -3.2027  -3.1716  -3.1588  -3.1428  -3.1303  -3.1178  -3.1118
    -3.0878  -3.0699  -3.0468  -3.0252  -2.9950  -2.9764  -2.9591  -2.9330
    -2.9007  -2.8916  -2.8817  -2.8623  -2.8273  -2.8196  -2.7903  -2.7755
    -2.7619  -2.7541  -2.7347  -2.7308  -2.7240  -2.7095  -2.7046  -2.6982
    -2.6712  -2.6551  -2.6329  -2.6123  -2.6009  -2.5995  -2.5719  -2.5479
    -2.5368  -2.5193  -2.5048  -2.4764  -2.4637  -2.4515  -2.4435  -2.4269
    -2.3879  -2.3816  -2.3695  -2.3534  -2.3207  -2.3105  -2.2729  -2.2615
    -2.2567  -2.2194  -2.2099  -2.1841  -2.1726  -2.1655  -2.1179  -2.1003
    -2.0941  -2.0722  -2.0577  -2.0447  -2.0352  -2.0172  -1.9865  -1.9698
    -1.9613  -1.9461  -1.9375  -1.9313  -1.8955  -1.8753  -1.8632  -1.8387
    -1.8199  -1.8020  -1.7686  -1.7571  -1.7311  -1.7263  -1.6976  -1.6830
    -1.6631  -1.6545  -1.6367  -1.6026  -1.5926  -1.5704  -1.5621  -1.5294
    -1.5090  -1.4900  -1.4897  -1.4699  -1.4318  -1.4226  -1.3969  -1.3957
    -1.3712  -1.3534  -1.3112  -1.2857  -1.2682  -1.2386  -1.2239  -1.2157
    -1.1435  -1.1240  -1.0767  -1.0056  -0.9556  -0.9379  -0.8523  -0.8367
    -0.7950  -0.7550  -0.6920  -0.5042  -0.3621  -0.2938  -0.2914  -0.1870
     0.1362   0.1571   0.1875   0.2263   0.2576   0.2653   0.2766   0.2793
     0.3061   0.3087   0.3402   0.3465   0.3501   0.3603   0.3680   0.3800
     0.3833   0.3861   0.3984   0.4121   0.4210   0.4292   0.4311   0.4426
     0.4430   0.4507   0.4620   0.4714   0.4722   0.4780   0.4825   0.4913
     0.5023   0.5138   0.5173   0.5214   0.5288   0.5338   0.5341   0.5504
     0.5623   0.5674   0.5748   0.5770   0.5827   0.5879   0.5919   0.6118
     0.6164   0.6301   0.6314   0.6403   0.6472   0.6501   0.6560   0.6716
     0.6741   0.6784   0.6858   0.6883   0.7021   0.7033   0.7129   0.7235
     0.7271   0.7347   0.7416   0.7553   0.7604   0.7747   0.7755   0.7824
     0.7931   0.7956   0.8054   0.8170   0.8335   0.8427   0.8591   0.8658
     0.8772   0.8854   0.8919   0.8961   0.9071   0.9128   0.9212   0.9226
     0.9338   0.9465   0.9692   0.9714   0.9841   0.9994   1.0287   1.0428
     1.1530   1.1867   1.6243   1.7056   1.7095   1.7147   1.7431   1.7507
     1.7649   1.8461   1.8763   1.8990   1.9253   1.9625   1.9705   1.9807
     1.9978   2.0431   2.0483   2.0559   2.0715   2.0763   2.0964   2.1286
     2.1554   2.1742   2.1934   2.2042   2.2211   2.2333   2.2676   2.2705
     2.2871   2.2888   2.3008   2.3138   2.3212   2.3336   2.3502   2.3605
     2.3634   2.3840   2.4033   2.4074   2.4279   2.4455   2.4552   2.4694
     2.4913   2.5113   2.5197   2.5262   2.5355   2.5648   2.5810   2.6060
     2.6204   2.6281   2.6384   2.6441   2.7078   2.7475   2.7720   2.8240
     2.8432   2.8497   2.8774   2.8987   2.9406   3.2380   3.2820   3.4555
     3.5355   3.8189   3.8865   3.9637   4.0268   4.0508   4.1096   4.5022
     4.6660   4.7890   4.9148   4.9316   4.9716   5.0785   5.4326   6.3310
     6.3814   6.5303   6.6046   6.7439   6.8100   6.8232   6.8824   6.9196
     7.0345   7.0951   7.1555   7.1695   7.3445   7.3511   7.3885   7.4364
     7.5563   7.5824   7.6322   7.6828   7.7297   7.7559   7.8273   7.8704
     7.8943   7.9429   7.9629   8.0111   8.0364   8.0634   8.0860   8.1096
     8.1427   8.1611   8.2078   8.2222   8.2530   8.2841   8.3232   8.3358
     8.3634   8.3850   8.4386   8.4699   8.4854   8.5141   8.5296   8.5368
     8.5493   8.5722   8.5958   8.6076   8.6376   8.6523   8.6838   8.6889
     8.7243   8.7508   8.8056   8.8253   8.8383   8.8723   8.9073

     the Fermi energy is     1.5994 ev

!    total energy              =   -7398.02995899 Ry
     estimated scf accuracy    <       0.00000070 Ry
     smearing contrib. (-TS)   =      -0.01663550 Ry
     internal energy E=F+TS    =   -7398.01332349 Ry

     The total energy is F=E-TS. E is the sum of the following terms:
     one-electron contribution =  -91646.36141147 Ry
     hartree contribution      =   46471.52861205 Ry
     xc contribution           =   -2260.27706886 Ry
     ewald contribution        =   40038.92931147 Ry
     Dispersion Correction     =      -1.83282277 Ry
     electric field correction =       0.00005609 Ry

     total magnetization       =    80.10 Bohr mag/cell
     absolute magnetization    =    81.62 Bohr mag/cell

     convergence has been achieved in  69 iterations

     negative rho (up, down):  9.324E-04 5.510E-04

     Forces acting on atoms (cartesian axes, Ry/au):

     atom    1 type  2   force =    -0.00031197   -0.00084517   -0.00021555
     atom    2 type  1   force =    -0.00014345   -0.00022407   -0.00015708
     atom    3 type  1   force =     0.00077735   -0.00092408    0.00010500
     atom    4 type  1   force =    -0.00021424   -0.00002818    0.00019080
     atom    5 type  1   force =     0.00018887   -0.00022423    0.00003822
     atom    6 type  1   force =    -0.00026323    0.00037447    0.00000009
     atom    7 type  1   force =    -0.00032316    0.00077688    0.00008551
     atom    8 type  1   force =    -0.00024393    0.00015127    0.00046993
     atom    9 type  1   force =     0.00050401    0.00038406   -0.00060323
     atom   10 type  1   force =    -0.00013775    0.00022784   -0.00008169
     atom   11 type  1   force =     0.00009375   -0.00002447   -0.00020934
     atom   12 type  1   force =    -0.00009300    0.00006502   -0.00030640
     atom   13 type  3   force =    -0.00019383    0.00026994   -0.00035542
     atom   14 type  3   force =    -0.00020050    0.00010749    0.00007427
     atom   15 type  3   force =    -0.00051565    0.00006554   -0.00075279
     atom   16 type  3   force =     0.00028888    0.00014865    0.00037208
     atom   17 type  4   force =     0.00023015    0.00064242   -0.00004469
     atom   18 type  4   force =     0.00002324   -0.00051681   -0.00027738
     atom   19 type  4   force =     0.00044314    0.00022869    0.00021085
     atom   20 type  4   force =     0.00025491   -0.00005612    0.00004948
     atom   21 type  4   force =    -0.00024132   -0.00038718    0.00015058
     atom   22 type  4   force =     0.00045577   -0.00020015    0.00001850
     atom   23 type  4   force =     0.00014822    0.00101727    0.00065083
     atom   24 type  4   force =    -0.00026303    0.00028543   -0.00003868
     atom   25 type  4   force =    -0.00006561   -0.00014953   -0.00021858
     atom   26 type  4   force =     0.00002758    0.00117133    0.00080361
     atom   27 type  4   force =     0.00030810    0.00005824   -0.00024171
     atom   28 type  4   force =    -0.00004110   -0.00001034    0.00007148
     atom   29 type  4   force =     0.00059247   -0.00006586    0.00028240
     atom   30 type  4   force =    -0.00006745    0.00024029    0.00004744
     atom   31 type  4   force =     0.00040363    0.00039058    0.00014286
     atom   32 type  4   force =    -0.00008699    0.00016832    0.00023306
     atom   33 type  3   force =     0.00060295   -0.00008621   -0.00025067
     atom   34 type  3   force =     0.00051971   -0.00004068   -0.00023235
     atom   35 type  3   force =     0.00008253    0.00006452    0.00044751
     atom   36 type  3   force =    -0.00012770    0.00004416   -0.00029749
     atom   37 type  4   force =    -0.00007003    0.00001689   -0.00041846
     atom   38 type  4   force =    -0.00025886    0.00014605   -0.00080344
     atom   39 type  4   force =    -0.00031876   -0.00008116    0.00014203
     atom   40 type  4   force =     0.00007191    0.00022716   -0.00014270
     atom   41 type  4   force =     0.00036239   -0.00010405   -0.00005440
     atom   42 type  4   force =    -0.00006262   -0.00008238    0.00019780
     atom   43 type  4   force =    -0.00049148   -0.00021843    0.00019246
     atom   44 type  4   force =     0.00021529    0.00013084   -0.00046817
     atom   45 type  4   force =     0.00030937    0.00003285    0.00021917
     atom   46 type  4   force =    -0.00009595   -0.00030081   -0.00054689
     atom   47 type  4   force =    -0.00023615   -0.00017932   -0.00006627
     atom   48 type  4   force =    -0.00004510   -0.00025257   -0.00052900
     atom   49 type  4   force =     0.00061756   -0.00008993   -0.00036054
     atom   50 type  4   force =     0.00010398    0.00092718    0.00038784
     atom   51 type  4   force =    -0.00007587    0.00037545    0.00002007
     atom   52 type  4   force =    -0.00012449    0.00012654   -0.00032144
     atom   53 type  2   force =     0.00156844   -0.00336481    0.00604537
     atom   54 type  1   force =     0.00509046   -0.00215379    0.00366026
     atom   55 type  1   force =     0.00851417   -0.00248775    0.00545213
     atom   56 type  1   force =    -0.00188652    0.01021217    0.00591479
     atom   57 type  1   force =     0.00020320    0.02310431    0.01466045
     atom   58 type  1   force =     0.00198183   -0.00328546   -0.00169893
     atom   59 type  1   force =     0.00129458   -0.00873561    0.00045257
     atom   60 type  1   force =    -0.00515789   -0.00190106    0.00457026
     atom   61 type  1   force =    -0.00264491   -0.00153006    0.00360133
     atom   62 type  1   force =    -0.00430929    0.00819928    0.00586721
     atom   63 type  1   force =    -0.01122300    0.02586411    0.01855121
     atom   64 type  1   force =    -0.00181665    0.00103193    0.00136549
     atom   65 type  3   force =     0.04608350   -0.11387036   -0.01076683
     atom   66 type  3   force =     0.00007495   -0.00309593    0.00159625
     atom   67 type  3   force =    -0.03907325    0.12694566    0.01489492
     atom   68 type  3   force =     0.06270151   -0.00176622   -0.00330409
     atom   69 type  4   force =     0.01377711   -0.01831811    0.00382936
     atom   70 type  4   force =    -0.00062273    0.00261550   -0.00056189
     atom   71 type  4   force =    -0.00142039    0.00323719   -0.00594696
     atom   72 type  4   force =     0.00410961    0.00179010   -0.00056806
     atom   73 type  4   force =     0.00086588   -0.01148210    0.00285639
     atom   74 type  4   force =    -0.00034863   -0.00092003   -0.00165018
     atom   75 type  4   force =    -0.00100158    0.01405850    0.00650991
     atom   76 type  4   force =     0.00832534    0.00523856    0.00919989
     atom   77 type  4   force =     0.00715294   -0.00252335    0.00159023
     atom   78 type  4   force =     0.04411282   -0.14262843   -0.00515994
     atom   79 type  4   force =     0.00172658    0.00197700    0.00144005
     atom   80 type  4   force =    -0.00017734    0.00225298   -0.00153342
     atom   81 type  4   force =     0.06763195    0.00073322   -0.00582502
     atom   82 type  4   force =     0.00005581    0.00137608   -0.00082740
     atom   83 type  4   force =    -0.03923457    0.13491347    0.00268830
     atom   84 type  4   force =    -0.00281363   -0.01102139   -0.00408240
     atom   85 type  3   force =     0.04000326   -0.12002646   -0.01840777
     atom   86 type  3   force =    -0.06287867   -0.00277837    0.00866615
     atom   87 type  3   force =    -0.04475745    0.12550880    0.01718098
     atom   88 type  3   force =    -0.00166770    0.00005003    0.00255024
     atom   89 type  4   force =     0.00903148   -0.01541305    0.00411365
     atom   90 type  4   force =    -0.00489683    0.00167510    0.00052320
     atom   91 type  4   force =    -0.00904219    0.00799614   -0.00651674
     atom   92 type  4   force =     0.00006528    0.00013987   -0.00052622
     atom   93 type  4   force =    -0.00176939   -0.00837041    0.00744587
     atom   94 type  4   force =    -0.00467187    0.00152549    0.00101231
     atom   95 type  4   force =    -0.00561947    0.01286727    0.00612118
     atom   96 type  4   force =     0.00413962    0.00518910    0.00958751
     atom   97 type  4   force =     0.00001060    0.00046613    0.00068101
     atom   98 type  4   force =     0.04034269   -0.14144458   -0.00484122
     atom   99 type  4   force =    -0.06676821    0.00004992    0.00632381
     atom  100 type  4   force =    -0.00183858    0.00342623   -0.00272099
     atom  101 type  4   force =    -0.00017414    0.00096613   -0.00052165
     atom  102 type  4   force =    -0.00611388    0.00445738   -0.00137830
     atom  103 type  4   force =    -0.04029226    0.13343215    0.00430182
     atom  104 type  4   force =    -0.00693702   -0.00990703   -0.00518240
     atom  105 type  2   force =     0.00414977   -0.00657601   -0.01834629
     atom  106 type  1   force =     0.02819394    0.01426844    0.01162123
     atom  107 type  1   force =     0.00868326   -0.00614744   -0.01429307
     atom  108 type  1   force =    -0.02837471    0.02169125    0.01867511
     atom  109 type  1   force =     0.00498334    0.01620196    0.00929800
     atom  110 type  1   force =    -0.00249126   -0.00884317   -0.00695494
     atom  111 type  1   force =    -0.00084809   -0.00955380   -0.01174017
     atom  112 type  1   force =     0.02909803    0.01747230    0.01130082
     atom  113 type  1   force =    -0.00072036   -0.00495856   -0.01412489
     atom  114 type  1   force =    -0.02965615    0.02074307    0.01848206
     atom  115 type  1   force =    -0.00713454    0.01856308    0.01196760
     atom  116 type  1   force =    -0.00556462   -0.00433949   -0.00308902
     atom  117 type  3   force =     0.01424948   -0.17392364   -0.10881255
     atom  118 type  3   force =     0.00515588   -0.00851136   -0.01263046
     atom  119 type  3   force =    -0.04465309    0.12494111   -0.00183707
     atom  120 type  3   force =     0.09508081   -0.04106264   -0.07973737
     atom  121 type  4   force =     0.00610969   -0.01708230    0.03715877
     atom  122 type  4   force =    -0.00343907    0.00365061    0.00445757
     atom  123 type  4   force =    -0.00086763    0.00255275   -0.00286036
     atom  124 type  4   force =     0.00848851    0.00217982    0.02691737
     atom  125 type  4   force =     0.00989642   -0.01687217    0.01602288
     atom  126 type  4   force =    -0.00748837    0.00099693   -0.00303192
     atom  127 type  4   force =     0.00400549    0.00968291    0.00044145
     atom  128 type  4   force =    -0.00062424   -0.00106193    0.03026450
     atom  129 type  4   force =    -0.00769031    0.02545270    0.00119490
     atom  130 type  4   force =     0.04345882   -0.14596980   -0.00191355
     atom  131 type  4   force =    -0.01735650   -0.00041199    0.00286743
     atom  132 type  4   force =     0.00337084    0.00265783    0.00198586
     atom  133 type  4   force =     0.06974926    0.00364347   -0.00192377
     atom  134 type  4   force =     0.00095558    0.00363884    0.00270693
     atom  135 type  4   force =    -0.02753242    0.17219944    0.00606377
     atom  136 type  4   force =     0.01956071   -0.00861784    0.00400334
     atom  137 type  3   force =     0.00910238   -0.16688947   -0.09426978
     atom  138 type  3   force =    -0.06464442   -0.00211012   -0.00492411
     atom  139 type  3   force =    -0.04872703    0.11825661    0.00156251
     atom  140 type  3   force =     0.03145179   -0.04325350   -0.07370397
     atom  141 type  4   force =     0.00468218   -0.01329792    0.03207101
     atom  142 type  4   force =    -0.00542289   -0.00036096    0.00431892
     atom  143 type  4   force =    -0.00820559    0.00807544   -0.00351021
     atom  144 type  4   force =     0.00383389    0.00139570    0.02751890
     atom  145 type  4   force =     0.00692496   -0.01297261    0.03242607
     atom  146 type  4   force =    -0.00877965   -0.00176575   -0.00302559
     atom  147 type  4   force =     0.00034204    0.00988544    0.00264761
     atom  148 type  4   force =    -0.00792362    0.00125128    0.02917217
     atom  149 type  4   force =    -0.01317904    0.02936207    0.00051725
     atom  150 type  4   force =     0.03980148   -0.13833410   -0.00141097
     atom  151 type  4   force =    -0.08610422   -0.00174213    0.00916671
     atom  152 type  4   force =     0.00121612    0.00388466    0.00141442
     atom  153 type  4   force =    -0.00350891    0.00084262    0.00295783
     atom  154 type  4   force =    -0.00590476    0.00599360    0.00129629
     atom  155 type  4   force =    -0.02794181    0.16638995    0.00485611
     atom  156 type  4   force =     0.01051658   -0.00973463   -0.00136517
     atom  157 type  4   force =     0.00967414   -0.00703181    0.00282504
     atom  158 type  5   force =    -0.00997012    0.00750223   -0.00351841

     Total force =     0.671751     Total SCF correction =     0.003368
 
     init_run     :      9.84s CPU     10.56s WALL (       1 calls)
     electrons    :    893.57s CPU    932.68s WALL (       1 calls)
     forces       :      4.07s CPU      4.39s WALL (       1 calls)
     force_london :      0.10s CPU      0.10s WALL (       1 calls)

     Called by init_run:
     wfcinit      :      6.21s CPU      6.41s WALL (       1 calls)
     potinit      :      0.66s CPU      0.86s WALL (       1 calls)
     hinit0       :      1.67s CPU      1.75s WALL (       1 calls)

     Called by electrons:
     c_bands      :    700.95s CPU    720.92s WALL (      69 calls)
     sum_band     :    124.14s CPU    134.41s WALL (      69 calls)
     v_of_rho     :     13.63s CPU     14.66s WALL (      70 calls)
     newd         :     36.80s CPU     44.83s WALL (      70 calls)
     mix_rho      :     17.40s CPU     17.49s WALL (      69 calls)
     energy_londo :      0.10s CPU      0.10s WALL (       1 calls)

     Called by c_bands:
     init_us_2    :      1.84s CPU      1.91s WALL (     280 calls)
     init_us_2:cp :      1.84s CPU      1.91s WALL (     280 calls)
     regterg      :    686.14s CPU    705.86s WALL (     139 calls)

     Called by *egterg:
     rdiaghg      :    167.80s CPU    177.63s WALL (     529 calls)
     h_psi        :    272.78s CPU    277.07s WALL (     531 calls)
     s_psi        :     47.35s CPU     47.37s WALL (     531 calls)
     g_psi        :      0.34s CPU      0.34s WALL (     390 calls)

     Called by h_psi:
     h_psi:calbec :     72.17s CPU     75.96s WALL (     531 calls)
     vloc_psi     :    152.08s CPU    152.54s WALL (     531 calls)
     add_vuspsi   :     47.94s CPU     47.97s WALL (     531 calls)

     General routines
     calbec       :    107.10s CPU    112.94s WALL (     677 calls)
     fft          :     21.46s CPU     22.78s WALL (    1273 calls)
     ffts         :     10.88s CPU     10.90s WALL (    8573 calls)
     fftw         :    175.95s CPU    176.44s WALL (  232126 calls)
     interpolate  :      1.23s CPU      1.31s WALL (     140 calls)
 
     Parallel routines
 
     PWSCF        :  15m10.27s CPU  15m50.72s WALL

 
   This run was terminated on:  21:29:13  19Nov2025            

=------------------------------------------------------------------------------=
   JOB DONE.
=------------------------------------------------------------------------------=
