
     Program PWSCF v.7.2 starts on 19Nov2025 at 19:37:36 

     This program is part of the open-source Quantum ESPRESSO suite
     for quantum simulation of materials; please cite
         "P. Giannozzi et al., J. Phys.:Condens. Matter 21 395502 (2009);
         "P. Giannozzi et al., J. Phys.:Condens. Matter 29 465901 (2017);
         "P. Giannozzi et al., J. Chem. Phys. 152 154105 (2020);
          URL http://www.quantum-espresso.org", 
     in publications or presentations arising from this work. More details at
     http://www.quantum-espresso.org/quote

     Parallel version (MPI), running on    64 processors

     MPI processes distributed on     4 nodes
     384802 MiB available memory on the printing compute node when the environment starts
 
     Reading input from PWINPUT_atm157_xm

     Current dimensions of program PWSCF are:
     Max number of different atomic species (ntypx) = 10
     Max number of k-points (npk) =  40000
     Max angular momentum in pseudopotentials (lmaxx) =  4
     Presently no symmetry can be used with electric field

     file Ni.pbe-n-rrkjus_psl.1.0.0.UPF: wavefunction(s)  3D renormalized
     file Mn.pbe-spn-rrkjus_psl.0.3.1.UPF: wavefunction(s)  3D renormalized
     file O.pbe-rrkjus.UPF: wavefunction(s)  2S renormalized
     file H.pbe-rrkjus.UPF: wavefunction(s)  1S renormalized

     gamma-point specific algorithms are used
 
     R & G space division:  proc/nbgrp/npool/nimage =      64
     Subspace diagonalization in iterative solution of the eigenvalue problem:
     one sub-group per band group will be used
     custom distributed-memory algorithm (size of sub-group:  6*  6 procs)

 
     Parallelization info
     --------------------
     sticks:   dense  smooth     PW     G-vecs:    dense   smooth      PW
     Min         208      82     20                59912    15118    1876
     Max         210      84     22                59974    15196    1926
     Sum       13399    5355   1345              3836275   970529  121367
 
     Using Slab Decomposition
 


     bravais-lattice index     =            0
     lattice parameter (alat)  =      17.7004  a.u.
     unit-cell volume          =   20319.7251 (a.u.)^3
     number of atoms/cell      =          158
     number of atomic types    =            5
     number of electrons       =      1078.00
     number of Kohn-Sham states=          647
     kinetic-energy cutoff     =      50.0000  Ry
     charge density cutoff     =     500.0000  Ry
     scf convergence threshold =      1.0E-06
     mixing beta               =       0.1000
     number of iterations used =            8  local-TF  mixing
     Exchange-correlation=  SLA  PW   PBE  PBE
                           (   1   4   3   4   0   0   0)

     celldm(1)=  17.700384  celldm(2)=   0.000000  celldm(3)=   0.000000
     celldm(4)=   0.000000  celldm(5)=   0.000000  celldm(6)=   0.000000

     crystal axes: (cart. coord. in units of alat)
               a(1) = (   1.000000   0.000000   0.000000 )  
               a(2) = (   0.000000   1.075730   0.000000 )  
               a(3) = (   0.000000   0.000000   3.406172 )  

     reciprocal axes: (cart. coord. in units 2 pi/alat)
               b(1) = (  1.000000  0.000000  0.000000 )  
               b(2) = (  0.000000  0.929602  0.000000 )  
               b(3) = (  0.000000  0.000000  0.293585 )  


     PseudoPot. # 1 for Ni read from file:
     ~/PSEUDO/Ni.pbe-n-rrkjus_psl.1.0.0.UPF
     MD5 check sum: Not computed, couldn't open file
     Pseudo is Ultrasoft + core correction, Zval = 10.0
     Generated using "atomic" code by A. Dal Corso  v.5.1.2
     Using radial grid of 1195 points,  6 beta functions with: 
                l(1) =   0
                l(2) =   0
                l(3) =   1
                l(4) =   1
                l(5) =   2
                l(6) =   2
     Q(r) pseudized with 0 coefficients 


     PseudoPot. # 2 for Mn read from file:
     ~/PSEUDO/Mn.pbe-spn-rrkjus_psl.0.3.1.UPF
     MD5 check sum: Not computed, couldn't open file
     Pseudo is Ultrasoft + core correction, Zval = 15.0
     Generated using &quot;atomic&quot; code by A. Dal Corso  v.6.2.2
     Using radial grid of 1187 points,  6 beta functions with: 
                l(1) =   0
                l(2) =   0
                l(3) =   1
                l(4) =   1
                l(5) =   2
                l(6) =   2
     Q(r) pseudized with 0 coefficients 


     PseudoPot. # 3 for P  read from file:
     ~/PSEUDO/P.pbe-n-rrkjus_psl.1.0.0.UPF
     MD5 check sum: Not computed, couldn't open file
     Pseudo is Ultrasoft + core correction, Zval =  5.0
     Generated using "atomic" code by A. Dal Corso  v.5.1
     Using radial grid of 1147 points,  6 beta functions with: 
                l(1) =   0
                l(2) =   0
                l(3) =   1
                l(4) =   1
                l(5) =   2
                l(6) =   2
     Q(r) pseudized with 0 coefficients 


     PseudoPot. # 4 for O  read from file:
     ~/PSEUDO/O.pbe-rrkjus.UPF
     MD5 check sum: Not computed, couldn't open file
     Pseudo is Ultrasoft, Zval =  6.0
     Generated by new atomic code, or converted to UPF format
     Using radial grid of 1269 points,  4 beta functions with: 
                l(1) =   0
                l(2) =   0
                l(3) =   1
                l(4) =   1
     Q(r) pseudized with 0 coefficients 


     PseudoPot. # 5 for H  read from file:
     ~/PSEUDO/H.pbe-rrkjus.UPF
     MD5 check sum: Not computed, couldn't open file
     Pseudo is Ultrasoft, Zval =  1.0
     Generated by new atomic code, or converted to UPF format
     Using radial grid of 1061 points,  2 beta functions with: 
                l(1) =   0
                l(2) =   0
     Q(r) pseudized with 0 coefficients 


     atomic species   valence    mass     pseudopotential
     Ni               10.00    58.69300     Ni( 1.00)
     Mn               15.00    54.93800     Mn( 1.00)
     P                 5.00    30.97300     P ( 1.00)
     O                 6.00    15.99900     O ( 1.00)
     H                 1.00     1.00790     H ( 1.00)

     Starting magnetic structure 
     atomic species   magnetization
     Ni              1.000
     Mn              1.000
     P               1.000
     O               1.000
     H               0.000

     No symmetry found



   Cartesian axes

     site n.     atom                  positions (alat units)
         1        Mn     tau(   1) = (   0.2493609   0.8365715   1.6923971  )
         2        Ni     tau(   2) = (   0.4971079   0.7736156   1.3698727  )
         3        Ni     tau(   3) = (   0.0112576   0.3072794   1.7087583  )
         4        Ni     tau(   4) = (   0.2596239   0.2390995   1.3686499  )
         5        Ni     tau(   5) = (   0.9975634   1.0800649   1.5354411  )
         6        Ni     tau(   6) = (   0.2537367   0.5354741   1.5344197  )
         7        Ni     tau(   7) = (   0.7537322   0.8383734   1.6753574  )
         8        Ni     tau(   8) = (   0.9914315   0.7746670   1.3720254  )
         9        Ni     tau(   9) = (   0.5035551   0.2960273   1.6759017  )
        10        Ni     tau(  10) = (   0.7601897   0.2370242   1.3663370  )
        11        Ni     tau(  11) = (   0.4997103   1.0755509   1.5321392  )
        12        Ni     tau(  12) = (   0.7557358   0.5365151   1.5309164  )
        13        P      tau(  13) = (   0.2102583   0.9729017   1.3795895  )
        14        P      tau(  14) = (   0.4681633   0.6439249   1.6893391  )
        15        P      tau(  15) = (   0.2886425   0.1100006   1.6952171  )
        16        P      tau(  16) = (   0.0425762   0.4312003   1.3742181  )
        17        O      tau(  17) = (   0.1340839   0.9024468   1.5167299  )
        18        O      tau(  18) = (   0.3903743   0.7050921   1.5459491  )
        19        O      tau(  19) = (   0.3645582   0.1700754   1.5496001  )
        20        O      tau(  20) = (   0.1194984   0.3599186   1.5100144  )
        21        O      tau(  21) = (   0.1474941   0.8824110   1.2564130  )
        22        O      tau(  22) = (   0.4040727   0.7408321   1.8053395  )
        23        O      tau(  23) = (   0.3535892   0.2030579   1.8119064  )
        24        O      tau(  24) = (   0.1029989   0.3444961   1.2466039  )
        25        O      tau(  25) = (   0.1016325   0.5871265   1.3783445  )
        26        O      tau(  26) = (   0.3444464   1.0271569   1.6949549  )
        27        O      tau(  27) = (   0.3797210   0.4257846   1.3839545  )
        28        O      tau(  28) = (   0.1239987   0.1120195   1.6852008  )
        29        O      tau(  29) = (   0.1277082   0.6548798   1.6784119  )
        30        O      tau(  30) = (   0.4126374   0.4868061   1.6917006  )
        31        O      tau(  31) = (   0.1512622   0.0516880   1.3795899  )
        32        O      tau(  32) = (   0.3740488   0.9633360   1.3872959  )
        33        P      tau(  33) = (   0.7102783   0.9720020   1.3712879  )
        34        P      tau(  34) = (   0.9622035   0.6496791   1.6938416  )
        35        P      tau(  35) = (   0.7879411   0.1129842   1.6874765  )
        36        P      tau(  36) = (   0.5437247   0.4318676   1.3705585  )
        37        O      tau(  37) = (   0.6320214   0.9007554   1.5076114  )
        38        O      tau(  38) = (   0.8856843   0.7114266   1.5472319  )
        39        O      tau(  39) = (   0.8642929   0.1717044   1.5437885  )
        40        O      tau(  40) = (   0.6216900   0.3608055   1.5064456  )
        41        O      tau(  41) = (   0.6495853   0.8828646   1.2457269  )
        42        O      tau(  42) = (   0.9055096   0.7504361   1.8079161  )
        43        O      tau(  43) = (   0.8450882   0.2103025   1.8047962  )
        44        O      tau(  44) = (   0.6043176   0.3439644   1.2442897  )
        45        O      tau(  45) = (   0.6044957   0.5867090   1.3746570  )
        46        O      tau(  46) = (   0.8440334   1.0304596   1.6909963  )
        47        O      tau(  47) = (   0.8783670   0.4261403   1.3828404  )
        48        O      tau(  48) = (   0.6221236   0.1136819   1.6769158  )
        49        O      tau(  49) = (   0.6324242   0.6520846   1.6793976  )
        50        O      tau(  50) = (   0.9031210   0.4942715   1.6888231  )
        51        O      tau(  51) = (   0.6491651   0.0505825   1.3737527  )
        52        O      tau(  52) = (   0.8740350   0.9654835   1.3844354  )
        53        Mn     tau(  53) = (   0.2404744   0.8246335   1.0701417  )
        54        Ni     tau(  54) = (   0.4968126   0.7601755   0.7454373  )
        55        Ni     tau(  55) = (   0.0066150   0.2811828   1.0628866  )
        56        Ni     tau(  56) = (   0.2585722   0.2230943   0.7421070  )
        57        Ni     tau(  57) = (   0.9987350   1.0571496   0.9014992  )
        58        Ni     tau(  58) = (   0.2517397   0.5205596   0.9040596  )
        59        Ni     tau(  59) = (   0.7451645   0.8212628   1.0648168  )
        60        Ni     tau(  60) = (   0.9939181   0.7613889   0.7462324  )
        61        Ni     tau(  61) = (   0.5111533   0.2799173   1.0618053  )
        62        Ni     tau(  62) = (   0.7606326   0.2194352   0.7418547  )
        63        Ni     tau(  63) = (   0.5024065   1.0563218   0.8999416  )
        64        Ni     tau(  64) = (   0.7529977   0.5192985   0.9024691  )
        65        P      tau(  65) = (   0.2092944   0.9606182   0.7524883  )
        66        P      tau(  66) = (   0.4655727   0.6234620   1.0595283  )
        67        P      tau(  67) = (   0.2910699   0.0902448   1.0573821  )
        68        P      tau(  68) = (   0.0396216   0.4163480   0.7471080  )
        69        O      tau(  69) = (   0.1294378   0.8888345   0.8859300  )
        70        O      tau(  70) = (   0.3874505   0.6929859   0.9232915  )
        71        O      tau(  71) = (   0.3702540   0.1589885   0.9209891  )
        72        O      tau(  72) = (   0.1184398   0.3458043   0.8831565  )
        73        O      tau(  73) = (   0.1451572   0.8725966   0.6282341  )
        74        O      tau(  74) = (   0.4048762   0.7120670   1.1852426  )
        75        O      tau(  75) = (   0.3523506   0.1775664   1.1834175  )
        76        O      tau(  76) = (   0.1017610   0.3285569   0.6213347  )
        77        O      tau(  77) = (   0.0975396   0.5724373   0.7511996  )
        78        O      tau(  78) = (   0.3483552   1.0190030   1.0599597  )
        79        O      tau(  79) = (   0.3784305   0.4100203   0.7560991  )
        80        O      tau(  80) = (   0.1268237   0.0943029   1.0477175  )
        81        O      tau(  81) = (   0.1212267   0.6299255   1.0507023  )
        82        O      tau(  82) = (   0.4053315   0.4684472   1.0569297  )
        83        O      tau(  83) = (   0.1536621   0.0322003   0.7496532  )
        84        O      tau(  84) = (   0.3732349   0.9506802   0.7613277  )
        85        P      tau(  85) = (   0.7119823   0.9571059   0.7496908  )
        86        P      tau(  86) = (   0.9615208   0.6238477   1.0606987  )
        87        P      tau(  87) = (   0.7927710   0.0845145   1.0577754  )
        88        P      tau(  88) = (   0.5426404   0.4144760   0.7459181  )
        89        O      tau(  89) = (   0.6326879   0.8866267   0.8856678  )
        90        O      tau(  90) = (   0.8842163   0.6958291   0.9244764  )
        91        O      tau(  91) = (   0.8716178   0.1552836   0.9216415  )
        92        O      tau(  92) = (   0.6212010   0.3433751   0.8818834  )
        93        O      tau(  93) = (   0.6507714   0.8687427   0.6238197  )
        94        O      tau(  94) = (   0.9014054   0.7139543   1.1859242  )
        95        O      tau(  95) = (   0.8548963   0.1722994   1.1834447  )
        96        O      tau(  96) = (   0.6044469   0.3253792   0.6209553  )
        97        O      tau(  97) = (   0.6024424   0.5698225   0.7490903  )
        98        O      tau(  98) = (   0.8498940   1.0129567   1.0594762  )
        99        O      tau(  99) = (   0.8798395   0.4080910   0.7564148  )
       100        O      tau( 100) = (   0.6286921   0.0909721   1.0472573  )
       101        O      tau( 101) = (   0.6294973   0.6302838   1.0497366  )
       102        O      tau( 102) = (   0.9024339   0.4685397   1.0573501  )
       103        O      tau( 103) = (   0.6547812   0.0286072   0.7473283  )
       104        O      tau( 104) = (   0.8760507   0.9507690   0.7605412  )
       105        Mn     tau( 105) = (   0.2404744   0.8121420   0.4502541  )
       106        Ni     tau( 106) = (   0.4968126   0.7476840   0.1255496  )
       107        Ni     tau( 107) = (   0.0066150   0.2686914   0.4429989  )
       108        Ni     tau( 108) = (   0.2585722   0.2106028   0.1222194  )
       109        Ni     tau( 109) = (   0.9987350   1.0446581   0.2816116  )
       110        Ni     tau( 110) = (   0.2517397   0.5080681   0.2841720  )
       111        Ni     tau( 111) = (   0.7451645   0.8087713   0.4449291  )
       112        Ni     tau( 112) = (   0.9939181   0.7488974   0.1263448  )
       113        Ni     tau( 113) = (   0.5111533   0.2674258   0.4419177  )
       114        Ni     tau( 114) = (   0.7606326   0.2069438   0.1219670  )
       115        Ni     tau( 115) = (   0.5024065   1.0438304   0.2800540  )
       116        Ni     tau( 116) = (   0.7529977   0.5068070   0.2825815  )
       117        P      tau( 117) = (   0.2092944   0.9481267   0.1326007  )
       118        P      tau( 118) = (   0.4655727   0.6109705   0.4396407  )
       119        P      tau( 119) = (   0.2910699   0.0777534   0.4374945  )
       120        P      tau( 120) = (   0.0396216   0.4038566   0.1272204  )
       121        O      tau( 121) = (   0.1294378   0.8763430   0.2660424  )
       122        O      tau( 122) = (   0.3874505   0.6804944   0.3034039  )
       123        O      tau( 123) = (   0.3702540   0.1464970   0.3011014  )
       124        O      tau( 124) = (   0.1184398   0.3333129   0.2632689  )
       125        O      tau( 125) = (   0.1451572   0.8601051   0.0083464  )
       126        O      tau( 126) = (   0.4048762   0.6995756   0.5653550  )
       127        O      tau( 127) = (   0.3523506   0.1650749   0.5635298  )
       128        O      tau( 128) = (   0.1017610   0.3160655   0.0014470  )
       129        O      tau( 129) = (   0.0975396   0.5599458   0.1313120  )
       130        O      tau( 130) = (   0.3483552   1.0065115   0.4400720  )
       131        O      tau( 131) = (   0.3784305   0.3975288   0.1362114  )
       132        O      tau( 132) = (   0.1268237   0.0818115   0.4278298  )
       133        O      tau( 133) = (   0.1212267   0.6174340   0.4308146  )
       134        O      tau( 134) = (   0.4053315   0.4559557   0.4370420  )
       135        O      tau( 135) = (   0.1536621   0.0197088   0.1297656  )
       136        O      tau( 136) = (   0.3732349   0.9381887   0.1414400  )
       137        P      tau( 137) = (   0.7119823   0.9446144   0.1298032  )
       138        P      tau( 138) = (   0.9615208   0.6113562   0.4408111  )
       139        P      tau( 139) = (   0.7927710   0.0720230   0.4378878  )
       140        P      tau( 140) = (   0.5426404   0.4019845   0.1260304  )
       141        O      tau( 141) = (   0.6326879   0.8741353   0.2657802  )
       142        O      tau( 142) = (   0.8842163   0.6833376   0.3045887  )
       143        O      tau( 143) = (   0.8716178   0.1427921   0.3017538  )
       144        O      tau( 144) = (   0.6212010   0.3308836   0.2619957  )
       145        O      tau( 145) = (   0.6507714   0.8562512   0.0039320  )
       146        O      tau( 146) = (   0.9014054   0.7014628   0.5660366  )
       147        O      tau( 147) = (   0.8548963   0.1598079   0.5635571  )
       148        O      tau( 148) = (   0.6044469   0.3128877   0.0010676  )
       149        O      tau( 149) = (   0.6024424   0.5573310   0.1292027  )
       150        O      tau( 150) = (   0.8498940   1.0004653   0.4395886  )
       151        O      tau( 151) = (   0.8798395   0.3955995   0.1365272  )
       152        O      tau( 152) = (   0.6286921   0.0784807   0.4273696  )
       153        O      tau( 153) = (   0.6294973   0.6177923   0.4298489  )
       154        O      tau( 154) = (   0.9024339   0.4560482   0.4374624  )
       155        O      tau( 155) = (   0.6547812   0.0161158   0.1274406  )
       156        O      tau( 156) = (   0.8760507   0.9382775   0.1406535  )
       157        O      tau( 157) = (   0.1237433   0.3901961   1.8430336  )
       158        H      tau( 158) = (   0.2082109   0.3300793   1.8677327  )

     -------------------------------------------------
     Parameters for Dispersion (Grimme-D2) Correction:
     -------------------------------------------------
       atom      VdW radius       C_6     

        Ni         2.952        374.666
        Mn         2.952        374.666
        P          3.222        271.980
        O          2.536         24.284
        H          1.892          4.857

     number of k points=     1  Gaussian smearing, width (Ry)=  0.0100
                       cart. coord. in units 2pi/alat
        k(    1) = (   0.0000000   0.0000000   0.0000000), wk =   1.0000000

     Dense  grid:  1918138 G-vectors     FFT dimensions: ( 125, 135, 432)

     Smooth grid:   485265 G-vectors     FFT dimensions: (  80,  90, 288)

     Estimated max dynamical RAM per process >     320.12 MB

     Estimated total dynamical RAM >      20.01 GB
     Generating pointlists ...
     new r_m :   0.0799 (alat units)  1.4150 (a.u.) for type    1
     new r_m :   0.0869 (alat units)  1.5388 (a.u.) for type    2
     new r_m :   0.0650 (alat units)  1.1499 (a.u.) for type    3
     new r_m :   0.0440 (alat units)  0.7782 (a.u.) for type    4
     new r_m :   0.0440 (alat units)  0.7782 (a.u.) for type    5

     Initial potential from superposition of free atoms

     starting charge    1077.8900, renormalised to    1078.0000

     negative rho (up, down):  1.233E-03 4.556E-04
 
     Adding external electric field

     Computed dipole along edir(3) : 
        Dipole                1.6235 Ry au,          4.1266 Debye
        Dipole field          0.0010 Ry au, 
 
        Potential amp.       -0.1090 Ry
        Total length         54.2615 bohr
 
 
     Adding external electric field

     Computed dipole along edir(3) : 
        Dipole                1.6235 Ry au,          4.1266 Debye
        Dipole field          0.0010 Ry au, 
 
        Potential amp.       -0.1090 Ry
        Total length         54.2615 bohr
 
     Starting wfcs are  812 randomized atomic wfcs

     total cpu time spent up to now is       10.3 secs

     Self-consistent Calculation

     iteration #  1     ecut=    50.00 Ry     beta= 0.10
     Davidson diagonalization with overlap
     ethr =  1.00E-02,  avg # of iterations =  6.0

     negative rho (up, down):  3.375E-01 4.714E-07
 
     Adding external electric field

     Computed dipole along edir(3) : 
        Dipole               -3.6219 Ry au,         -9.2059 Debye
        Dipole field         -0.0022 Ry au, 
 
        Potential amp.        0.2431 Ry
        Total length         54.2615 bohr
 
 
     Adding external electric field

     Computed dipole along edir(3) : 
        Dipole               -3.6219 Ry au,         -9.2059 Debye
        Dipole field         -0.0022 Ry au, 
 
        Potential amp.        0.2431 Ry
        Total length         54.2615 bohr
 

     total cpu time spent up to now is       37.3 secs

     total energy              =   -7177.19118298 Ry
     estimated scf accuracy    <     739.33633716 Ry

     total magnetization       =   216.00 Bohr mag/cell
     absolute magnetization    =   297.46 Bohr mag/cell

     iteration #  2     ecut=    50.00 Ry     beta= 0.10
     Davidson diagonalization with overlap
     ethr =  1.00E-02,  avg # of iterations =  2.0

     negative rho (up, down):  3.215E-01 2.437E-07
 
     Adding external electric field

     Computed dipole along edir(3) : 
        Dipole               -2.4020 Ry au,         -6.1052 Debye
        Dipole field         -0.0015 Ry au, 
 
        Potential amp.        0.1612 Ry
        Total length         54.2615 bohr
 
 
     Adding external electric field

     Computed dipole along edir(3) : 
        Dipole               -2.4020 Ry au,         -6.1052 Debye
        Dipole field         -0.0015 Ry au, 
 
        Potential amp.        0.1612 Ry
        Total length         54.2615 bohr
 

     total cpu time spent up to now is       53.7 secs

     total energy              =   -7261.62356812 Ry
     estimated scf accuracy    <     215.78060820 Ry

     total magnetization       =   151.75 Bohr mag/cell
     absolute magnetization    =   200.89 Bohr mag/cell

     iteration #  3     ecut=    50.00 Ry     beta= 0.10
     Davidson diagonalization with overlap
     ethr =  1.00E-02,  avg # of iterations =  1.5

     negative rho (up, down):  2.835E-01 2.102E-07
 
     Adding external electric field

     Computed dipole along edir(3) : 
        Dipole               -2.0543 Ry au,         -5.2214 Debye
        Dipole field         -0.0013 Ry au, 
 
        Potential amp.        0.1379 Ry
        Total length         54.2615 bohr
 
 
     Adding external electric field

     Computed dipole along edir(3) : 
        Dipole               -2.0543 Ry au,         -5.2214 Debye
        Dipole field         -0.0013 Ry au, 
 
        Potential amp.        0.1379 Ry
        Total length         54.2615 bohr
 

     total cpu time spent up to now is       66.6 secs

     total energy              =   -7292.21348105 Ry
     estimated scf accuracy    <      98.39857423 Ry

     total magnetization       =   127.03 Bohr mag/cell
     absolute magnetization    =   180.14 Bohr mag/cell

     iteration #  4     ecut=    50.00 Ry     beta= 0.10
     Davidson diagonalization with overlap
     ethr =  9.13E-03,  avg # of iterations =  1.5

     negative rho (up, down):  2.163E-01 9.157E-08
 
     Adding external electric field

     Computed dipole along edir(3) : 
        Dipole               -2.0641 Ry au,         -5.2463 Debye
        Dipole field         -0.0013 Ry au, 
 
        Potential amp.        0.1385 Ry
        Total length         54.2615 bohr
 
 
     Adding external electric field

     Computed dipole along edir(3) : 
        Dipole               -2.0641 Ry au,         -5.2463 Debye
        Dipole field         -0.0013 Ry au, 
 
        Potential amp.        0.1385 Ry
        Total length         54.2615 bohr
 

     total cpu time spent up to now is       79.6 secs

     total energy              =   -7324.34174655 Ry
     estimated scf accuracy    <      78.84099180 Ry

     total magnetization       =   111.04 Bohr mag/cell
     absolute magnetization    =   165.44 Bohr mag/cell

     iteration #  5     ecut=    50.00 Ry     beta= 0.10
     Davidson diagonalization with overlap
     ethr =  7.31E-03,  avg # of iterations =  1.5

     negative rho (up, down):  1.489E-02 7.296E-08
 
     Adding external electric field

     Computed dipole along edir(3) : 
        Dipole               -1.6572 Ry au,         -4.2121 Debye
        Dipole field         -0.0010 Ry au, 
 
        Potential amp.        0.1112 Ry
        Total length         54.2615 bohr
 
 
     Adding external electric field

     Computed dipole along edir(3) : 
        Dipole               -1.6572 Ry au,         -4.2121 Debye
        Dipole field         -0.0010 Ry au, 
 
        Potential amp.        0.1112 Ry
        Total length         54.2615 bohr
 

     total cpu time spent up to now is       92.2 secs

     total energy              =   -7383.38972675 Ry
     estimated scf accuracy    <      63.34081315 Ry

     total magnetization       =    88.25 Bohr mag/cell
     absolute magnetization    =   147.05 Bohr mag/cell

     iteration #  6     ecut=    50.00 Ry     beta= 0.10
     Davidson diagonalization with overlap
     ethr =  5.88E-03,  avg # of iterations =  1.5

     negative rho (up, down):  3.965E-04 4.017E-04
 
     Adding external electric field

     Computed dipole along edir(3) : 
        Dipole               -1.2648 Ry au,         -3.2148 Debye
        Dipole field         -0.0008 Ry au, 
 
        Potential amp.        0.0849 Ry
        Total length         54.2615 bohr
 
 
     Adding external electric field

     Computed dipole along edir(3) : 
        Dipole               -1.2648 Ry au,         -3.2148 Debye
        Dipole field         -0.0008 Ry au, 
 
        Potential amp.        0.0849 Ry
        Total length         54.2615 bohr
 

     total cpu time spent up to now is      105.3 secs

     total energy              =   -7395.14728936 Ry
     estimated scf accuracy    <      13.47239906 Ry

     total magnetization       =    82.00 Bohr mag/cell
     absolute magnetization    =   118.11 Bohr mag/cell

     iteration #  7     ecut=    50.00 Ry     beta= 0.10
     Davidson diagonalization with overlap
     ethr =  1.25E-03,  avg # of iterations =  5.0

     negative rho (up, down):  3.608E-04 3.817E-04
 
     Adding external electric field

     Computed dipole along edir(3) : 
        Dipole               -1.2377 Ry au,         -3.1460 Debye
        Dipole field         -0.0008 Ry au, 
 
        Potential amp.        0.0831 Ry
        Total length         54.2615 bohr
 
 
     Adding external electric field

     Computed dipole along edir(3) : 
        Dipole               -1.2377 Ry au,         -3.1460 Debye
        Dipole field         -0.0008 Ry au, 
 
        Potential amp.        0.0831 Ry
        Total length         54.2615 bohr
 

     total cpu time spent up to now is      126.4 secs

     total energy              =   -7397.61572931 Ry
     estimated scf accuracy    <      13.67144808 Ry

     total magnetization       =    70.83 Bohr mag/cell
     absolute magnetization    =    88.52 Bohr mag/cell

     iteration #  8     ecut=    50.00 Ry     beta= 0.10
     Davidson diagonalization with overlap
     ethr =  1.25E-03,  avg # of iterations =  1.0

     negative rho (up, down):  1.787E-04 2.317E-04
 
     Adding external electric field

     Computed dipole along edir(3) : 
        Dipole               -1.0162 Ry au,         -2.5830 Debye
        Dipole field         -0.0006 Ry au, 
 
        Potential amp.        0.0682 Ry
        Total length         54.2615 bohr
 
 
     Adding external electric field

     Computed dipole along edir(3) : 
        Dipole               -1.0162 Ry au,         -2.5830 Debye
        Dipole field         -0.0006 Ry au, 
 
        Potential amp.        0.0682 Ry
        Total length         54.2615 bohr
 

     total cpu time spent up to now is      138.3 secs

     total energy              =   -7397.52323863 Ry
     estimated scf accuracy    <      12.92442087 Ry

     total magnetization       =    71.18 Bohr mag/cell
     absolute magnetization    =    88.55 Bohr mag/cell

     iteration #  9     ecut=    50.00 Ry     beta= 0.10
     Davidson diagonalization with overlap
     ethr =  1.20E-03,  avg # of iterations =  1.0

     negative rho (up, down):  1.065E-04 1.898E-04
 
     Adding external electric field

     Computed dipole along edir(3) : 
        Dipole               -0.8733 Ry au,         -2.2198 Debye
        Dipole field         -0.0005 Ry au, 
 
        Potential amp.        0.0586 Ry
        Total length         54.2615 bohr
 
 
     Adding external electric field

     Computed dipole along edir(3) : 
        Dipole               -0.8733 Ry au,         -2.2198 Debye
        Dipole field         -0.0005 Ry au, 
 
        Potential amp.        0.0586 Ry
        Total length         54.2615 bohr
 

     total cpu time spent up to now is      150.2 secs

     total energy              =   -7397.49945905 Ry
     estimated scf accuracy    <       8.18863763 Ry

     total magnetization       =    72.00 Bohr mag/cell
     absolute magnetization    =    87.94 Bohr mag/cell

     iteration # 10     ecut=    50.00 Ry     beta= 0.10
     Davidson diagonalization with overlap
     ethr =  7.60E-04,  avg # of iterations =  1.5

     negative rho (up, down):  8.843E-05 2.184E-04
 
     Adding external electric field

     Computed dipole along edir(3) : 
        Dipole               -0.8813 Ry au,         -2.2400 Debye
        Dipole field         -0.0005 Ry au, 
 
        Potential amp.        0.0591 Ry
        Total length         54.2615 bohr
 
 
     Adding external electric field

     Computed dipole along edir(3) : 
        Dipole               -0.8813 Ry au,         -2.2400 Debye
        Dipole field         -0.0005 Ry au, 
 
        Potential amp.        0.0591 Ry
        Total length         54.2615 bohr
 

     total cpu time spent up to now is      162.2 secs

     total energy              =   -7397.55583322 Ry
     estimated scf accuracy    <       4.12566504 Ry

     total magnetization       =    74.15 Bohr mag/cell
     absolute magnetization    =    88.28 Bohr mag/cell

     iteration # 11     ecut=    50.00 Ry     beta= 0.10
     Davidson diagonalization with overlap
     ethr =  3.83E-04,  avg # of iterations =  1.5

     negative rho (up, down):  4.919E-05 3.113E-04
 
     Adding external electric field

     Computed dipole along edir(3) : 
        Dipole               -0.8007 Ry au,         -2.0351 Debye
        Dipole field         -0.0005 Ry au, 
 
        Potential amp.        0.0537 Ry
        Total length         54.2615 bohr
 
 
     Adding external electric field

     Computed dipole along edir(3) : 
        Dipole               -0.8007 Ry au,         -2.0351 Debye
        Dipole field         -0.0005 Ry au, 
 
        Potential amp.        0.0537 Ry
        Total length         54.2615 bohr
 

     total cpu time spent up to now is      174.1 secs

     total energy              =   -7397.60746981 Ry
     estimated scf accuracy    <       2.14104547 Ry

     total magnetization       =    76.00 Bohr mag/cell
     absolute magnetization    =    88.80 Bohr mag/cell

     iteration # 12     ecut=    50.00 Ry     beta= 0.10
     Davidson diagonalization with overlap
     ethr =  1.99E-04,  avg # of iterations =  7.5

     negative rho (up, down):  1.111E-05 1.930E-04
 
     Adding external electric field

     Computed dipole along edir(3) : 
        Dipole               -0.6501 Ry au,         -1.6525 Debye
        Dipole field         -0.0004 Ry au, 
 
        Potential amp.        0.0436 Ry
        Total length         54.2615 bohr
 
 
     Adding external electric field

     Computed dipole along edir(3) : 
        Dipole               -0.6501 Ry au,         -1.6525 Debye
        Dipole field         -0.0004 Ry au, 
 
        Potential amp.        0.0436 Ry
        Total length         54.2615 bohr
 

     total cpu time spent up to now is      189.5 secs

     total energy              =   -7397.74968357 Ry
     estimated scf accuracy    <       1.19495144 Ry

     total magnetization       =    77.47 Bohr mag/cell
     absolute magnetization    =    88.55 Bohr mag/cell

     iteration # 13     ecut=    50.00 Ry     beta= 0.10
     Davidson diagonalization with overlap
     c_bands:  5 eigenvalues not converged
     ethr =  1.11E-04,  avg # of iterations = 11.0

     negative rho (up, down):  2.302E-05 2.648E-04
 
     Adding external electric field

     Computed dipole along edir(3) : 
        Dipole               -0.5766 Ry au,         -1.4656 Debye
        Dipole field         -0.0004 Ry au, 
 
        Potential amp.        0.0387 Ry
        Total length         54.2615 bohr
 
 
     Adding external electric field

     Computed dipole along edir(3) : 
        Dipole               -0.5766 Ry au,         -1.4656 Debye
        Dipole field         -0.0004 Ry au, 
 
        Potential amp.        0.0387 Ry
        Total length         54.2615 bohr
 

     total cpu time spent up to now is      208.8 secs

     total energy              =   -7397.89257572 Ry
     estimated scf accuracy    <       0.70206050 Ry

     total magnetization       =    79.16 Bohr mag/cell
     absolute magnetization    =    87.33 Bohr mag/cell

     iteration # 14     ecut=    50.00 Ry     beta= 0.10
     Davidson diagonalization with overlap
     ethr =  6.51E-05,  avg # of iterations =  2.0

     negative rho (up, down):  3.910E-06 3.083E-04
 
     Adding external electric field

     Computed dipole along edir(3) : 
        Dipole               -0.6850 Ry au,         -1.7412 Debye
        Dipole field         -0.0004 Ry au, 
 
        Potential amp.        0.0460 Ry
        Total length         54.2615 bohr
 
 
     Adding external electric field

     Computed dipole along edir(3) : 
        Dipole               -0.6850 Ry au,         -1.7412 Debye
        Dipole field         -0.0004 Ry au, 
 
        Potential amp.        0.0460 Ry
        Total length         54.2615 bohr
 

     total cpu time spent up to now is      221.7 secs

     total energy              =   -7397.86296529 Ry
     estimated scf accuracy    <       0.57662320 Ry

     total magnetization       =    81.13 Bohr mag/cell
     absolute magnetization    =    86.77 Bohr mag/cell

     iteration # 15     ecut=    50.00 Ry     beta= 0.10
     Davidson diagonalization with overlap
     ethr =  5.35E-05,  avg # of iterations = 12.5

     negative rho (up, down):  2.415E-05 4.522E-04
 
     Adding external electric field

     Computed dipole along edir(3) : 
        Dipole               -0.7002 Ry au,         -1.7798 Debye
        Dipole field         -0.0004 Ry au, 
 
        Potential amp.        0.0470 Ry
        Total length         54.2615 bohr
 
 
     Adding external electric field

     Computed dipole along edir(3) : 
        Dipole               -0.7002 Ry au,         -1.7798 Debye
        Dipole field         -0.0004 Ry au, 
 
        Potential amp.        0.0470 Ry
        Total length         54.2615 bohr
 

     total cpu time spent up to now is      245.3 secs

     total energy              =   -7397.93868247 Ry
     estimated scf accuracy    <       0.36494043 Ry

     total magnetization       =    78.76 Bohr mag/cell
     absolute magnetization    =    84.48 Bohr mag/cell

     iteration # 16     ecut=    50.00 Ry     beta= 0.10
     Davidson diagonalization with overlap
     ethr =  3.39E-05,  avg # of iterations =  1.5

     negative rho (up, down):  1.039E-04 9.465E-04
 
     Adding external electric field

     Computed dipole along edir(3) : 
        Dipole               -0.7391 Ry au,         -1.8785 Debye
        Dipole field         -0.0005 Ry au, 
 
        Potential amp.        0.0496 Ry
        Total length         54.2615 bohr
 
 
     Adding external electric field

     Computed dipole along edir(3) : 
        Dipole               -0.7391 Ry au,         -1.8785 Debye
        Dipole field         -0.0005 Ry au, 
 
        Potential amp.        0.0496 Ry
        Total length         54.2615 bohr
 

     total cpu time spent up to now is      256.9 secs

     total energy              =   -7397.95929592 Ry
     estimated scf accuracy    <       0.30498051 Ry

     total magnetization       =    79.82 Bohr mag/cell
     absolute magnetization    =    84.21 Bohr mag/cell

     iteration # 17     ecut=    50.00 Ry     beta= 0.10
     Davidson diagonalization with overlap
     ethr =  2.83E-05,  avg # of iterations =  2.0

     negative rho (up, down):  1.037E-04 3.907E-04
 
     Adding external electric field

     Computed dipole along edir(3) : 
        Dipole               -0.6098 Ry au,         -1.5499 Debye
        Dipole field         -0.0004 Ry au, 
 
        Potential amp.        0.0409 Ry
        Total length         54.2615 bohr
 
 
     Adding external electric field

     Computed dipole along edir(3) : 
        Dipole               -0.6098 Ry au,         -1.5499 Debye
        Dipole field         -0.0004 Ry au, 
 
        Potential amp.        0.0409 Ry
        Total length         54.2615 bohr
 

     total cpu time spent up to now is      269.7 secs

     total energy              =   -7398.01366672 Ry
     estimated scf accuracy    <       0.54378613 Ry

     total magnetization       =    79.77 Bohr mag/cell
     absolute magnetization    =    82.88 Bohr mag/cell

     iteration # 18     ecut=    50.00 Ry     beta= 0.10
     Davidson diagonalization with overlap
     ethr =  2.83E-05,  avg # of iterations =  1.5

     negative rho (up, down):  1.455E-04 1.850E-04
 
     Adding external electric field

     Computed dipole along edir(3) : 
        Dipole               -0.6423 Ry au,         -1.6327 Debye
        Dipole field         -0.0004 Ry au, 
 
        Potential amp.        0.0431 Ry
        Total length         54.2615 bohr
 
 
     Adding external electric field

     Computed dipole along edir(3) : 
        Dipole               -0.6423 Ry au,         -1.6327 Debye
        Dipole field         -0.0004 Ry au, 
 
        Potential amp.        0.0431 Ry
        Total length         54.2615 bohr
 

     total cpu time spent up to now is      281.8 secs

     total energy              =   -7398.03273879 Ry
     estimated scf accuracy    <       0.21306939 Ry

     total magnetization       =    81.14 Bohr mag/cell
     absolute magnetization    =    83.75 Bohr mag/cell

     iteration # 19     ecut=    50.00 Ry     beta= 0.10
     Davidson diagonalization with overlap
     c_bands:  1 eigenvalues not converged
     ethr =  1.98E-05,  avg # of iterations = 11.0

     negative rho (up, down):  4.212E-05 1.002E-05
 
     Adding external electric field

     Computed dipole along edir(3) : 
        Dipole               -0.6042 Ry au,         -1.5357 Debye
        Dipole field         -0.0004 Ry au, 
 
        Potential amp.        0.0406 Ry
        Total length         54.2615 bohr
 
 
     Adding external electric field

     Computed dipole along edir(3) : 
        Dipole               -0.6042 Ry au,         -1.5357 Debye
        Dipole field         -0.0004 Ry au, 
 
        Potential amp.        0.0406 Ry
        Total length         54.2615 bohr
 

     total cpu time spent up to now is      299.8 secs

     total energy              =   -7398.02945100 Ry
     estimated scf accuracy    <       0.13080103 Ry

     total magnetization       =    80.52 Bohr mag/cell
     absolute magnetization    =    82.35 Bohr mag/cell

     iteration # 20     ecut=    50.00 Ry     beta= 0.10
     Davidson diagonalization with overlap
     ethr =  1.21E-05,  avg # of iterations =  2.0

     negative rho (up, down):  8.911E-06 1.995E-06
 
     Adding external electric field

     Computed dipole along edir(3) : 
        Dipole               -0.5665 Ry au,         -1.4398 Debye
        Dipole field         -0.0004 Ry au, 
 
        Potential amp.        0.0380 Ry
        Total length         54.2615 bohr
 
 
     Adding external electric field

     Computed dipole along edir(3) : 
        Dipole               -0.5665 Ry au,         -1.4398 Debye
        Dipole field         -0.0004 Ry au, 
 
        Potential amp.        0.0380 Ry
        Total length         54.2615 bohr
 

     total cpu time spent up to now is      313.1 secs

     total energy              =   -7398.03164496 Ry
     estimated scf accuracy    <       0.07348423 Ry

     total magnetization       =    80.75 Bohr mag/cell
     absolute magnetization    =    82.56 Bohr mag/cell

     iteration # 21     ecut=    50.00 Ry     beta= 0.10
     Davidson diagonalization with overlap
     ethr =  6.82E-06,  avg # of iterations = 20.0

     negative rho (up, down):  1.115E-06 3.141E-06
 
     Adding external electric field

     Computed dipole along edir(3) : 
        Dipole               -0.4577 Ry au,         -1.1634 Debye
        Dipole field         -0.0003 Ry au, 
 
        Potential amp.        0.0307 Ry
        Total length         54.2615 bohr
 
 
     Adding external electric field

     Computed dipole along edir(3) : 
        Dipole               -0.4577 Ry au,         -1.1634 Debye
        Dipole field         -0.0003 Ry au, 
 
        Potential amp.        0.0307 Ry
        Total length         54.2615 bohr
 

     total cpu time spent up to now is      339.5 secs

     total energy              =   -7398.03249498 Ry
     estimated scf accuracy    <       0.02838573 Ry

     total magnetization       =    80.22 Bohr mag/cell
     absolute magnetization    =    81.86 Bohr mag/cell

     iteration # 22     ecut=    50.00 Ry     beta= 0.10
     Davidson diagonalization with overlap
     c_bands:  1 eigenvalues not converged
     c_bands:  5 eigenvalues not converged
     ethr =  2.63E-06,  avg # of iterations = 20.0

     negative rho (up, down):  2.810E-06 5.174E-06
 
     Adding external electric field

     Computed dipole along edir(3) : 
        Dipole               -0.5032 Ry au,         -1.2789 Debye
        Dipole field         -0.0003 Ry au, 
 
        Potential amp.        0.0338 Ry
        Total length         54.2615 bohr
 
 
     Adding external electric field

     Computed dipole along edir(3) : 
        Dipole               -0.5032 Ry au,         -1.2789 Debye
        Dipole field         -0.0003 Ry au, 
 
        Potential amp.        0.0338 Ry
        Total length         54.2615 bohr
 

     total cpu time spent up to now is      366.9 secs

     total energy              =   -7398.03357115 Ry
     estimated scf accuracy    <       0.15555880 Ry

     total magnetization       =    80.13 Bohr mag/cell
     absolute magnetization    =    81.52 Bohr mag/cell

     iteration # 23     ecut=    50.00 Ry     beta= 0.10
     Davidson diagonalization with overlap
     c_bands:  1 eigenvalues not converged
     ethr =  2.63E-06,  avg # of iterations = 10.5

     negative rho (up, down):  1.187E-08 2.102E-08
 
     Adding external electric field

     Computed dipole along edir(3) : 
        Dipole               -0.4478 Ry au,         -1.1383 Debye
        Dipole field         -0.0003 Ry au, 
 
        Potential amp.        0.0301 Ry
        Total length         54.2615 bohr
 
 
     Adding external electric field

     Computed dipole along edir(3) : 
        Dipole               -0.4478 Ry au,         -1.1383 Debye
        Dipole field         -0.0003 Ry au, 
 
        Potential amp.        0.0301 Ry
        Total length         54.2615 bohr
 

     total cpu time spent up to now is      382.9 secs

     total energy              =   -7398.03359174 Ry
     estimated scf accuracy    <       0.03014061 Ry

     total magnetization       =    80.27 Bohr mag/cell
     absolute magnetization    =    81.68 Bohr mag/cell

     iteration # 24     ecut=    50.00 Ry     beta= 0.10
     Davidson diagonalization with overlap
     ethr =  2.63E-06,  avg # of iterations =  1.5

     negative rho (up, down):  2.421E-08 2.803E-08
 
     Adding external electric field

     Computed dipole along edir(3) : 
        Dipole               -0.4123 Ry au,         -1.0479 Debye
        Dipole field         -0.0003 Ry au, 
 
        Potential amp.        0.0277 Ry
        Total length         54.2615 bohr
 
 
     Adding external electric field

     Computed dipole along edir(3) : 
        Dipole               -0.4123 Ry au,         -1.0479 Debye
        Dipole field         -0.0003 Ry au, 
 
        Potential amp.        0.0277 Ry
        Total length         54.2615 bohr
 

     total cpu time spent up to now is      394.6 secs

     total energy              =   -7398.03370528 Ry
     estimated scf accuracy    <       0.05947564 Ry

     total magnetization       =    79.72 Bohr mag/cell
     absolute magnetization    =    81.20 Bohr mag/cell

     iteration # 25     ecut=    50.00 Ry     beta= 0.10
     Davidson diagonalization with overlap
     ethr =  2.63E-06,  avg # of iterations =  1.5

     negative rho (up, down):  2.741E-08 4.064E-08
 
     Adding external electric field

     Computed dipole along edir(3) : 
        Dipole               -0.3907 Ry au,         -0.9931 Debye
        Dipole field         -0.0002 Ry au, 
 
        Potential amp.        0.0262 Ry
        Total length         54.2615 bohr
 
 
     Adding external electric field

     Computed dipole along edir(3) : 
        Dipole               -0.3907 Ry au,         -0.9931 Debye
        Dipole field         -0.0002 Ry au, 
 
        Potential amp.        0.0262 Ry
        Total length         54.2615 bohr
 

     total cpu time spent up to now is      405.9 secs

     total energy              =   -7398.03387255 Ry
     estimated scf accuracy    <       0.04501567 Ry

     total magnetization       =    80.01 Bohr mag/cell
     absolute magnetization    =    81.50 Bohr mag/cell

     iteration # 26     ecut=    50.00 Ry     beta= 0.10
     Davidson diagonalization with overlap
     ethr =  2.63E-06,  avg # of iterations =  1.0

     negative rho (up, down):  4.267E-07 9.012E-07
 
     Adding external electric field

     Computed dipole along edir(3) : 
        Dipole               -0.3231 Ry au,         -0.8213 Debye
        Dipole field         -0.0002 Ry au, 
 
        Potential amp.        0.0217 Ry
        Total length         54.2615 bohr
 
 
     Adding external electric field

     Computed dipole along edir(3) : 
        Dipole               -0.3231 Ry au,         -0.8213 Debye
        Dipole field         -0.0002 Ry au, 
 
        Potential amp.        0.0217 Ry
        Total length         54.2615 bohr
 

     total cpu time spent up to now is      416.5 secs

     total energy              =   -7398.03308876 Ry
     estimated scf accuracy    <       0.05119383 Ry

     total magnetization       =    79.89 Bohr mag/cell
     absolute magnetization    =    81.39 Bohr mag/cell

     iteration # 27     ecut=    50.00 Ry     beta= 0.10
     Davidson diagonalization with overlap
     ethr =  2.63E-06,  avg # of iterations =  2.0

     negative rho (up, down):  6.137E-07 1.221E-06
 
     Adding external electric field

     Computed dipole along edir(3) : 
        Dipole               -0.2893 Ry au,         -0.7352 Debye
        Dipole field         -0.0002 Ry au, 
 
        Potential amp.        0.0194 Ry
        Total length         54.2615 bohr
 
 
     Adding external electric field

     Computed dipole along edir(3) : 
        Dipole               -0.2893 Ry au,         -0.7352 Debye
        Dipole field         -0.0002 Ry au, 
 
        Potential amp.        0.0194 Ry
        Total length         54.2615 bohr
 

     total cpu time spent up to now is      428.5 secs

     total energy              =   -7398.03293024 Ry
     estimated scf accuracy    <       0.04266919 Ry

     total magnetization       =    79.92 Bohr mag/cell
     absolute magnetization    =    81.43 Bohr mag/cell

     iteration # 28     ecut=    50.00 Ry     beta= 0.10
     Davidson diagonalization with overlap
     ethr =  2.63E-06,  avg # of iterations =  1.5

     negative rho (up, down):  1.917E-06 2.237E-06
 
     Adding external electric field

     Computed dipole along edir(3) : 
        Dipole               -0.3007 Ry au,         -0.7644 Debye
        Dipole field         -0.0002 Ry au, 
 
        Potential amp.        0.0202 Ry
        Total length         54.2615 bohr
 
 
     Adding external electric field

     Computed dipole along edir(3) : 
        Dipole               -0.3007 Ry au,         -0.7644 Debye
        Dipole field         -0.0002 Ry au, 
 
        Potential amp.        0.0202 Ry
        Total length         54.2615 bohr
 

     total cpu time spent up to now is      439.6 secs

     total energy              =   -7398.03242822 Ry
     estimated scf accuracy    <       0.04871416 Ry

     total magnetization       =    79.85 Bohr mag/cell
     absolute magnetization    =    81.34 Bohr mag/cell

     iteration # 29     ecut=    50.00 Ry     beta= 0.10
     Davidson diagonalization with overlap
     ethr =  2.63E-06,  avg # of iterations =  1.5

     negative rho (up, down):  1.696E-06 1.216E-06
 
     Adding external electric field

     Computed dipole along edir(3) : 
        Dipole               -0.2896 Ry au,         -0.7362 Debye
        Dipole field         -0.0002 Ry au, 
 
        Potential amp.        0.0194 Ry
        Total length         54.2615 bohr
 
 
     Adding external electric field

     Computed dipole along edir(3) : 
        Dipole               -0.2896 Ry au,         -0.7362 Debye
        Dipole field         -0.0002 Ry au, 
 
        Potential amp.        0.0194 Ry
        Total length         54.2615 bohr
 

     total cpu time spent up to now is      450.9 secs

     total energy              =   -7398.03228750 Ry
     estimated scf accuracy    <       0.02023823 Ry

     total magnetization       =    80.08 Bohr mag/cell
     absolute magnetization    =    81.54 Bohr mag/cell

     iteration # 30     ecut=    50.00 Ry     beta= 0.10
     Davidson diagonalization with overlap
     ethr =  1.88E-06,  avg # of iterations =  1.5

     negative rho (up, down):  1.757E-06 1.060E-06
 
     Adding external electric field

     Computed dipole along edir(3) : 
        Dipole               -0.2852 Ry au,         -0.7248 Debye
        Dipole field         -0.0002 Ry au, 
 
        Potential amp.        0.0191 Ry
        Total length         54.2615 bohr
 
 
     Adding external electric field

     Computed dipole along edir(3) : 
        Dipole               -0.2852 Ry au,         -0.7248 Debye
        Dipole field         -0.0002 Ry au, 
 
        Potential amp.        0.0191 Ry
        Total length         54.2615 bohr
 

     total cpu time spent up to now is      462.2 secs

     total energy              =   -7398.03226212 Ry
     estimated scf accuracy    <       0.02088428 Ry

     total magnetization       =    80.12 Bohr mag/cell
     absolute magnetization    =    81.54 Bohr mag/cell

     iteration # 31     ecut=    50.00 Ry     beta= 0.10
     Davidson diagonalization with overlap
     ethr =  1.88E-06,  avg # of iterations =  1.0

     negative rho (up, down):  1.673E-06 9.783E-07
 
     Adding external electric field

     Computed dipole along edir(3) : 
        Dipole               -0.2915 Ry au,         -0.7410 Debye
        Dipole field         -0.0002 Ry au, 
 
        Potential amp.        0.0196 Ry
        Total length         54.2615 bohr
 
 
     Adding external electric field

     Computed dipole along edir(3) : 
        Dipole               -0.2915 Ry au,         -0.7410 Debye
        Dipole field         -0.0002 Ry au, 
 
        Potential amp.        0.0196 Ry
        Total length         54.2615 bohr
 

     total cpu time spent up to now is      472.8 secs

     total energy              =   -7398.03231976 Ry
     estimated scf accuracy    <       0.02038142 Ry

     total magnetization       =    80.11 Bohr mag/cell
     absolute magnetization    =    81.53 Bohr mag/cell

     iteration # 32     ecut=    50.00 Ry     beta= 0.10
     Davidson diagonalization with overlap
     ethr =  1.88E-06,  avg # of iterations =  1.5

     negative rho (up, down):  2.752E-06 1.516E-06
 
     Adding external electric field

     Computed dipole along edir(3) : 
        Dipole               -0.2558 Ry au,         -0.6502 Debye
        Dipole field         -0.0002 Ry au, 
 
        Potential amp.        0.0172 Ry
        Total length         54.2615 bohr
 
 
     Adding external electric field

     Computed dipole along edir(3) : 
        Dipole               -0.2558 Ry au,         -0.6502 Debye
        Dipole field         -0.0002 Ry au, 
 
        Potential amp.        0.0172 Ry
        Total length         54.2615 bohr
 

     total cpu time spent up to now is      483.9 secs

     total energy              =   -7398.03191013 Ry
     estimated scf accuracy    <       0.02078993 Ry

     total magnetization       =    80.13 Bohr mag/cell
     absolute magnetization    =    81.55 Bohr mag/cell

     iteration # 33     ecut=    50.00 Ry     beta= 0.10
     Davidson diagonalization with overlap
     ethr =  1.88E-06,  avg # of iterations =  1.5

     negative rho (up, down):  4.105E-06 2.609E-06
 
     Adding external electric field

     Computed dipole along edir(3) : 
        Dipole               -0.2443 Ry au,         -0.6209 Debye
        Dipole field         -0.0002 Ry au, 
 
        Potential amp.        0.0164 Ry
        Total length         54.2615 bohr
 
 
     Adding external electric field

     Computed dipole along edir(3) : 
        Dipole               -0.2443 Ry au,         -0.6209 Debye
        Dipole field         -0.0002 Ry au, 
 
        Potential amp.        0.0164 Ry
        Total length         54.2615 bohr
 

     total cpu time spent up to now is      495.0 secs

     total energy              =   -7398.03184904 Ry
     estimated scf accuracy    <       0.02108200 Ry

     total magnetization       =    80.12 Bohr mag/cell
     absolute magnetization    =    81.52 Bohr mag/cell

     iteration # 34     ecut=    50.00 Ry     beta= 0.10
     Davidson diagonalization with overlap
     ethr =  1.88E-06,  avg # of iterations =  1.5

     negative rho (up, down):  1.082E-05 6.322E-06
 
     Adding external electric field

     Computed dipole along edir(3) : 
        Dipole               -0.2228 Ry au,         -0.5663 Debye
        Dipole field         -0.0001 Ry au, 
 
        Potential amp.        0.0150 Ry
        Total length         54.2615 bohr
 
 
     Adding external electric field

     Computed dipole along edir(3) : 
        Dipole               -0.2228 Ry au,         -0.5663 Debye
        Dipole field         -0.0001 Ry au, 
 
        Potential amp.        0.0150 Ry
        Total length         54.2615 bohr
 

     total cpu time spent up to now is      506.3 secs

     total energy              =   -7398.03174796 Ry
     estimated scf accuracy    <       0.02099851 Ry

     total magnetization       =    80.12 Bohr mag/cell
     absolute magnetization    =    81.51 Bohr mag/cell

     iteration # 35     ecut=    50.00 Ry     beta= 0.10
     Davidson diagonalization with overlap
     ethr =  1.88E-06,  avg # of iterations =  2.0

     negative rho (up, down):  6.366E-06 3.946E-06
 
     Adding external electric field

     Computed dipole along edir(3) : 
        Dipole               -0.2396 Ry au,         -0.6090 Debye
        Dipole field         -0.0001 Ry au, 
 
        Potential amp.        0.0161 Ry
        Total length         54.2615 bohr
 
 
     Adding external electric field

     Computed dipole along edir(3) : 
        Dipole               -0.2396 Ry au,         -0.6090 Debye
        Dipole field         -0.0001 Ry au, 
 
        Potential amp.        0.0161 Ry
        Total length         54.2615 bohr
 

     total cpu time spent up to now is      518.2 secs

     total energy              =   -7398.03185895 Ry
     estimated scf accuracy    <       0.02202772 Ry

     total magnetization       =    80.12 Bohr mag/cell
     absolute magnetization    =    81.52 Bohr mag/cell

     iteration # 36     ecut=    50.00 Ry     beta= 0.10
     Davidson diagonalization with overlap
     ethr =  1.88E-06,  avg # of iterations =  1.0

     negative rho (up, down):  3.383E-05 2.116E-05
 
     Adding external electric field

     Computed dipole along edir(3) : 
        Dipole               -0.1657 Ry au,         -0.4211 Debye
        Dipole field         -0.0001 Ry au, 
 
        Potential amp.        0.0111 Ry
        Total length         54.2615 bohr
 
 
     Adding external electric field

     Computed dipole along edir(3) : 
        Dipole               -0.1657 Ry au,         -0.4211 Debye
        Dipole field         -0.0001 Ry au, 
 
        Potential amp.        0.0111 Ry
        Total length         54.2615 bohr
 

     total cpu time spent up to now is      528.7 secs

     total energy              =   -7398.03120796 Ry
     estimated scf accuracy    <       0.02211057 Ry

     total magnetization       =    80.11 Bohr mag/cell
     absolute magnetization    =    81.50 Bohr mag/cell

     iteration # 37     ecut=    50.00 Ry     beta= 0.10
     Davidson diagonalization with overlap
     ethr =  1.88E-06,  avg # of iterations =  2.0

     negative rho (up, down):  7.142E-05 5.593E-05
 
     Adding external electric field

     Computed dipole along edir(3) : 
        Dipole               -0.1498 Ry au,         -0.3808 Debye
        Dipole field         -0.0001 Ry au, 
 
        Potential amp.        0.0101 Ry
        Total length         54.2615 bohr
 
 
     Adding external electric field

     Computed dipole along edir(3) : 
        Dipole               -0.1498 Ry au,         -0.3808 Debye
        Dipole field         -0.0001 Ry au, 
 
        Potential amp.        0.0101 Ry
        Total length         54.2615 bohr
 

     total cpu time spent up to now is      540.8 secs

     total energy              =   -7398.03092900 Ry
     estimated scf accuracy    <       0.01749819 Ry

     total magnetization       =    80.14 Bohr mag/cell
     absolute magnetization    =    81.56 Bohr mag/cell

     iteration # 38     ecut=    50.00 Ry     beta= 0.10
     Davidson diagonalization with overlap
     ethr =  1.62E-06,  avg # of iterations =  2.0

     negative rho (up, down):  1.505E-03 1.519E-03
 
     Adding external electric field

     Computed dipole along edir(3) : 
        Dipole               -0.0148 Ry au,         -0.0377 Debye
        Dipole field         -0.0000 Ry au, 
 
        Potential amp.        0.0010 Ry
        Total length         54.2615 bohr
 
 
     Adding external electric field

     Computed dipole along edir(3) : 
        Dipole               -0.0148 Ry au,         -0.0377 Debye
        Dipole field         -0.0000 Ry au, 
 
        Potential amp.        0.0010 Ry
        Total length         54.2615 bohr
 

     total cpu time spent up to now is      552.6 secs

     total energy              =   -7398.02976939 Ry
     estimated scf accuracy    <       0.01412911 Ry

     total magnetization       =    80.12 Bohr mag/cell
     absolute magnetization    =    81.58 Bohr mag/cell

     iteration # 39     ecut=    50.00 Ry     beta= 0.10
     Davidson diagonalization with overlap
     ethr =  1.31E-06,  avg # of iterations = 12.5

     negative rho (up, down):  1.604E-03 1.765E-03
 
     Adding external electric field

     Computed dipole along edir(3) : 
        Dipole                0.0072 Ry au,          0.0184 Debye
        Dipole field          0.0000 Ry au, 
 
        Potential amp.       -0.0005 Ry
        Total length         54.2615 bohr
 
 
     Adding external electric field

     Computed dipole along edir(3) : 
        Dipole                0.0072 Ry au,          0.0184 Debye
        Dipole field          0.0000 Ry au, 
 
        Potential amp.       -0.0005 Ry
        Total length         54.2615 bohr
 

     total cpu time spent up to now is      569.2 secs

     total energy              =   -7398.02980797 Ry
     estimated scf accuracy    <       0.01054117 Ry

     total magnetization       =    80.09 Bohr mag/cell
     absolute magnetization    =    81.67 Bohr mag/cell

     iteration # 40     ecut=    50.00 Ry     beta= 0.10
     Davidson diagonalization with overlap
     ethr =  9.78E-07,  avg # of iterations =  2.0

     negative rho (up, down):  2.229E-03 2.232E-03
 
     Adding external electric field

     Computed dipole along edir(3) : 
        Dipole                0.0117 Ry au,          0.0297 Debye
        Dipole field          0.0000 Ry au, 
 
        Potential amp.       -0.0008 Ry
        Total length         54.2615 bohr
 
 
     Adding external electric field

     Computed dipole along edir(3) : 
        Dipole                0.0117 Ry au,          0.0297 Debye
        Dipole field          0.0000 Ry au, 
 
        Potential amp.       -0.0008 Ry
        Total length         54.2615 bohr
 

     total cpu time spent up to now is      580.9 secs

     total energy              =   -7398.03004423 Ry
     estimated scf accuracy    <       0.01037029 Ry

     total magnetization       =    80.09 Bohr mag/cell
     absolute magnetization    =    81.72 Bohr mag/cell

     iteration # 41     ecut=    50.00 Ry     beta= 0.10
     Davidson diagonalization with overlap
     c_bands:  1 eigenvalues not converged
     ethr =  9.62E-07,  avg # of iterations = 20.5

     negative rho (up, down):  4.342E-03 4.405E-03
 
     Adding external electric field

     Computed dipole along edir(3) : 
        Dipole                0.0613 Ry au,          0.1557 Debye
        Dipole field          0.0000 Ry au, 
 
        Potential amp.       -0.0041 Ry
        Total length         54.2615 bohr
 
 
     Adding external electric field

     Computed dipole along edir(3) : 
        Dipole                0.0613 Ry au,          0.1557 Debye
        Dipole field          0.0000 Ry au, 
 
        Potential amp.       -0.0041 Ry
        Total length         54.2615 bohr
 

     total cpu time spent up to now is      606.1 secs

     total energy              =   -7398.03010240 Ry
     estimated scf accuracy    <       0.01024427 Ry

     total magnetization       =    80.12 Bohr mag/cell
     absolute magnetization    =    81.73 Bohr mag/cell

     iteration # 42     ecut=    50.00 Ry     beta= 0.10
     Davidson diagonalization with overlap
     ethr =  9.50E-07,  avg # of iterations =  2.0

     negative rho (up, down):  1.204E-03 1.237E-03
 
     Adding external electric field

     Computed dipole along edir(3) : 
        Dipole                0.0123 Ry au,          0.0312 Debye
        Dipole field          0.0000 Ry au, 
 
        Potential amp.       -0.0008 Ry
        Total length         54.2615 bohr
 
 
     Adding external electric field

     Computed dipole along edir(3) : 
        Dipole                0.0123 Ry au,          0.0312 Debye
        Dipole field          0.0000 Ry au, 
 
        Potential amp.       -0.0008 Ry
        Total length         54.2615 bohr
 

     total cpu time spent up to now is      617.9 secs

     total energy              =   -7398.02983145 Ry
     estimated scf accuracy    <       0.01114424 Ry

     total magnetization       =    80.12 Bohr mag/cell
     absolute magnetization    =    81.68 Bohr mag/cell

     iteration # 43     ecut=    50.00 Ry     beta= 0.10
     Davidson diagonalization with overlap
     ethr =  9.50E-07,  avg # of iterations =  2.0

     negative rho (up, down):  1.383E-03 1.429E-03
 
     Adding external electric field

     Computed dipole along edir(3) : 
        Dipole                0.0603 Ry au,          0.1534 Debye
        Dipole field          0.0000 Ry au, 
 
        Potential amp.       -0.0041 Ry
        Total length         54.2615 bohr
 
 
     Adding external electric field

     Computed dipole along edir(3) : 
        Dipole                0.0603 Ry au,          0.1534 Debye
        Dipole field          0.0000 Ry au, 
 
        Potential amp.       -0.0041 Ry
        Total length         54.2615 bohr
 

     total cpu time spent up to now is      628.8 secs

     total energy              =   -7398.02980853 Ry
     estimated scf accuracy    <       0.00925214 Ry

     total magnetization       =    80.13 Bohr mag/cell
     absolute magnetization    =    81.74 Bohr mag/cell

     iteration # 44     ecut=    50.00 Ry     beta= 0.10
     Davidson diagonalization with overlap
     ethr =  8.58E-07,  avg # of iterations =  1.5

     negative rho (up, down):  1.270E-03 1.293E-03
 
     Adding external electric field

     Computed dipole along edir(3) : 
        Dipole                0.0345 Ry au,          0.0878 Debye
        Dipole field          0.0000 Ry au, 
 
        Potential amp.       -0.0023 Ry
        Total length         54.2615 bohr
 
 
     Adding external electric field

     Computed dipole along edir(3) : 
        Dipole                0.0345 Ry au,          0.0878 Debye
        Dipole field          0.0000 Ry au, 
 
        Potential amp.       -0.0023 Ry
        Total length         54.2615 bohr
 

     total cpu time spent up to now is      639.3 secs

     total energy              =   -7398.02966863 Ry
     estimated scf accuracy    <       0.00922403 Ry

     total magnetization       =    80.11 Bohr mag/cell
     absolute magnetization    =    81.75 Bohr mag/cell

     iteration # 45     ecut=    50.00 Ry     beta= 0.10
     Davidson diagonalization with overlap
     ethr =  8.56E-07,  avg # of iterations =  1.5

     negative rho (up, down):  6.603E-04 7.290E-04
 
     Adding external electric field

     Computed dipole along edir(3) : 
        Dipole               -0.0160 Ry au,         -0.0406 Debye
        Dipole field         -0.0000 Ry au, 
 
        Potential amp.        0.0011 Ry
        Total length         54.2615 bohr
 
 
     Adding external electric field

     Computed dipole along edir(3) : 
        Dipole               -0.0160 Ry au,         -0.0406 Debye
        Dipole field         -0.0000 Ry au, 
 
        Potential amp.        0.0011 Ry
        Total length         54.2615 bohr
 

     total cpu time spent up to now is      649.6 secs

     total energy              =   -7398.02975975 Ry
     estimated scf accuracy    <       0.00915503 Ry

     total magnetization       =    80.13 Bohr mag/cell
     absolute magnetization    =    81.79 Bohr mag/cell

     iteration # 46     ecut=    50.00 Ry     beta= 0.10
     Davidson diagonalization with overlap
     ethr =  8.49E-07,  avg # of iterations =  2.0

     negative rho (up, down):  1.316E-03 1.313E-03
 
     Adding external electric field

     Computed dipole along edir(3) : 
        Dipole                0.1062 Ry au,          0.2699 Debye
        Dipole field          0.0001 Ry au, 
 
        Potential amp.       -0.0071 Ry
        Total length         54.2615 bohr
 
 
     Adding external electric field

     Computed dipole along edir(3) : 
        Dipole                0.1062 Ry au,          0.2699 Debye
        Dipole field          0.0001 Ry au, 
 
        Potential amp.       -0.0071 Ry
        Total length         54.2615 bohr
 

     total cpu time spent up to now is      661.6 secs

     total energy              =   -7398.02962640 Ry
     estimated scf accuracy    <       0.00973901 Ry

     total magnetization       =    80.10 Bohr mag/cell
     absolute magnetization    =    81.75 Bohr mag/cell

     iteration # 47     ecut=    50.00 Ry     beta= 0.10
     Davidson diagonalization with overlap
     ethr =  8.49E-07,  avg # of iterations =  2.0

     negative rho (up, down):  1.254E-03 1.256E-03
 
     Adding external electric field

     Computed dipole along edir(3) : 
        Dipole                0.0537 Ry au,          0.1365 Debye
        Dipole field          0.0000 Ry au, 
 
        Potential amp.       -0.0036 Ry
        Total length         54.2615 bohr
 
 
     Adding external electric field

     Computed dipole along edir(3) : 
        Dipole                0.0537 Ry au,          0.1365 Debye
        Dipole field          0.0000 Ry au, 
 
        Potential amp.       -0.0036 Ry
        Total length         54.2615 bohr
 

     total cpu time spent up to now is      674.6 secs

     total energy              =   -7398.02982600 Ry
     estimated scf accuracy    <       0.00955510 Ry

     total magnetization       =    80.15 Bohr mag/cell
     absolute magnetization    =    81.81 Bohr mag/cell

     iteration # 48     ecut=    50.00 Ry     beta= 0.10
     Davidson diagonalization with overlap
     ethr =  8.49E-07,  avg # of iterations =  1.5

     negative rho (up, down):  1.738E-03 1.868E-03
 
     Adding external electric field

     Computed dipole along edir(3) : 
        Dipole                0.1156 Ry au,          0.2938 Debye
        Dipole field          0.0001 Ry au, 
 
        Potential amp.       -0.0078 Ry
        Total length         54.2615 bohr
 
 
     Adding external electric field

     Computed dipole along edir(3) : 
        Dipole                0.1156 Ry au,          0.2938 Debye
        Dipole field          0.0001 Ry au, 
 
        Potential amp.       -0.0078 Ry
        Total length         54.2615 bohr
 

     total cpu time spent up to now is      687.2 secs

     total energy              =   -7398.02914528 Ry
     estimated scf accuracy    <       0.00960480 Ry

     total magnetization       =    80.13 Bohr mag/cell
     absolute magnetization    =    81.79 Bohr mag/cell

     iteration # 49     ecut=    50.00 Ry     beta= 0.10
     Davidson diagonalization with overlap
     ethr =  8.49E-07,  avg # of iterations =  2.0

     negative rho (up, down):  1.454E-03 1.697E-03
 
     Adding external electric field

     Computed dipole along edir(3) : 
        Dipole                0.1112 Ry au,          0.2826 Debye
        Dipole field          0.0001 Ry au, 
 
        Potential amp.       -0.0075 Ry
        Total length         54.2615 bohr
 
 
     Adding external electric field

     Computed dipole along edir(3) : 
        Dipole                0.1112 Ry au,          0.2826 Debye
        Dipole field          0.0001 Ry au, 
 
        Potential amp.       -0.0075 Ry
        Total length         54.2615 bohr
 

     total cpu time spent up to now is      700.5 secs

     total energy              =   -7398.02878660 Ry
     estimated scf accuracy    <       0.00763269 Ry

     total magnetization       =    80.13 Bohr mag/cell
     absolute magnetization    =    81.83 Bohr mag/cell

     iteration # 50     ecut=    50.00 Ry     beta= 0.10
     Davidson diagonalization with overlap
     ethr =  7.08E-07,  avg # of iterations =  2.0

     negative rho (up, down):  1.215E-03 1.428E-03
 
     Adding external electric field

     Computed dipole along edir(3) : 
        Dipole                0.1007 Ry au,          0.2560 Debye
        Dipole field          0.0001 Ry au, 
 
        Potential amp.       -0.0068 Ry
        Total length         54.2615 bohr
 
 
     Adding external electric field

     Computed dipole along edir(3) : 
        Dipole                0.1007 Ry au,          0.2560 Debye
        Dipole field          0.0001 Ry au, 
 
        Potential amp.       -0.0068 Ry
        Total length         54.2615 bohr
 

     total cpu time spent up to now is      713.9 secs

     total energy              =   -7398.02877545 Ry
     estimated scf accuracy    <       0.00673418 Ry

     total magnetization       =    80.10 Bohr mag/cell
     absolute magnetization    =    81.82 Bohr mag/cell

     iteration # 51     ecut=    50.00 Ry     beta= 0.10
     Davidson diagonalization with overlap
     ethr =  6.25E-07,  avg # of iterations =  1.0

     negative rho (up, down):  3.170E-03 3.559E-03
 
     Adding external electric field

     Computed dipole along edir(3) : 
        Dipole                0.1681 Ry au,          0.4274 Debye
        Dipole field          0.0001 Ry au, 
 
        Potential amp.       -0.0113 Ry
        Total length         54.2615 bohr
 
 
     Adding external electric field

     Computed dipole along edir(3) : 
        Dipole                0.1681 Ry au,          0.4274 Debye
        Dipole field          0.0001 Ry au, 
 
        Potential amp.       -0.0113 Ry
        Total length         54.2615 bohr
 

     total cpu time spent up to now is      725.7 secs

     total energy              =   -7398.02901346 Ry
     estimated scf accuracy    <       0.00679993 Ry

     total magnetization       =    80.09 Bohr mag/cell
     absolute magnetization    =    81.83 Bohr mag/cell

     iteration # 52     ecut=    50.00 Ry     beta= 0.10
     Davidson diagonalization with overlap
     ethr =  6.25E-07,  avg # of iterations =  2.0

     negative rho (up, down):  3.406E-03 3.827E-03
 
     Adding external electric field

     Computed dipole along edir(3) : 
        Dipole                0.1810 Ry au,          0.4602 Debye
        Dipole field          0.0001 Ry au, 
 
        Potential amp.       -0.0122 Ry
        Total length         54.2615 bohr
 
 
     Adding external electric field

     Computed dipole along edir(3) : 
        Dipole                0.1810 Ry au,          0.4602 Debye
        Dipole field          0.0001 Ry au, 
 
        Potential amp.       -0.0122 Ry
        Total length         54.2615 bohr
 

     total cpu time spent up to now is      738.9 secs

     total energy              =   -7398.02902435 Ry
     estimated scf accuracy    <       0.00649432 Ry

     total magnetization       =    80.10 Bohr mag/cell
     absolute magnetization    =    81.81 Bohr mag/cell

     iteration # 53     ecut=    50.00 Ry     beta= 0.10
     Davidson diagonalization with overlap
     ethr =  6.02E-07,  avg # of iterations =  1.0

     negative rho (up, down):  2.708E-03 3.356E-03
 
     Adding external electric field

     Computed dipole along edir(3) : 
        Dipole                0.2560 Ry au,          0.6507 Debye
        Dipole field          0.0002 Ry au, 
 
        Potential amp.       -0.0172 Ry
        Total length         54.2615 bohr
 
 
     Adding external electric field

     Computed dipole along edir(3) : 
        Dipole                0.2560 Ry au,          0.6507 Debye
        Dipole field          0.0002 Ry au, 
 
        Potential amp.       -0.0172 Ry
        Total length         54.2615 bohr
 

     total cpu time spent up to now is      750.6 secs

     total energy              =   -7398.02831290 Ry
     estimated scf accuracy    <       0.00641453 Ry

     total magnetization       =    80.10 Bohr mag/cell
     absolute magnetization    =    81.81 Bohr mag/cell

     iteration # 54     ecut=    50.00 Ry     beta= 0.10
     Davidson diagonalization with overlap
     ethr =  5.95E-07,  avg # of iterations =  2.0

     negative rho (up, down):  1.924E-03 2.595E-03
 
     Adding external electric field

     Computed dipole along edir(3) : 
        Dipole                0.3167 Ry au,          0.8051 Debye
        Dipole field          0.0002 Ry au, 
 
        Potential amp.       -0.0213 Ry
        Total length         54.2615 bohr
 
 
     Adding external electric field

     Computed dipole along edir(3) : 
        Dipole                0.3167 Ry au,          0.8051 Debye
        Dipole field          0.0002 Ry au, 
 
        Potential amp.       -0.0213 Ry
        Total length         54.2615 bohr
 

     total cpu time spent up to now is      763.9 secs

     total energy              =   -7398.02816337 Ry
     estimated scf accuracy    <       0.00524220 Ry

     total magnetization       =    80.08 Bohr mag/cell
     absolute magnetization    =    81.83 Bohr mag/cell

     iteration # 55     ecut=    50.00 Ry     beta= 0.10
     Davidson diagonalization with overlap
     ethr =  4.86E-07,  avg # of iterations =  2.0

     negative rho (up, down):  1.609E-03 2.281E-03
 
     Adding external electric field

     Computed dipole along edir(3) : 
        Dipole                0.3189 Ry au,          0.8106 Debye
        Dipole field          0.0002 Ry au, 
 
        Potential amp.       -0.0214 Ry
        Total length         54.2615 bohr
 
 
     Adding external electric field

     Computed dipole along edir(3) : 
        Dipole                0.3189 Ry au,          0.8106 Debye
        Dipole field          0.0002 Ry au, 
 
        Potential amp.       -0.0214 Ry
        Total length         54.2615 bohr
 

     total cpu time spent up to now is      777.2 secs

     total energy              =   -7398.02813524 Ry
     estimated scf accuracy    <       0.00438733 Ry

     total magnetization       =    80.07 Bohr mag/cell
     absolute magnetization    =    81.85 Bohr mag/cell

     iteration # 56     ecut=    50.00 Ry     beta= 0.10
     Davidson diagonalization with overlap
     ethr =  4.07E-07,  avg # of iterations =  2.0

     negative rho (up, down):  1.153E-03 1.509E-03
 
     Adding external electric field

     Computed dipole along edir(3) : 
        Dipole                0.2527 Ry au,          0.6422 Debye
        Dipole field          0.0002 Ry au, 
 
        Potential amp.       -0.0170 Ry
        Total length         54.2615 bohr
 
 
     Adding external electric field

     Computed dipole along edir(3) : 
        Dipole                0.2527 Ry au,          0.6422 Debye
        Dipole field          0.0002 Ry au, 
 
        Potential amp.       -0.0170 Ry
        Total length         54.2615 bohr
 

     total cpu time spent up to now is      790.7 secs

     total energy              =   -7398.02867154 Ry
     estimated scf accuracy    <       0.00377723 Ry

     total magnetization       =    80.07 Bohr mag/cell
     absolute magnetization    =    81.84 Bohr mag/cell

     iteration # 57     ecut=    50.00 Ry     beta= 0.10
     Davidson diagonalization with overlap
     ethr =  3.50E-07,  avg # of iterations =  7.0

     negative rho (up, down):  2.604E-03 3.172E-03
 
     Adding external electric field

     Computed dipole along edir(3) : 
        Dipole                0.2562 Ry au,          0.6513 Debye
        Dipole field          0.0002 Ry au, 
 
        Potential amp.       -0.0172 Ry
        Total length         54.2615 bohr
 
 
     Adding external electric field

     Computed dipole along edir(3) : 
        Dipole                0.2562 Ry au,          0.6513 Debye
        Dipole field          0.0002 Ry au, 
 
        Potential amp.       -0.0172 Ry
        Total length         54.2615 bohr
 

     total cpu time spent up to now is      808.3 secs

     total energy              =   -7398.02905961 Ry
     estimated scf accuracy    <       0.00255563 Ry

     total magnetization       =    80.06 Bohr mag/cell
     absolute magnetization    =    81.77 Bohr mag/cell

     iteration # 58     ecut=    50.00 Ry     beta= 0.10
     Davidson diagonalization with overlap
     ethr =  2.37E-07,  avg # of iterations =  2.0

     negative rho (up, down):  3.726E-03 4.113E-03
 
     Adding external electric field

     Computed dipole along edir(3) : 
[...]
    -5.9471  -5.9302  -5.9168  -5.9075  -5.8803  -5.8514  -5.8143  -5.8081
    -5.7747  -5.7613  -5.7528  -5.7318  -5.7200  -5.6893  -5.6761  -5.6441
    -5.6376  -5.6237  -5.5951  -5.5869  -5.5767  -5.5581  -5.5239  -5.4768
    -5.4588  -5.4211  -5.3930  -5.3859  -5.3566  -5.3419  -5.3109  -5.2775
    -5.2343  -5.1998  -5.1845  -5.1394  -5.0985  -5.0715  -5.0291  -5.0233
    -4.9940  -4.9692  -4.9536  -4.9047  -4.8903  -4.8596  -4.8378  -4.8228
    -4.7875  -4.7506  -4.6931  -4.6897  -4.6555  -4.6158  -4.5684  -4.5592
    -4.4928  -4.4840  -4.4483  -4.4276  -4.4169  -4.3669  -4.3549  -4.3254
    -4.3183  -4.2623  -4.2089  -4.1859  -4.1541  -4.1238  -4.1160  -4.0900
    -4.0413  -4.0019  -3.9881  -3.9639  -3.9487  -3.9132  -3.9009  -3.8735
    -3.8553  -3.8367  -3.8135  -3.7842  -3.7740  -3.7199  -3.7090  -3.6993
    -3.6800  -3.6679  -3.6303  -3.6288  -3.6273  -3.5959  -3.5864  -3.5198
    -3.5106  -3.4910  -3.4853  -3.4761  -3.4663  -3.4524  -3.4243  -3.4210
    -3.4118  -3.3656  -3.3443  -3.3335  -3.3268  -3.3024  -3.2727  -3.2400
    -3.2199  -3.2007  -3.1696  -3.1566  -3.1408  -3.1281  -3.1156  -3.1096
    -3.0856  -3.0678  -3.0453  -3.0231  -2.9927  -2.9742  -2.9570  -2.9310
    -2.8985  -2.8896  -2.8792  -2.8605  -2.8252  -2.8174  -2.7879  -2.7732
    -2.7597  -2.7520  -2.7324  -2.7285  -2.7218  -2.7073  -2.7027  -2.6961
    -2.6692  -2.6533  -2.6307  -2.6105  -2.5985  -2.5973  -2.5697  -2.5460
    -2.5344  -2.5170  -2.5029  -2.4740  -2.4615  -2.4496  -2.4414  -2.4247
    -2.3861  -2.3795  -2.3675  -2.3515  -2.3187  -2.3085  -2.2706  -2.2597
    -2.2546  -2.2174  -2.2078  -2.1819  -2.1705  -2.1635  -2.1159  -2.0982
    -2.0921  -2.0701  -2.0557  -2.0423  -2.0330  -2.0152  -1.9845  -1.9677
    -1.9590  -1.9442  -1.9352  -1.9292  -1.8938  -1.8731  -1.8611  -1.8366
    -1.8175  -1.8001  -1.7665  -1.7549  -1.7294  -1.7244  -1.6963  -1.6807
    -1.6610  -1.6532  -1.6346  -1.6014  -1.5904  -1.5688  -1.5602  -1.5276
    -1.5071  -1.4884  -1.4877  -1.4685  -1.4296  -1.4205  -1.3949  -1.3938
    -1.3691  -1.3510  -1.3090  -1.2841  -1.2663  -1.2367  -1.2236  -1.2152
    -1.1411  -1.1235  -1.0747  -1.0095  -0.9539  -0.9362  -0.8505  -0.8358
    -0.7932  -0.7676  -0.6919  -0.5024  -0.3603  -0.3132  -0.2898  -0.1852
     0.1391   0.1599   0.1903   0.2291   0.2603   0.2675   0.2785   0.2821
     0.3086   0.3115   0.3427   0.3488   0.3527   0.3625   0.3703   0.3821
     0.3857   0.3884   0.4010   0.4146   0.4230   0.4316   0.4335   0.4447
     0.4452   0.4531   0.4644   0.4737   0.4745   0.4803   0.4847   0.4935
     0.5047   0.5163   0.5195   0.5235   0.5312   0.5361   0.5363   0.5523
     0.5647   0.5698   0.5771   0.5792   0.5850   0.5902   0.5929   0.6142
     0.6185   0.6324   0.6337   0.6426   0.6495   0.6523   0.6584   0.6739
     0.6765   0.6807   0.6880   0.6892   0.7043   0.7055   0.7152   0.7258
     0.7291   0.7365   0.7438   0.7576   0.7627   0.7768   0.7777   0.7841
     0.7951   0.7976   0.8075   0.8187   0.8358   0.8449   0.8612   0.8682
     0.8795   0.8877   0.8941   0.8983   0.9093   0.9148   0.9230   0.9248
     0.9357   0.9486   0.9714   0.9737   0.9860   1.0013   1.0308   1.0449
     1.1550   1.1888   1.6267   1.7077   1.7116   1.7169   1.7453   1.7529
     1.7671   1.8485   1.8788   1.9016   1.9279   1.9647   1.9729   1.9831
     1.9999   2.0456   2.0509   2.0583   2.0741   2.0787   2.0987   2.1311
     2.1574   2.1763   2.1957   2.2063   2.2235   2.2353   2.2698   2.2729
     2.2896   2.2910   2.3032   2.3161   2.3234   2.3362   2.3525   2.3629
     2.3656   2.3865   2.4055   2.4096   2.4301   2.4472   2.4576   2.4713
     2.4938   2.5142   2.5219   2.5280   2.5377   2.5668   2.5833   2.6081
     2.6225   2.6308   2.6408   2.6459   2.7105   2.7496   2.7747   2.8261
     2.8465   2.8524   2.8794   2.9014   2.9427   3.2403   3.2844   3.4581
     3.5378   3.8207   3.8883   3.9655   4.0288   4.0526   4.1113   4.5050
     4.6682   4.7907   4.9160   4.9333   4.9730   5.0802   5.4347   6.3329
     6.3833   6.5321   6.6068   6.7458   6.8114   6.8251   6.8844   6.9213
     7.0368   7.0976   7.1577   7.1718   7.3467   7.3533   7.3907   7.4383
     7.5581   7.5822   7.6343   7.6850   7.7318   7.7580   7.8295   7.8727
     7.8958   7.9450   7.9651   8.0131   8.0383   8.0657   8.0885   8.1118
     8.1452   8.1634   8.2103   8.2238   8.2552   8.2866   8.3252   8.3381
     8.3656   8.3870   8.4402   8.4716   8.4876   8.5164   8.5315   8.5384
     8.5512   8.5743   8.5981   8.6099   8.6399   8.6544   8.6860   8.6905
     8.7263   8.7525   8.8078   8.8250   8.8374   8.8733   8.9064

     the Fermi energy is     1.6017 ev

!    total energy              =   -7398.02993310 Ry
     estimated scf accuracy    <       0.00000067 Ry
     smearing contrib. (-TS)   =      -0.01665222 Ry
     internal energy E=F+TS    =   -7398.01328088 Ry

     The total energy is F=E-TS. E is the sum of the following terms:
     one-electron contribution =  -91646.32838686 Ry
     hartree contribution      =   46471.41675434 Ry
     xc contribution           =   -2260.27578670 Ry
     ewald contribution        =   40039.00686378 Ry
     Dispersion Correction     =      -1.83278142 Ry
     electric field correction =       0.00005598 Ry

     total magnetization       =    80.09 Bohr mag/cell
     absolute magnetization    =    81.62 Bohr mag/cell

     convergence has been achieved in  72 iterations

     negative rho (up, down):  9.324E-04 5.510E-04

     Forces acting on atoms (cartesian axes, Ry/au):

     atom    1 type  2   force =    -0.00037930   -0.00083049   -0.00054855
     atom    2 type  1   force =    -0.00013486   -0.00026601   -0.00058010
     atom    3 type  1   force =    -0.00183230   -0.00214497   -0.00255815
     atom    4 type  1   force =    -0.00021638   -0.00003830   -0.00021470
     atom    5 type  1   force =     0.00020195   -0.00018228   -0.00025823
     atom    6 type  1   force =    -0.00027200    0.00044136   -0.00026785
     atom    7 type  1   force =    -0.00031177    0.00076761   -0.00009604
     atom    8 type  1   force =    -0.00022076    0.00017847    0.00012406
     atom    9 type  1   force =     0.00043852    0.00036889   -0.00071983
     atom   10 type  1   force =    -0.00012302    0.00022509   -0.00047638
     atom   11 type  1   force =     0.00009211    0.00002664   -0.00050280
     atom   12 type  1   force =    -0.00001927    0.00000816   -0.00055180
     atom   13 type  3   force =    -0.00019679    0.00026406   -0.00034049
     atom   14 type  3   force =    -0.00016112    0.00014595    0.00005393
     atom   15 type  3   force =    -0.00034318    0.00009789   -0.00068869
     atom   16 type  3   force =     0.00026778    0.00016624    0.00031253
     atom   17 type  4   force =     0.00026181    0.00066564   -0.00009823
     atom   18 type  4   force =     0.00001368   -0.00053294   -0.00027276
     atom   19 type  4   force =     0.00041711    0.00021954    0.00014096
     atom   20 type  4   force =     0.00024491   -0.00008213    0.00002000
     atom   21 type  4   force =    -0.00015953   -0.00032337    0.00019590
     atom   22 type  4   force =     0.00044609   -0.00019015    0.00007650
     atom   23 type  4   force =    -0.00027346    0.00130946    0.00072550
     atom   24 type  4   force =    -0.00034256    0.00036025    0.00005699
     atom   25 type  4   force =    -0.00008742   -0.00023525   -0.00023667
     atom   26 type  4   force =     0.00000289    0.00112054    0.00077798
     atom   27 type  4   force =     0.00037897    0.00005931   -0.00027504
     atom   28 type  4   force =    -0.00006127   -0.00002381    0.00006034
     atom   29 type  4   force =     0.00065566   -0.00008445    0.00027409
     atom   30 type  4   force =    -0.00016608    0.00019939    0.00005630
     atom   31 type  4   force =     0.00043184    0.00030413    0.00012188
     atom   32 type  4   force =    -0.00017208    0.00016859    0.00019882
     atom   33 type  3   force =     0.00059262   -0.00009188   -0.00024376
     atom   34 type  3   force =     0.00041049   -0.00010326   -0.00024457
     atom   35 type  3   force =     0.00000340   -0.00001416    0.00036301
     atom   36 type  3   force =    -0.00010931    0.00003130   -0.00029191
     atom   37 type  4   force =    -0.00007021    0.00001537   -0.00044832
     atom   38 type  4   force =    -0.00023051    0.00015863   -0.00084899
     atom   39 type  4   force =    -0.00027032   -0.00007916    0.00018637
     atom   40 type  4   force =     0.00006068    0.00023157   -0.00019464
     atom   41 type  4   force =     0.00041781   -0.00004350    0.00000440
     atom   42 type  4   force =    -0.00006012   -0.00001912    0.00028894
     atom   43 type  4   force =    -0.00051514   -0.00021589    0.00021523
     atom   44 type  4   force =     0.00014722    0.00019807   -0.00038211
     atom   45 type  4   force =     0.00027005   -0.00005231    0.00019122
     atom   46 type  4   force =    -0.00006412   -0.00031757   -0.00055165
     atom   47 type  4   force =    -0.00012624   -0.00019858   -0.00008652
     atom   48 type  4   force =    -0.00005559   -0.00024781   -0.00054302
     atom   49 type  4   force =     0.00061759   -0.00011024   -0.00037660
     atom   50 type  4   force =    -0.00024414    0.00110771    0.00007922
     atom   51 type  4   force =    -0.00002963    0.00030734   -0.00000651
     atom   52 type  4   force =    -0.00018716    0.00014227   -0.00035333
     atom   53 type  2   force =     0.00163447   -0.00342465    0.00565060
     atom   54 type  1   force =     0.00508169   -0.00218390    0.00366906
     atom   55 type  1   force =     0.00847674   -0.00251922    0.00525216
     atom   56 type  1   force =    -0.00191864    0.01024275    0.00604126
     atom   57 type  1   force =     0.00020924    0.02310387    0.01458158
     atom   58 type  1   force =     0.00195914   -0.00328285   -0.00173904
     atom   59 type  1   force =     0.00130759   -0.00873984    0.00024935
     atom   60 type  1   force =    -0.00506273   -0.00181143    0.00463092
     atom   61 type  1   force =    -0.00267681   -0.00159244    0.00340457
     atom   62 type  1   force =    -0.00432233    0.00820408    0.00598641
     atom   63 type  1   force =    -0.01123122    0.02591706    0.01854872
     atom   64 type  1   force =    -0.00181063    0.00097718    0.00129816
     atom   65 type  3   force =     0.04610654   -0.11387064   -0.01075865
     atom   66 type  3   force =     0.00008363   -0.00311631    0.00158233
     atom   67 type  3   force =    -0.03909335    0.12698070    0.01489059
     atom   68 type  3   force =     0.06270415   -0.00176769   -0.00329306
     atom   69 type  4   force =     0.01388643   -0.01821477    0.00368286
     atom   70 type  4   force =    -0.00055831    0.00251829   -0.00040604
     atom   71 type  4   force =    -0.00150899    0.00312765   -0.00579198
     atom   72 type  4   force =     0.00403051    0.00189708   -0.00072406
     atom   73 type  4   force =     0.00103196   -0.01139611    0.00304335
     atom   74 type  4   force =    -0.00030051   -0.00098214   -0.00182352
     atom   75 type  4   force =    -0.00107799    0.01398240    0.00633718
     atom   76 type  4   force =     0.00823452    0.00532492    0.00938469
     atom   77 type  4   force =     0.00706098   -0.00272809    0.00164423
     atom   78 type  4   force =     0.04397630   -0.14244898   -0.00523601
     atom   79 type  4   force =     0.00195389    0.00196130    0.00148848
     atom   80 type  4   force =     0.00004550    0.00226197   -0.00158192
     atom   81 type  4   force =     0.06741661    0.00077351   -0.00586688
     atom   82 type  4   force =     0.00014746    0.00157296   -0.00088482
     atom   83 type  4   force =    -0.03911787    0.13464840    0.00276260
     atom   84 type  4   force =    -0.00306542   -0.01102982   -0.00403580
     atom   85 type  3   force =     0.04001038   -0.12003486   -0.01839731
     atom   86 type  3   force =    -0.06290975   -0.00278478    0.00866374
     atom   87 type  3   force =    -0.04476772    0.12552271    0.01717508
     atom   88 type  3   force =    -0.00166876    0.00004673    0.00256013
     atom   89 type  4   force =     0.00909322   -0.01531573    0.00396987
     atom   90 type  4   force =    -0.00481377    0.00157500    0.00065729
     atom   91 type  4   force =    -0.00912369    0.00788739   -0.00636424
     atom   92 type  4   force =    -0.00001491    0.00024133   -0.00068208
     atom   93 type  4   force =    -0.00169655   -0.00829930    0.00761835
     atom   94 type  4   force =    -0.00460537    0.00145594    0.00086709
     atom   95 type  4   force =    -0.00570256    0.01280069    0.00595339
     atom   96 type  4   force =     0.00404928    0.00527278    0.00977205
     atom   97 type  4   force =    -0.00009589    0.00025860    0.00074043
     atom   98 type  4   force =     0.04024900   -0.14124158   -0.00491254
     atom   99 type  4   force =    -0.06652275    0.00003865    0.00637298
     atom  100 type  4   force =    -0.00162564    0.00344310   -0.00276696
     atom  101 type  4   force =    -0.00038861    0.00096821   -0.00056674
     atom  102 type  4   force =    -0.00601207    0.00464959   -0.00143970
     atom  103 type  4   force =    -0.04018272    0.13320121    0.00438020
     atom  104 type  4   force =    -0.00714891   -0.00991458   -0.00513122
     atom  105 type  2   force =     0.00414937   -0.00659435   -0.01802348
     atom  106 type  1   force =     0.02824460    0.01430313    0.01193834
     atom  107 type  1   force =     0.00867121   -0.00615270   -0.01389446
     atom  108 type  1   force =    -0.02849331    0.02171162    0.01892529
     atom  109 type  1   force =     0.00507738    0.01608955    0.00961497
     atom  110 type  1   force =    -0.00253370   -0.00872749   -0.00660078
     atom  111 type  1   force =    -0.00084519   -0.00951509   -0.01133324
     atom  112 type  1   force =     0.02930990    0.01760380    0.01163281
     atom  113 type  1   force =    -0.00070137   -0.00501270   -0.01372447
     atom  114 type  1   force =    -0.02970609    0.02076998    0.01874175
     atom  115 type  1   force =    -0.00718489    0.01850751    0.01234077
     atom  116 type  1   force =    -0.00555713   -0.00437733   -0.00279134
     atom  117 type  3   force =     0.01425977   -0.17391869   -0.10880786
     atom  118 type  3   force =     0.00515713   -0.00851766   -0.01264314
     atom  119 type  3   force =    -0.04466088    0.12496832   -0.00183896
     atom  120 type  3   force =     0.09508455   -0.04106655   -0.07972400
     atom  121 type  4   force =     0.00620060   -0.01702910    0.03720415
     atom  122 type  4   force =    -0.00342475    0.00362156    0.00460440
     atom  123 type  4   force =    -0.00090454    0.00250630   -0.00277794
     atom  124 type  4   force =     0.00845756    0.00221924    0.02691144
     atom  125 type  4   force =     0.00990164   -0.01687903    0.01603595
     atom  126 type  4   force =    -0.00742903    0.00092162   -0.00320196
     atom  127 type  4   force =     0.00391277    0.00958808    0.00033627
     atom  128 type  4   force =    -0.00062976   -0.00107139    0.03025767
     atom  129 type  4   force =    -0.00769273    0.02543806    0.00123373
     atom  130 type  4   force =     0.04333977   -0.14585287   -0.00191364
     atom  131 type  4   force =    -0.01733839   -0.00040913    0.00289825
     atom  132 type  4   force =     0.00352724    0.00264269    0.00201391
     atom  133 type  4   force =     0.06959428    0.00369661   -0.00189287
     atom  134 type  4   force =     0.00100733    0.00377904    0.00273095
     atom  135 type  4   force =    -0.02750852    0.17215043    0.00611662
     atom  136 type  4   force =     0.01949040   -0.00863171    0.00406073
     atom  137 type  3   force =     0.00909481   -0.16689088   -0.09425723
     atom  138 type  3   force =    -0.06466741   -0.00210856   -0.00492272
     atom  139 type  3   force =    -0.04872605    0.11827115    0.00156220
     atom  140 type  3   force =     0.03145595   -0.04325550   -0.07369290
     atom  141 type  4   force =     0.00469831   -0.01326376    0.03206582
     atom  142 type  4   force =    -0.00538240   -0.00039056    0.00440230
     atom  143 type  4   force =    -0.00823963    0.00803540   -0.00343075
     atom  144 type  4   force =     0.00380787    0.00141860    0.02750988
     atom  145 type  4   force =     0.00692469   -0.01298083    0.03242104
     atom  146 type  4   force =    -0.00867253   -0.00185474   -0.00313529
     atom  147 type  4   force =     0.00024857    0.00980496    0.00254348
     atom  148 type  4   force =    -0.00792438    0.00124099    0.02916807
     atom  149 type  4   force =    -0.01319703    0.02935148    0.00054857
     atom  150 type  4   force =     0.03974787   -0.13820170   -0.00139591
     atom  151 type  4   force =    -0.08607560   -0.00175206    0.00919601
     atom  152 type  4   force =     0.00134382    0.00388507    0.00144452
     atom  153 type  4   force =    -0.00365280    0.00084553    0.00299174
     atom  154 type  4   force =    -0.00583883    0.00611322    0.00131565
     atom  155 type  4   force =    -0.02792194    0.16637275    0.00489237
     atom  156 type  4   force =     0.01048988   -0.00973079   -0.00132800
     atom  157 type  4   force =     0.01272149   -0.00652872    0.00508817
     atom  158 type  5   force =    -0.00967219    0.00783904   -0.00313995

     Total force =     0.671499     Total SCF correction =     0.003256
 
     init_run     :      7.31s CPU      7.94s WALL (       1 calls)
     electrons    :    948.87s CPU    995.11s WALL (       1 calls)
     forces       :      4.19s CPU      4.60s WALL (       1 calls)
     force_london :      0.10s CPU      0.10s WALL (       1 calls)

     Called by init_run:
     wfcinit      :      4.29s CPU      4.45s WALL (       1 calls)
     potinit      :      0.60s CPU      0.79s WALL (       1 calls)
     hinit0       :      1.24s CPU      1.33s WALL (       1 calls)

     Called by electrons:
     c_bands      :    749.29s CPU    773.85s WALL (      72 calls)
     sum_band     :    127.93s CPU    139.72s WALL (      72 calls)
     v_of_rho     :     14.14s CPU     15.13s WALL (      73 calls)
     newd         :     38.39s CPU     47.34s WALL (      73 calls)
     mix_rho      :     18.49s CPU     18.62s WALL (      72 calls)
     energy_londo :      0.09s CPU      0.09s WALL (       1 calls)

     Called by c_bands:
     init_us_2    :      2.39s CPU      2.45s WALL (     292 calls)
     init_us_2:cp :      2.39s CPU      2.45s WALL (     292 calls)
     regterg      :    733.52s CPU    757.89s WALL (     147 calls)

     Called by *egterg:
     rdiaghg      :    204.43s CPU    216.78s WALL (     656 calls)
     h_psi        :    282.89s CPU    288.00s WALL (     658 calls)
     s_psi        :     54.89s CPU     54.93s WALL (     658 calls)
     g_psi        :      0.37s CPU      0.38s WALL (     509 calls)

     Called by h_psi:
     h_psi:calbec :     75.18s CPU     79.60s WALL (     658 calls)
     vloc_psi     :    151.15s CPU    151.76s WALL (     658 calls)
     add_vuspsi   :     55.81s CPU     55.88s WALL (     658 calls)

     General routines
     calbec       :    110.91s CPU    117.57s WALL (     810 calls)
     fft          :     17.70s CPU     19.00s WALL (    1327 calls)
     ffts         :     11.26s CPU     11.31s WALL (    8951 calls)
     fftw         :    172.46s CPU    173.15s WALL (  244858 calls)
     interpolate  :      1.16s CPU      1.26s WALL (     146 calls)
 
     Parallel routines
 
     PWSCF        :  16m 2.63s CPU  16m50.20s WALL

 
   This run was terminated on:  19:54:26  19Nov2025            

=------------------------------------------------------------------------------=
   JOB DONE.
=------------------------------------------------------------------------------=
