
     Program PWSCF v.7.2 starts on 19Nov2025 at 22:45:34 

     This program is part of the open-source Quantum ESPRESSO suite
     for quantum simulation of materials; please cite
         "P. Giannozzi et al., J. Phys.:Condens. Matter 21 395502 (2009);
         "P. Giannozzi et al., J. Phys.:Condens. Matter 29 465901 (2017);
         "P. Giannozzi et al., J. Chem. Phys. 152 154105 (2020);
          URL http://www.quantum-espresso.org", 
     in publications or presentations arising from this work. More details at
     http://www.quantum-espresso.org/quote

     Parallel version (MPI), running on    64 processors

     MPI processes distributed on     4 nodes
     389783 MiB available memory on the printing compute node when the environment starts
 
     Reading input from PWINPUT_atm158_zm

     Current dimensions of program PWSCF are:
     Max number of different atomic species (ntypx) = 10
     Max number of k-points (npk) =  40000
     Max angular momentum in pseudopotentials (lmaxx) =  4
     Presently no symmetry can be used with electric field

     file Ni.pbe-n-rrkjus_psl.1.0.0.UPF: wavefunction(s)  3D renormalized
     file Mn.pbe-spn-rrkjus_psl.0.3.1.UPF: wavefunction(s)  3D renormalized
     file O.pbe-rrkjus.UPF: wavefunction(s)  2S renormalized
     file H.pbe-rrkjus.UPF: wavefunction(s)  1S renormalized

     gamma-point specific algorithms are used
 
     R & G space division:  proc/nbgrp/npool/nimage =      64
     Subspace diagonalization in iterative solution of the eigenvalue problem:
     one sub-group per band group will be used
     custom distributed-memory algorithm (size of sub-group:  6*  6 procs)

 
     Parallelization info
     --------------------
     sticks:   dense  smooth     PW     G-vecs:    dense   smooth      PW
     Min         208      82     20                59912    15118    1876
     Max         210      84     22                59974    15196    1926
     Sum       13399    5355   1345              3836275   970529  121367
 
     Using Slab Decomposition
 


     bravais-lattice index     =            0
     lattice parameter (alat)  =      17.7004  a.u.
     unit-cell volume          =   20319.7251 (a.u.)^3
     number of atoms/cell      =          158
     number of atomic types    =            5
     number of electrons       =      1078.00
     number of Kohn-Sham states=          647
     kinetic-energy cutoff     =      50.0000  Ry
     charge density cutoff     =     500.0000  Ry
     scf convergence threshold =      1.0E-06
     mixing beta               =       0.1000
     number of iterations used =            8  local-TF  mixing
     Exchange-correlation=  SLA  PW   PBE  PBE
                           (   1   4   3   4   0   0   0)

     celldm(1)=  17.700384  celldm(2)=   0.000000  celldm(3)=   0.000000
     celldm(4)=   0.000000  celldm(5)=   0.000000  celldm(6)=   0.000000

     crystal axes: (cart. coord. in units of alat)
               a(1) = (   1.000000   0.000000   0.000000 )  
               a(2) = (   0.000000   1.075730   0.000000 )  
               a(3) = (   0.000000   0.000000   3.406172 )  

     reciprocal axes: (cart. coord. in units 2 pi/alat)
               b(1) = (  1.000000  0.000000  0.000000 )  
               b(2) = (  0.000000  0.929602  0.000000 )  
               b(3) = (  0.000000  0.000000  0.293585 )  


     PseudoPot. # 1 for Ni read from file:
     ~/PSEUDO/Ni.pbe-n-rrkjus_psl.1.0.0.UPF
     MD5 check sum: Not computed, couldn't open file
     Pseudo is Ultrasoft + core correction, Zval = 10.0
     Generated using "atomic" code by A. Dal Corso  v.5.1.2
     Using radial grid of 1195 points,  6 beta functions with: 
                l(1) =   0
                l(2) =   0
                l(3) =   1
                l(4) =   1
                l(5) =   2
                l(6) =   2
     Q(r) pseudized with 0 coefficients 


     PseudoPot. # 2 for Mn read from file:
     ~/PSEUDO/Mn.pbe-spn-rrkjus_psl.0.3.1.UPF
     MD5 check sum: Not computed, couldn't open file
     Pseudo is Ultrasoft + core correction, Zval = 15.0
     Generated using &quot;atomic&quot; code by A. Dal Corso  v.6.2.2
     Using radial grid of 1187 points,  6 beta functions with: 
                l(1) =   0
                l(2) =   0
                l(3) =   1
                l(4) =   1
                l(5) =   2
                l(6) =   2
     Q(r) pseudized with 0 coefficients 


     PseudoPot. # 3 for P  read from file:
     ~/PSEUDO/P.pbe-n-rrkjus_psl.1.0.0.UPF
     MD5 check sum: Not computed, couldn't open file
     Pseudo is Ultrasoft + core correction, Zval =  5.0
     Generated using "atomic" code by A. Dal Corso  v.5.1
     Using radial grid of 1147 points,  6 beta functions with: 
                l(1) =   0
                l(2) =   0
                l(3) =   1
                l(4) =   1
                l(5) =   2
                l(6) =   2
     Q(r) pseudized with 0 coefficients 


     PseudoPot. # 4 for O  read from file:
     ~/PSEUDO/O.pbe-rrkjus.UPF
     MD5 check sum: Not computed, couldn't open file
     Pseudo is Ultrasoft, Zval =  6.0
     Generated by new atomic code, or converted to UPF format
     Using radial grid of 1269 points,  4 beta functions with: 
                l(1) =   0
                l(2) =   0
                l(3) =   1
                l(4) =   1
     Q(r) pseudized with 0 coefficients 


     PseudoPot. # 5 for H  read from file:
     ~/PSEUDO/H.pbe-rrkjus.UPF
     MD5 check sum: Not computed, couldn't open file
     Pseudo is Ultrasoft, Zval =  1.0
     Generated by new atomic code, or converted to UPF format
     Using radial grid of 1061 points,  2 beta functions with: 
                l(1) =   0
                l(2) =   0
     Q(r) pseudized with 0 coefficients 


     atomic species   valence    mass     pseudopotential
     Ni               10.00    58.69300     Ni( 1.00)
     Mn               15.00    54.93800     Mn( 1.00)
     P                 5.00    30.97300     P ( 1.00)
     O                 6.00    15.99900     O ( 1.00)
     H                 1.00     1.00790     H ( 1.00)

     Starting magnetic structure 
     atomic species   magnetization
     Ni              1.000
     Mn              1.000
     P               1.000
     O               1.000
     H               0.000

     No symmetry found



   Cartesian axes

     site n.     atom                  positions (alat units)
         1        Mn     tau(   1) = (   0.2493609   0.8365715   1.6923971  )
         2        Ni     tau(   2) = (   0.4971079   0.7736156   1.3698727  )
         3        Ni     tau(   3) = (   0.0112576   0.3072794   1.7087583  )
         4        Ni     tau(   4) = (   0.2596239   0.2390995   1.3686499  )
         5        Ni     tau(   5) = (   0.9975634   1.0800649   1.5354411  )
         6        Ni     tau(   6) = (   0.2537367   0.5354741   1.5344197  )
         7        Ni     tau(   7) = (   0.7537322   0.8383734   1.6753574  )
         8        Ni     tau(   8) = (   0.9914315   0.7746670   1.3720254  )
         9        Ni     tau(   9) = (   0.5035551   0.2960273   1.6759017  )
        10        Ni     tau(  10) = (   0.7601897   0.2370242   1.3663370  )
        11        Ni     tau(  11) = (   0.4997103   1.0755509   1.5321392  )
        12        Ni     tau(  12) = (   0.7557358   0.5365151   1.5309164  )
        13        P      tau(  13) = (   0.2102583   0.9729017   1.3795895  )
        14        P      tau(  14) = (   0.4681633   0.6439249   1.6893391  )
        15        P      tau(  15) = (   0.2886425   0.1100006   1.6952171  )
        16        P      tau(  16) = (   0.0425762   0.4312003   1.3742181  )
        17        O      tau(  17) = (   0.1340839   0.9024468   1.5167299  )
        18        O      tau(  18) = (   0.3903743   0.7050921   1.5459491  )
        19        O      tau(  19) = (   0.3645582   0.1700754   1.5496001  )
        20        O      tau(  20) = (   0.1194984   0.3599186   1.5100144  )
        21        O      tau(  21) = (   0.1474941   0.8824110   1.2564130  )
        22        O      tau(  22) = (   0.4040727   0.7408321   1.8053395  )
        23        O      tau(  23) = (   0.3535892   0.2030579   1.8119064  )
        24        O      tau(  24) = (   0.1029989   0.3444961   1.2466039  )
        25        O      tau(  25) = (   0.1016325   0.5871265   1.3783445  )
        26        O      tau(  26) = (   0.3444464   1.0271569   1.6949549  )
        27        O      tau(  27) = (   0.3797210   0.4257846   1.3839545  )
        28        O      tau(  28) = (   0.1239987   0.1120195   1.6852008  )
        29        O      tau(  29) = (   0.1277082   0.6548798   1.6784119  )
        30        O      tau(  30) = (   0.4126374   0.4868061   1.6917006  )
        31        O      tau(  31) = (   0.1512622   0.0516880   1.3795899  )
        32        O      tau(  32) = (   0.3740488   0.9633360   1.3872959  )
        33        P      tau(  33) = (   0.7102783   0.9720020   1.3712879  )
        34        P      tau(  34) = (   0.9622035   0.6496791   1.6938416  )
        35        P      tau(  35) = (   0.7879411   0.1129842   1.6874765  )
        36        P      tau(  36) = (   0.5437247   0.4318676   1.3705585  )
        37        O      tau(  37) = (   0.6320214   0.9007554   1.5076114  )
        38        O      tau(  38) = (   0.8856843   0.7114266   1.5472319  )
        39        O      tau(  39) = (   0.8642929   0.1717044   1.5437885  )
        40        O      tau(  40) = (   0.6216900   0.3608055   1.5064456  )
        41        O      tau(  41) = (   0.6495853   0.8828646   1.2457269  )
        42        O      tau(  42) = (   0.9055096   0.7504361   1.8079161  )
        43        O      tau(  43) = (   0.8450882   0.2103025   1.8047962  )
        44        O      tau(  44) = (   0.6043176   0.3439644   1.2442897  )
        45        O      tau(  45) = (   0.6044957   0.5867090   1.3746570  )
        46        O      tau(  46) = (   0.8440334   1.0304596   1.6909963  )
        47        O      tau(  47) = (   0.8783670   0.4261403   1.3828404  )
        48        O      tau(  48) = (   0.6221236   0.1136819   1.6769158  )
        49        O      tau(  49) = (   0.6324242   0.6520846   1.6793976  )
        50        O      tau(  50) = (   0.9031210   0.4942715   1.6888231  )
        51        O      tau(  51) = (   0.6491651   0.0505825   1.3737527  )
        52        O      tau(  52) = (   0.8740350   0.9654835   1.3844354  )
        53        Mn     tau(  53) = (   0.2404744   0.8246335   1.0701417  )
        54        Ni     tau(  54) = (   0.4968126   0.7601755   0.7454373  )
        55        Ni     tau(  55) = (   0.0066150   0.2811828   1.0628866  )
        56        Ni     tau(  56) = (   0.2585722   0.2230943   0.7421070  )
        57        Ni     tau(  57) = (   0.9987350   1.0571496   0.9014992  )
        58        Ni     tau(  58) = (   0.2517397   0.5205596   0.9040596  )
        59        Ni     tau(  59) = (   0.7451645   0.8212628   1.0648168  )
        60        Ni     tau(  60) = (   0.9939181   0.7613889   0.7462324  )
        61        Ni     tau(  61) = (   0.5111533   0.2799173   1.0618053  )
        62        Ni     tau(  62) = (   0.7606326   0.2194352   0.7418547  )
        63        Ni     tau(  63) = (   0.5024065   1.0563218   0.8999416  )
        64        Ni     tau(  64) = (   0.7529977   0.5192985   0.9024691  )
        65        P      tau(  65) = (   0.2092944   0.9606182   0.7524883  )
        66        P      tau(  66) = (   0.4655727   0.6234620   1.0595283  )
        67        P      tau(  67) = (   0.2910699   0.0902448   1.0573821  )
        68        P      tau(  68) = (   0.0396216   0.4163480   0.7471080  )
        69        O      tau(  69) = (   0.1294378   0.8888345   0.8859300  )
        70        O      tau(  70) = (   0.3874505   0.6929859   0.9232915  )
        71        O      tau(  71) = (   0.3702540   0.1589885   0.9209891  )
        72        O      tau(  72) = (   0.1184398   0.3458043   0.8831565  )
        73        O      tau(  73) = (   0.1451572   0.8725966   0.6282341  )
        74        O      tau(  74) = (   0.4048762   0.7120670   1.1852426  )
        75        O      tau(  75) = (   0.3523506   0.1775664   1.1834175  )
        76        O      tau(  76) = (   0.1017610   0.3285569   0.6213347  )
        77        O      tau(  77) = (   0.0975396   0.5724373   0.7511996  )
        78        O      tau(  78) = (   0.3483552   1.0190030   1.0599597  )
        79        O      tau(  79) = (   0.3784305   0.4100203   0.7560991  )
        80        O      tau(  80) = (   0.1268237   0.0943029   1.0477175  )
        81        O      tau(  81) = (   0.1212267   0.6299255   1.0507023  )
        82        O      tau(  82) = (   0.4053315   0.4684472   1.0569297  )
        83        O      tau(  83) = (   0.1536621   0.0322003   0.7496532  )
        84        O      tau(  84) = (   0.3732349   0.9506802   0.7613277  )
        85        P      tau(  85) = (   0.7119823   0.9571059   0.7496908  )
        86        P      tau(  86) = (   0.9615208   0.6238477   1.0606987  )
        87        P      tau(  87) = (   0.7927710   0.0845145   1.0577754  )
        88        P      tau(  88) = (   0.5426404   0.4144760   0.7459181  )
        89        O      tau(  89) = (   0.6326879   0.8866267   0.8856678  )
        90        O      tau(  90) = (   0.8842163   0.6958291   0.9244764  )
        91        O      tau(  91) = (   0.8716178   0.1552836   0.9216415  )
        92        O      tau(  92) = (   0.6212010   0.3433751   0.8818834  )
        93        O      tau(  93) = (   0.6507714   0.8687427   0.6238197  )
        94        O      tau(  94) = (   0.9014054   0.7139543   1.1859242  )
        95        O      tau(  95) = (   0.8548963   0.1722994   1.1834447  )
        96        O      tau(  96) = (   0.6044469   0.3253792   0.6209553  )
        97        O      tau(  97) = (   0.6024424   0.5698225   0.7490903  )
        98        O      tau(  98) = (   0.8498940   1.0129567   1.0594762  )
        99        O      tau(  99) = (   0.8798395   0.4080910   0.7564148  )
       100        O      tau( 100) = (   0.6286921   0.0909721   1.0472573  )
       101        O      tau( 101) = (   0.6294973   0.6302838   1.0497366  )
       102        O      tau( 102) = (   0.9024339   0.4685397   1.0573501  )
       103        O      tau( 103) = (   0.6547812   0.0286072   0.7473283  )
       104        O      tau( 104) = (   0.8760507   0.9507690   0.7605412  )
       105        Mn     tau( 105) = (   0.2404744   0.8121420   0.4502541  )
       106        Ni     tau( 106) = (   0.4968126   0.7476840   0.1255496  )
       107        Ni     tau( 107) = (   0.0066150   0.2686914   0.4429989  )
       108        Ni     tau( 108) = (   0.2585722   0.2106028   0.1222194  )
       109        Ni     tau( 109) = (   0.9987350   1.0446581   0.2816116  )
       110        Ni     tau( 110) = (   0.2517397   0.5080681   0.2841720  )
       111        Ni     tau( 111) = (   0.7451645   0.8087713   0.4449291  )
       112        Ni     tau( 112) = (   0.9939181   0.7488974   0.1263448  )
       113        Ni     tau( 113) = (   0.5111533   0.2674258   0.4419177  )
       114        Ni     tau( 114) = (   0.7606326   0.2069438   0.1219670  )
       115        Ni     tau( 115) = (   0.5024065   1.0438304   0.2800540  )
       116        Ni     tau( 116) = (   0.7529977   0.5068070   0.2825815  )
       117        P      tau( 117) = (   0.2092944   0.9481267   0.1326007  )
       118        P      tau( 118) = (   0.4655727   0.6109705   0.4396407  )
       119        P      tau( 119) = (   0.2910699   0.0777534   0.4374945  )
       120        P      tau( 120) = (   0.0396216   0.4038566   0.1272204  )
       121        O      tau( 121) = (   0.1294378   0.8763430   0.2660424  )
       122        O      tau( 122) = (   0.3874505   0.6804944   0.3034039  )
       123        O      tau( 123) = (   0.3702540   0.1464970   0.3011014  )
       124        O      tau( 124) = (   0.1184398   0.3333129   0.2632689  )
       125        O      tau( 125) = (   0.1451572   0.8601051   0.0083464  )
       126        O      tau( 126) = (   0.4048762   0.6995756   0.5653550  )
       127        O      tau( 127) = (   0.3523506   0.1650749   0.5635298  )
       128        O      tau( 128) = (   0.1017610   0.3160655   0.0014470  )
       129        O      tau( 129) = (   0.0975396   0.5599458   0.1313120  )
       130        O      tau( 130) = (   0.3483552   1.0065115   0.4400720  )
       131        O      tau( 131) = (   0.3784305   0.3975288   0.1362114  )
       132        O      tau( 132) = (   0.1268237   0.0818115   0.4278298  )
       133        O      tau( 133) = (   0.1212267   0.6174340   0.4308146  )
       134        O      tau( 134) = (   0.4053315   0.4559557   0.4370420  )
       135        O      tau( 135) = (   0.1536621   0.0197088   0.1297656  )
       136        O      tau( 136) = (   0.3732349   0.9381887   0.1414400  )
       137        P      tau( 137) = (   0.7119823   0.9446144   0.1298032  )
       138        P      tau( 138) = (   0.9615208   0.6113562   0.4408111  )
       139        P      tau( 139) = (   0.7927710   0.0720230   0.4378878  )
       140        P      tau( 140) = (   0.5426404   0.4019845   0.1260304  )
       141        O      tau( 141) = (   0.6326879   0.8741353   0.2657802  )
       142        O      tau( 142) = (   0.8842163   0.6833376   0.3045887  )
       143        O      tau( 143) = (   0.8716178   0.1427921   0.3017538  )
       144        O      tau( 144) = (   0.6212010   0.3308836   0.2619957  )
       145        O      tau( 145) = (   0.6507714   0.8562512   0.0039320  )
       146        O      tau( 146) = (   0.9014054   0.7014628   0.5660366  )
       147        O      tau( 147) = (   0.8548963   0.1598079   0.5635571  )
       148        O      tau( 148) = (   0.6044469   0.3128877   0.0010676  )
       149        O      tau( 149) = (   0.6024424   0.5573310   0.1292027  )
       150        O      tau( 150) = (   0.8498940   1.0004653   0.4395886  )
       151        O      tau( 151) = (   0.8798395   0.3955995   0.1365272  )
       152        O      tau( 152) = (   0.6286921   0.0784807   0.4273696  )
       153        O      tau( 153) = (   0.6294973   0.6177923   0.4298489  )
       154        O      tau( 154) = (   0.9024339   0.4560482   0.4374624  )
       155        O      tau( 155) = (   0.6547812   0.0161158   0.1274406  )
       156        O      tau( 156) = (   0.8760507   0.9382775   0.1406535  )
       157        O      tau( 157) = (   0.1248109   0.3901961   1.8430336  )
       158        H      tau( 158) = (   0.2082109   0.3300793   1.8666650  )

     -------------------------------------------------
     Parameters for Dispersion (Grimme-D2) Correction:
     -------------------------------------------------
       atom      VdW radius       C_6     

        Ni         2.952        374.666
        Mn         2.952        374.666
        P          3.222        271.980
        O          2.536         24.284
        H          1.892          4.857

     number of k points=     1  Gaussian smearing, width (Ry)=  0.0100
                       cart. coord. in units 2pi/alat
        k(    1) = (   0.0000000   0.0000000   0.0000000), wk =   1.0000000

     Dense  grid:  1918138 G-vectors     FFT dimensions: ( 125, 135, 432)

     Smooth grid:   485265 G-vectors     FFT dimensions: (  80,  90, 288)

     Estimated max dynamical RAM per process >     320.12 MB

     Estimated total dynamical RAM >      20.01 GB
     Generating pointlists ...
     new r_m :   0.0802 (alat units)  1.4195 (a.u.) for type    1
     new r_m :   0.0869 (alat units)  1.5388 (a.u.) for type    2
     new r_m :   0.0650 (alat units)  1.1499 (a.u.) for type    3
     new r_m :   0.0435 (alat units)  0.7702 (a.u.) for type    4
     new r_m :   0.0435 (alat units)  0.7702 (a.u.) for type    5

     Initial potential from superposition of free atoms

     starting charge    1077.8900, renormalised to    1078.0000

     negative rho (up, down):  1.234E-03 4.557E-04
 
     Adding external electric field

     Computed dipole along edir(3) : 
        Dipole                1.6217 Ry au,          4.1220 Debye
        Dipole field          0.0010 Ry au, 
 
        Potential amp.       -0.1088 Ry
        Total length         54.2615 bohr
 
 
     Adding external electric field

     Computed dipole along edir(3) : 
        Dipole                1.6217 Ry au,          4.1220 Debye
        Dipole field          0.0010 Ry au, 
 
        Potential amp.       -0.1088 Ry
        Total length         54.2615 bohr
 
     Starting wfcs are  812 randomized atomic wfcs

     total cpu time spent up to now is       10.0 secs

     Self-consistent Calculation

     iteration #  1     ecut=    50.00 Ry     beta= 0.10
     Davidson diagonalization with overlap
     ethr =  1.00E-02,  avg # of iterations =  6.0

     negative rho (up, down):  3.491E-01 2.716E-06
 
     Adding external electric field

     Computed dipole along edir(3) : 
        Dipole               -3.4172 Ry au,         -8.6858 Debye
        Dipole field         -0.0021 Ry au, 
 
        Potential amp.        0.2293 Ry
        Total length         54.2615 bohr
 
 
     Adding external electric field

     Computed dipole along edir(3) : 
        Dipole               -3.4172 Ry au,         -8.6858 Debye
        Dipole field         -0.0021 Ry au, 
 
        Potential amp.        0.2293 Ry
        Total length         54.2615 bohr
 

     total cpu time spent up to now is       37.8 secs

     total energy              =   -7179.45008484 Ry
     estimated scf accuracy    <     739.38785303 Ry

     total magnetization       =   216.00 Bohr mag/cell
     absolute magnetization    =   297.41 Bohr mag/cell

     iteration #  2     ecut=    50.00 Ry     beta= 0.10
     Davidson diagonalization with overlap
     ethr =  1.00E-02,  avg # of iterations =  2.0

     negative rho (up, down):  3.243E-01 2.133E-06
 
     Adding external electric field

     Computed dipole along edir(3) : 
        Dipole               -2.4137 Ry au,         -6.1350 Debye
        Dipole field         -0.0015 Ry au, 
 
        Potential amp.        0.1620 Ry
        Total length         54.2615 bohr
 
 
     Adding external electric field

     Computed dipole along edir(3) : 
        Dipole               -2.4137 Ry au,         -6.1350 Debye
        Dipole field         -0.0015 Ry au, 
 
        Potential amp.        0.1620 Ry
        Total length         54.2615 bohr
 

     total cpu time spent up to now is       52.7 secs

     total energy              =   -7263.65618446 Ry
     estimated scf accuracy    <     176.22819452 Ry

     total magnetization       =   146.47 Bohr mag/cell
     absolute magnetization    =   197.54 Bohr mag/cell

     iteration #  3     ecut=    50.00 Ry     beta= 0.10
     Davidson diagonalization with overlap
     ethr =  1.00E-02,  avg # of iterations =  1.5

     negative rho (up, down):  2.811E-01 1.714E-06
 
     Adding external electric field

     Computed dipole along edir(3) : 
        Dipole               -1.9712 Ry au,         -5.0103 Debye
        Dipole field         -0.0012 Ry au, 
 
        Potential amp.        0.1323 Ry
        Total length         54.2615 bohr
 
 
     Adding external electric field

     Computed dipole along edir(3) : 
        Dipole               -1.9712 Ry au,         -5.0103 Debye
        Dipole field         -0.0012 Ry au, 
 
        Potential amp.        0.1323 Ry
        Total length         54.2615 bohr
 

     total cpu time spent up to now is       64.8 secs

     total energy              =   -7296.82045481 Ry
     estimated scf accuracy    <      98.32160014 Ry

     total magnetization       =   123.22 Bohr mag/cell
     absolute magnetization    =   177.40 Bohr mag/cell

     iteration #  4     ecut=    50.00 Ry     beta= 0.10
     Davidson diagonalization with overlap
     ethr =  9.12E-03,  avg # of iterations =  1.5

     negative rho (up, down):  2.075E-01 4.620E-07
 
     Adding external electric field

     Computed dipole along edir(3) : 
        Dipole               -2.0741 Ry au,         -5.2720 Debye
        Dipole field         -0.0013 Ry au, 
 
        Potential amp.        0.1392 Ry
        Total length         54.2615 bohr
 
 
     Adding external electric field

     Computed dipole along edir(3) : 
        Dipole               -2.0741 Ry au,         -5.2720 Debye
        Dipole field         -0.0013 Ry au, 
 
        Potential amp.        0.1392 Ry
        Total length         54.2615 bohr
 

     total cpu time spent up to now is       76.4 secs

     total energy              =   -7329.72600382 Ry
     estimated scf accuracy    <      77.00798434 Ry

     total magnetization       =   106.93 Bohr mag/cell
     absolute magnetization    =   162.34 Bohr mag/cell

     iteration #  5     ecut=    50.00 Ry     beta= 0.10
     Davidson diagonalization with overlap
     ethr =  7.14E-03,  avg # of iterations =  1.5

     negative rho (up, down):  7.019E-03 5.081E-08
 
     Adding external electric field

     Computed dipole along edir(3) : 
        Dipole               -1.5431 Ry au,         -3.9222 Debye
        Dipole field         -0.0010 Ry au, 
 
        Potential amp.        0.1036 Ry
        Total length         54.2615 bohr
 
 
     Adding external electric field

     Computed dipole along edir(3) : 
        Dipole               -1.5431 Ry au,         -3.9222 Debye
        Dipole field         -0.0010 Ry au, 
 
        Potential amp.        0.1036 Ry
        Total length         54.2615 bohr
 

     total cpu time spent up to now is       88.5 secs

     total energy              =   -7386.87407773 Ry
     estimated scf accuracy    <      60.46197325 Ry

     total magnetization       =    88.00 Bohr mag/cell
     absolute magnetization    =   144.57 Bohr mag/cell

     iteration #  6     ecut=    50.00 Ry     beta= 0.10
     Davidson diagonalization with overlap
     ethr =  5.61E-03,  avg # of iterations =  1.5

     negative rho (up, down):  1.016E-04 1.765E-04
 
     Adding external electric field

     Computed dipole along edir(3) : 
        Dipole               -1.1375 Ry au,         -2.8912 Debye
        Dipole field         -0.0007 Ry au, 
 
        Potential amp.        0.0763 Ry
        Total length         54.2615 bohr
 
 
     Adding external electric field

     Computed dipole along edir(3) : 
        Dipole               -1.1375 Ry au,         -2.8912 Debye
        Dipole field         -0.0007 Ry au, 
 
        Potential amp.        0.0763 Ry
        Total length         54.2615 bohr
 

     total cpu time spent up to now is      100.9 secs

     total energy              =   -7395.65304268 Ry
     estimated scf accuracy    <      10.75090525 Ry

     total magnetization       =    81.24 Bohr mag/cell
     absolute magnetization    =   114.11 Bohr mag/cell

     iteration #  7     ecut=    50.00 Ry     beta= 0.10
     Davidson diagonalization with overlap
     ethr =  9.97E-04,  avg # of iterations =  4.5

     negative rho (up, down):  1.025E-04 1.713E-04
 
     Adding external electric field

     Computed dipole along edir(3) : 
        Dipole               -1.1407 Ry au,         -2.8995 Debye
        Dipole field         -0.0007 Ry au, 
 
        Potential amp.        0.0766 Ry
        Total length         54.2615 bohr
 
 
     Adding external electric field

     Computed dipole along edir(3) : 
        Dipole               -1.1407 Ry au,         -2.8995 Debye
        Dipole field         -0.0007 Ry au, 
 
        Potential amp.        0.0766 Ry
        Total length         54.2615 bohr
 

     total cpu time spent up to now is      120.3 secs

     total energy              =   -7397.68693890 Ry
     estimated scf accuracy    <      13.48893887 Ry

     total magnetization       =    70.74 Bohr mag/cell
     absolute magnetization    =    87.98 Bohr mag/cell

     iteration #  8     ecut=    50.00 Ry     beta= 0.10
     Davidson diagonalization with overlap
     ethr =  9.97E-04,  avg # of iterations =  1.0

     negative rho (up, down):  1.050E-04 1.718E-04
 
     Adding external electric field

     Computed dipole along edir(3) : 
        Dipole               -1.0764 Ry au,         -2.7360 Debye
        Dipole field         -0.0007 Ry au, 
 
        Potential amp.        0.0722 Ry
        Total length         54.2615 bohr
 
 
     Adding external electric field

     Computed dipole along edir(3) : 
        Dipole               -1.0764 Ry au,         -2.7360 Debye
        Dipole field         -0.0007 Ry au, 
 
        Potential amp.        0.0722 Ry
        Total length         54.2615 bohr
 

     total cpu time spent up to now is      132.1 secs

     total energy              =   -7397.70865474 Ry
     estimated scf accuracy    <      13.59432823 Ry

     total magnetization       =    70.70 Bohr mag/cell
     absolute magnetization    =    87.76 Bohr mag/cell

     iteration #  9     ecut=    50.00 Ry     beta= 0.10
     Davidson diagonalization with overlap
     ethr =  9.97E-04,  avg # of iterations =  1.0

     negative rho (up, down):  1.165E-01 1.144E-01
 
     Adding external electric field

     Computed dipole along edir(3) : 
        Dipole               -0.2417 Ry au,         -0.6143 Debye
        Dipole field         -0.0001 Ry au, 
 
        Potential amp.        0.0162 Ry
        Total length         54.2615 bohr
 
 
     Adding external electric field

     Computed dipole along edir(3) : 
        Dipole               -0.2417 Ry au,         -0.6143 Debye
        Dipole field         -0.0001 Ry au, 
 
        Potential amp.        0.0162 Ry
        Total length         54.2615 bohr
 

     total cpu time spent up to now is      143.7 secs

     total energy              =   -7397.36962602 Ry
     estimated scf accuracy    <      12.70776326 Ry

     total magnetization       =    70.96 Bohr mag/cell
     absolute magnetization    =    87.49 Bohr mag/cell

     iteration # 10     ecut=    50.00 Ry     beta= 0.10
     Davidson diagonalization with overlap
     ethr =  9.97E-04,  avg # of iterations =  1.0

     negative rho (up, down):  1.079E-01 1.057E-01
 
     Adding external electric field

     Computed dipole along edir(3) : 
        Dipole               -0.3195 Ry au,         -0.8120 Debye
        Dipole field         -0.0002 Ry au, 
 
        Potential amp.        0.0214 Ry
        Total length         54.2615 bohr
 
 
     Adding external electric field

     Computed dipole along edir(3) : 
        Dipole               -0.3195 Ry au,         -0.8120 Debye
        Dipole field         -0.0002 Ry au, 
 
        Potential amp.        0.0214 Ry
        Total length         54.2615 bohr
 

     total cpu time spent up to now is      154.8 secs

     total energy              =   -7397.64218116 Ry
     estimated scf accuracy    <       6.52747957 Ry

     total magnetization       =    75.24 Bohr mag/cell
     absolute magnetization    =    88.78 Bohr mag/cell

     iteration # 11     ecut=    50.00 Ry     beta= 0.10
     Davidson diagonalization with overlap
     ethr =  6.06E-04,  avg # of iterations =  1.5

     negative rho (up, down):  1.299E-01 1.291E-01
 
     Adding external electric field

     Computed dipole along edir(3) : 
        Dipole               -0.3080 Ry au,         -0.7829 Debye
        Dipole field         -0.0002 Ry au, 
 
        Potential amp.        0.0207 Ry
        Total length         54.2615 bohr
 
 
     Adding external electric field

     Computed dipole along edir(3) : 
        Dipole               -0.3080 Ry au,         -0.7829 Debye
        Dipole field         -0.0002 Ry au, 
 
        Potential amp.        0.0207 Ry
        Total length         54.2615 bohr
 

     total cpu time spent up to now is      165.7 secs

     total energy              =   -7397.65207499 Ry
     estimated scf accuracy    <       6.17018413 Ry

     total magnetization       =    74.99 Bohr mag/cell
     absolute magnetization    =    88.51 Bohr mag/cell

     iteration # 12     ecut=    50.00 Ry     beta= 0.10
     Davidson diagonalization with overlap
     ethr =  5.72E-04,  avg # of iterations =  1.0

     negative rho (up, down):  1.688E-01 1.667E-01
 
     Adding external electric field

     Computed dipole along edir(3) : 
        Dipole               -0.5355 Ry au,         -1.3611 Debye
        Dipole field         -0.0003 Ry au, 
 
        Potential amp.        0.0359 Ry
        Total length         54.2615 bohr
 
 
     Adding external electric field

     Computed dipole along edir(3) : 
        Dipole               -0.5355 Ry au,         -1.3611 Debye
        Dipole field         -0.0003 Ry au, 
 
        Potential amp.        0.0359 Ry
        Total length         54.2615 bohr
 

     total cpu time spent up to now is      175.9 secs

     total energy              =   -7397.66898653 Ry
     estimated scf accuracy    <       4.89689639 Ry

     total magnetization       =    75.82 Bohr mag/cell
     absolute magnetization    =    88.47 Bohr mag/cell

     iteration # 13     ecut=    50.00 Ry     beta= 0.10
     Davidson diagonalization with overlap
     ethr =  4.54E-04,  avg # of iterations =  2.0

     negative rho (up, down):  1.667E-01 1.660E-01
 
     Adding external electric field

     Computed dipole along edir(3) : 
        Dipole               -0.4879 Ry au,         -1.2401 Debye
        Dipole field         -0.0003 Ry au, 
 
        Potential amp.        0.0327 Ry
        Total length         54.2615 bohr
 
 
     Adding external electric field

     Computed dipole along edir(3) : 
        Dipole               -0.4879 Ry au,         -1.2401 Debye
        Dipole field         -0.0003 Ry au, 
 
        Potential amp.        0.0327 Ry
        Total length         54.2615 bohr
 

     total cpu time spent up to now is      188.0 secs

     total energy              =   -7397.78428418 Ry
     estimated scf accuracy    <       0.95300568 Ry

     total magnetization       =    79.92 Bohr mag/cell
     absolute magnetization    =    90.45 Bohr mag/cell

     iteration # 14     ecut=    50.00 Ry     beta= 0.10
     Davidson diagonalization with overlap
     c_bands:  1 eigenvalues not converged
     ethr =  8.84E-05,  avg # of iterations = 16.5

     negative rho (up, down):  1.251E-01 1.268E-01
 
     Adding external electric field

     Computed dipole along edir(3) : 
        Dipole               -0.4514 Ry au,         -1.1472 Debye
        Dipole field         -0.0003 Ry au, 
 
        Potential amp.        0.0303 Ry
        Total length         54.2615 bohr
 
 
     Adding external electric field

     Computed dipole along edir(3) : 
        Dipole               -0.4514 Ry au,         -1.1472 Debye
        Dipole field         -0.0003 Ry au, 
 
        Potential amp.        0.0303 Ry
        Total length         54.2615 bohr
 

     total cpu time spent up to now is      210.2 secs

     total energy              =   -7397.78945330 Ry
     estimated scf accuracy    <       0.90244750 Ry

     total magnetization       =    80.30 Bohr mag/cell
     absolute magnetization    =    89.89 Bohr mag/cell

     iteration # 15     ecut=    50.00 Ry     beta= 0.10
     Davidson diagonalization with overlap
     ethr =  8.37E-05,  avg # of iterations =  9.0

     negative rho (up, down):  6.857E-02 7.165E-02
 
     Adding external electric field

     Computed dipole along edir(3) : 
        Dipole               -0.5983 Ry au,         -1.5208 Debye
        Dipole field         -0.0004 Ry au, 
 
        Potential amp.        0.0402 Ry
        Total length         54.2615 bohr
 
 
     Adding external electric field

     Computed dipole along edir(3) : 
        Dipole               -0.5983 Ry au,         -1.5208 Debye
        Dipole field         -0.0004 Ry au, 
 
        Potential amp.        0.0402 Ry
        Total length         54.2615 bohr
 

     total cpu time spent up to now is      227.6 secs

     total energy              =   -7397.86669590 Ry
     estimated scf accuracy    <       1.14470396 Ry

     total magnetization       =    78.77 Bohr mag/cell
     absolute magnetization    =    87.68 Bohr mag/cell

     iteration # 16     ecut=    50.00 Ry     beta= 0.10
     Davidson diagonalization with overlap
     ethr =  8.37E-05,  avg # of iterations =  1.0

     negative rho (up, down):  1.818E-02 1.828E-02
 
     Adding external electric field

     Computed dipole along edir(3) : 
        Dipole               -0.8562 Ry au,         -2.1763 Debye
        Dipole field         -0.0005 Ry au, 
 
        Potential amp.        0.0575 Ry
        Total length         54.2615 bohr
 
 
     Adding external electric field

     Computed dipole along edir(3) : 
        Dipole               -0.8562 Ry au,         -2.1763 Debye
        Dipole field         -0.0005 Ry au, 
 
        Potential amp.        0.0575 Ry
        Total length         54.2615 bohr
 

     total cpu time spent up to now is      238.1 secs

     total energy              =   -7397.94953926 Ry
     estimated scf accuracy    <       0.81938440 Ry

     total magnetization       =    78.81 Bohr mag/cell
     absolute magnetization    =    85.56 Bohr mag/cell

     iteration # 17     ecut=    50.00 Ry     beta= 0.10
     Davidson diagonalization with overlap
     ethr =  7.60E-05,  avg # of iterations =  2.0

     negative rho (up, down):  1.738E-03 1.987E-03
 
     Adding external electric field

     Computed dipole along edir(3) : 
        Dipole               -0.7144 Ry au,         -1.8158 Debye
        Dipole field         -0.0004 Ry au, 
 
        Potential amp.        0.0479 Ry
        Total length         54.2615 bohr
 
 
     Adding external electric field

     Computed dipole along edir(3) : 
        Dipole               -0.7144 Ry au,         -1.8158 Debye
        Dipole field         -0.0004 Ry au, 
 
        Potential amp.        0.0479 Ry
        Total length         54.2615 bohr
 

     total cpu time spent up to now is      249.5 secs

     total energy              =   -7397.99738972 Ry
     estimated scf accuracy    <       0.51409006 Ry

     total magnetization       =    80.02 Bohr mag/cell
     absolute magnetization    =    84.77 Bohr mag/cell

     iteration # 18     ecut=    50.00 Ry     beta= 0.10
     Davidson diagonalization with overlap
     ethr =  4.77E-05,  avg # of iterations = 10.5

     negative rho (up, down):  2.314E-03 2.377E-03
 
     Adding external electric field

     Computed dipole along edir(3) : 
        Dipole               -0.7266 Ry au,         -1.8469 Debye
        Dipole field         -0.0004 Ry au, 
 
        Potential amp.        0.0488 Ry
        Total length         54.2615 bohr
 
 
     Adding external electric field

     Computed dipole along edir(3) : 
        Dipole               -0.7266 Ry au,         -1.8469 Debye
        Dipole field         -0.0004 Ry au, 
 
        Potential amp.        0.0488 Ry
        Total length         54.2615 bohr
 

     total cpu time spent up to now is      264.6 secs

     total energy              =   -7398.01499764 Ry
     estimated scf accuracy    <       0.90841843 Ry

     total magnetization       =    79.67 Bohr mag/cell
     absolute magnetization    =    83.09 Bohr mag/cell

     iteration # 19     ecut=    50.00 Ry     beta= 0.10
     Davidson diagonalization with overlap
     ethr =  4.77E-05,  avg # of iterations =  1.5

     negative rho (up, down):  3.337E-04 4.596E-04
 
     Adding external electric field

     Computed dipole along edir(3) : 
        Dipole               -0.7641 Ry au,         -1.9422 Debye
        Dipole field         -0.0005 Ry au, 
 
        Potential amp.        0.0513 Ry
        Total length         54.2615 bohr
 
 
     Adding external electric field

     Computed dipole along edir(3) : 
        Dipole               -0.7641 Ry au,         -1.9422 Debye
        Dipole field         -0.0005 Ry au, 
 
        Potential amp.        0.0513 Ry
        Total length         54.2615 bohr
 

     total cpu time spent up to now is      275.0 secs

     total energy              =   -7398.02522062 Ry
     estimated scf accuracy    <       0.36225234 Ry

     total magnetization       =    80.25 Bohr mag/cell
     absolute magnetization    =    83.69 Bohr mag/cell

     iteration # 20     ecut=    50.00 Ry     beta= 0.10
     Davidson diagonalization with overlap
     ethr =  3.36E-05,  avg # of iterations =  2.0

     negative rho (up, down):  2.044E-04 2.444E-04
 
     Adding external electric field

     Computed dipole along edir(3) : 
        Dipole               -0.7701 Ry au,         -1.9575 Debye
        Dipole field         -0.0005 Ry au, 
 
        Potential amp.        0.0517 Ry
        Total length         54.2615 bohr
 
 
     Adding external electric field

     Computed dipole along edir(3) : 
        Dipole               -0.7701 Ry au,         -1.9575 Debye
        Dipole field         -0.0005 Ry au, 
 
        Potential amp.        0.0517 Ry
        Total length         54.2615 bohr
 

     total cpu time spent up to now is      286.1 secs

     total energy              =   -7398.01816564 Ry
     estimated scf accuracy    <       0.31776250 Ry

     total magnetization       =    79.88 Bohr mag/cell
     absolute magnetization    =    82.72 Bohr mag/cell

     iteration # 21     ecut=    50.00 Ry     beta= 0.10
     Davidson diagonalization with overlap
     ethr =  2.95E-05,  avg # of iterations =  2.0

     negative rho (up, down):  1.483E-04 1.648E-04
 
     Adding external electric field

     Computed dipole along edir(3) : 
        Dipole               -0.6478 Ry au,         -1.6466 Debye
        Dipole field         -0.0004 Ry au, 
 
        Potential amp.        0.0435 Ry
        Total length         54.2615 bohr
 
 
     Adding external electric field

     Computed dipole along edir(3) : 
        Dipole               -0.6478 Ry au,         -1.6466 Debye
        Dipole field         -0.0004 Ry au, 
 
        Potential amp.        0.0435 Ry
        Total length         54.2615 bohr
 

     total cpu time spent up to now is      297.8 secs

     total energy              =   -7398.02635819 Ry
     estimated scf accuracy    <       0.52387956 Ry

     total magnetization       =    79.41 Bohr mag/cell
     absolute magnetization    =    81.42 Bohr mag/cell

     iteration # 22     ecut=    50.00 Ry     beta= 0.10
     Davidson diagonalization with overlap
     ethr =  2.95E-05,  avg # of iterations =  1.0

     negative rho (up, down):  1.719E-04 2.283E-04
 
     Adding external electric field

     Computed dipole along edir(3) : 
        Dipole               -0.6007 Ry au,         -1.5268 Debye
        Dipole field         -0.0004 Ry au, 
 
        Potential amp.        0.0403 Ry
        Total length         54.2615 bohr
 
 
     Adding external electric field

     Computed dipole along edir(3) : 
        Dipole               -0.6007 Ry au,         -1.5268 Debye
        Dipole field         -0.0004 Ry au, 
 
        Potential amp.        0.0403 Ry
        Total length         54.2615 bohr
 

     total cpu time spent up to now is      308.7 secs

     total energy              =   -7398.03179448 Ry
     estimated scf accuracy    <       0.02175030 Ry

     total magnetization       =    80.18 Bohr mag/cell
     absolute magnetization    =    81.79 Bohr mag/cell

     iteration # 23     ecut=    50.00 Ry     beta= 0.10
     Davidson diagonalization with overlap
     ethr =  2.02E-06,  avg # of iterations = 19.5

     negative rho (up, down):  4.143E-06 7.653E-06
 
     Adding external electric field

     Computed dipole along edir(3) : 
        Dipole               -0.5420 Ry au,         -1.3776 Debye
        Dipole field         -0.0003 Ry au, 
 
        Potential amp.        0.0364 Ry
        Total length         54.2615 bohr
 
 
     Adding external electric field

     Computed dipole along edir(3) : 
        Dipole               -0.5420 Ry au,         -1.3776 Debye
        Dipole field         -0.0003 Ry au, 
 
        Potential amp.        0.0364 Ry
        Total length         54.2615 bohr
 

     total cpu time spent up to now is      338.7 secs

     total energy              =   -7398.03381816 Ry
     estimated scf accuracy    <       0.04476394 Ry

     total magnetization       =    80.05 Bohr mag/cell
     absolute magnetization    =    81.49 Bohr mag/cell

     iteration # 24     ecut=    50.00 Ry     beta= 0.10
     Davidson diagonalization with overlap
     ethr =  2.02E-06,  avg # of iterations =  1.0

     negative rho (up, down):  1.257E-06 5.924E-07
 
     Adding external electric field

     Computed dipole along edir(3) : 
        Dipole               -0.5121 Ry au,         -1.3016 Debye
        Dipole field         -0.0003 Ry au, 
 
        Potential amp.        0.0344 Ry
        Total length         54.2615 bohr
 
 
     Adding external electric field

     Computed dipole along edir(3) : 
        Dipole               -0.5121 Ry au,         -1.3016 Debye
        Dipole field         -0.0003 Ry au, 
 
        Potential amp.        0.0344 Ry
        Total length         54.2615 bohr
 

     total cpu time spent up to now is      349.0 secs

     total energy              =   -7398.03369119 Ry
     estimated scf accuracy    <       0.04862329 Ry

     total magnetization       =    80.02 Bohr mag/cell
     absolute magnetization    =    81.50 Bohr mag/cell

     iteration # 25     ecut=    50.00 Ry     beta= 0.10
     Davidson diagonalization with overlap
     ethr =  2.02E-06,  avg # of iterations =  1.0

     negative rho (up, down):  1.128E-05 4.409E-06
 
     Adding external electric field

     Computed dipole along edir(3) : 
        Dipole               -0.4788 Ry au,         -1.2171 Debye
        Dipole field         -0.0003 Ry au, 
 
        Potential amp.        0.0321 Ry
        Total length         54.2615 bohr
 
 
     Adding external electric field

     Computed dipole along edir(3) : 
        Dipole               -0.4788 Ry au,         -1.2171 Debye
        Dipole field         -0.0003 Ry au, 
 
        Potential amp.        0.0321 Ry
        Total length         54.2615 bohr
 

     total cpu time spent up to now is      359.2 secs

     total energy              =   -7398.03336165 Ry
     estimated scf accuracy    <       0.02515650 Ry

     total magnetization       =    80.08 Bohr mag/cell
     absolute magnetization    =    81.56 Bohr mag/cell

     iteration # 26     ecut=    50.00 Ry     beta= 0.10
     Davidson diagonalization with overlap
     ethr =  2.02E-06,  avg # of iterations =  1.0

     negative rho (up, down):  1.306E-05 5.334E-06
 
     Adding external electric field

     Computed dipole along edir(3) : 
        Dipole               -0.4845 Ry au,         -1.2315 Debye
        Dipole field         -0.0003 Ry au, 
 
        Potential amp.        0.0325 Ry
        Total length         54.2615 bohr
 
 
     Adding external electric field

     Computed dipole along edir(3) : 
        Dipole               -0.4845 Ry au,         -1.2315 Debye
        Dipole field         -0.0003 Ry au, 
 
        Potential amp.        0.0325 Ry
        Total length         54.2615 bohr
 

     total cpu time spent up to now is      369.3 secs

     total energy              =   -7398.03346809 Ry
     estimated scf accuracy    <       0.02619893 Ry

     total magnetization       =    80.07 Bohr mag/cell
     absolute magnetization    =    81.55 Bohr mag/cell

     iteration # 27     ecut=    50.00 Ry     beta= 0.10
     Davidson diagonalization with overlap
     ethr =  2.02E-06,  avg # of iterations =  1.0

     negative rho (up, down):  4.200E-06 3.037E-06
 
     Adding external electric field

     Computed dipole along edir(3) : 
        Dipole               -0.3959 Ry au,         -1.0063 Debye
        Dipole field         -0.0002 Ry au, 
 
        Potential amp.        0.0266 Ry
        Total length         54.2615 bohr
 
 
     Adding external electric field

     Computed dipole along edir(3) : 
        Dipole               -0.3959 Ry au,         -1.0063 Debye
        Dipole field         -0.0002 Ry au, 
 
        Potential amp.        0.0266 Ry
        Total length         54.2615 bohr
 

     total cpu time spent up to now is      379.6 secs

     total energy              =   -7398.03304017 Ry
     estimated scf accuracy    <       0.02682059 Ry

     total magnetization       =    80.07 Bohr mag/cell
     absolute magnetization    =    81.55 Bohr mag/cell

     iteration # 28     ecut=    50.00 Ry     beta= 0.10
     Davidson diagonalization with overlap
     ethr =  2.02E-06,  avg # of iterations =  2.0

     negative rho (up, down):  6.026E-06 5.617E-06
 
     Adding external electric field

     Computed dipole along edir(3) : 
        Dipole               -0.3848 Ry au,         -0.9780 Debye
        Dipole field         -0.0002 Ry au, 
 
        Potential amp.        0.0258 Ry
        Total length         54.2615 bohr
 
 
     Adding external electric field

     Computed dipole along edir(3) : 
        Dipole               -0.3848 Ry au,         -0.9780 Debye
        Dipole field         -0.0002 Ry au, 
 
        Potential amp.        0.0258 Ry
        Total length         54.2615 bohr
 

     total cpu time spent up to now is      390.9 secs

     total energy              =   -7398.03308369 Ry
     estimated scf accuracy    <       0.01791095 Ry

     total magnetization       =    80.02 Bohr mag/cell
     absolute magnetization    =    81.51 Bohr mag/cell

     iteration # 29     ecut=    50.00 Ry     beta= 0.10
     Davidson diagonalization with overlap
     ethr =  1.66E-06,  avg # of iterations =  1.0

     negative rho (up, down):  4.011E-06 3.664E-06
 
     Adding external electric field

     Computed dipole along edir(3) : 
        Dipole               -0.3909 Ry au,         -0.9935 Debye
        Dipole field         -0.0002 Ry au, 
 
        Potential amp.        0.0262 Ry
        Total length         54.2615 bohr
 
 
     Adding external electric field

     Computed dipole along edir(3) : 
        Dipole               -0.3909 Ry au,         -0.9935 Debye
        Dipole field         -0.0002 Ry au, 
 
        Potential amp.        0.0262 Ry
        Total length         54.2615 bohr
 

     total cpu time spent up to now is      401.4 secs

     total energy              =   -7398.03312655 Ry
     estimated scf accuracy    <       0.02464361 Ry

     total magnetization       =    80.07 Bohr mag/cell
     absolute magnetization    =    81.56 Bohr mag/cell

     iteration # 30     ecut=    50.00 Ry     beta= 0.10
     Davidson diagonalization with overlap
     ethr =  1.66E-06,  avg # of iterations =  1.0

     negative rho (up, down):  5.074E-06 4.656E-06
 
     Adding external electric field

     Computed dipole along edir(3) : 
        Dipole               -0.3903 Ry au,         -0.9921 Debye
        Dipole field         -0.0002 Ry au, 
 
        Potential amp.        0.0262 Ry
        Total length         54.2615 bohr
 
 
     Adding external electric field

     Computed dipole along edir(3) : 
        Dipole               -0.3903 Ry au,         -0.9921 Debye
        Dipole field         -0.0002 Ry au, 
 
        Potential amp.        0.0262 Ry
        Total length         54.2615 bohr
 

     total cpu time spent up to now is      411.5 secs

     total energy              =   -7398.03315585 Ry
     estimated scf accuracy    <       0.02586350 Ry

     total magnetization       =    80.09 Bohr mag/cell
     absolute magnetization    =    81.55 Bohr mag/cell

     iteration # 31     ecut=    50.00 Ry     beta= 0.10
     Davidson diagonalization with overlap
     ethr =  1.66E-06,  avg # of iterations =  1.0

     negative rho (up, down):  6.180E-05 6.337E-05
 
     Adding external electric field

     Computed dipole along edir(3) : 
        Dipole               -0.3510 Ry au,         -0.8920 Debye
        Dipole field         -0.0002 Ry au, 
 
        Potential amp.        0.0236 Ry
        Total length         54.2615 bohr
 
 
     Adding external electric field

     Computed dipole along edir(3) : 
        Dipole               -0.3510 Ry au,         -0.8920 Debye
        Dipole field         -0.0002 Ry au, 
 
        Potential amp.        0.0236 Ry
        Total length         54.2615 bohr
 

     total cpu time spent up to now is      421.8 secs

     total energy              =   -7398.03261748 Ry
     estimated scf accuracy    <       0.02602581 Ry

     total magnetization       =    80.09 Bohr mag/cell
     absolute magnetization    =    81.56 Bohr mag/cell

     iteration # 32     ecut=    50.00 Ry     beta= 0.10
     Davidson diagonalization with overlap
     ethr =  1.66E-06,  avg # of iterations =  1.0

     negative rho (up, down):  4.930E-04 4.980E-04
 
     Adding external electric field

     Computed dipole along edir(3) : 
        Dipole               -0.2363 Ry au,         -0.6006 Debye
        Dipole field         -0.0001 Ry au, 
 
        Potential amp.        0.0159 Ry
        Total length         54.2615 bohr
 
 
     Adding external electric field

     Computed dipole along edir(3) : 
        Dipole               -0.2363 Ry au,         -0.6006 Debye
        Dipole field         -0.0001 Ry au, 
 
        Potential amp.        0.0159 Ry
        Total length         54.2615 bohr
 

     total cpu time spent up to now is      432.6 secs

     total energy              =   -7398.03167191 Ry
     estimated scf accuracy    <       0.02415605 Ry

     total magnetization       =    80.11 Bohr mag/cell
     absolute magnetization    =    81.60 Bohr mag/cell

     iteration # 33     ecut=    50.00 Ry     beta= 0.10
     Davidson diagonalization with overlap
     ethr =  1.66E-06,  avg # of iterations =  2.0

     negative rho (up, down):  3.039E-03 3.091E-03
 
     Adding external electric field

     Computed dipole along edir(3) : 
        Dipole               -0.0349 Ry au,         -0.0887 Debye
        Dipole field         -0.0000 Ry au, 
 
        Potential amp.        0.0023 Ry
        Total length         54.2615 bohr
 
 
     Adding external electric field

     Computed dipole along edir(3) : 
        Dipole               -0.0349 Ry au,         -0.0887 Debye
        Dipole field         -0.0000 Ry au, 
 
        Potential amp.        0.0023 Ry
        Total length         54.2615 bohr
 

     total cpu time spent up to now is      444.4 secs

     total energy              =   -7398.03047669 Ry
     estimated scf accuracy    <       0.01661426 Ry

     total magnetization       =    80.09 Bohr mag/cell
     absolute magnetization    =    81.57 Bohr mag/cell

     iteration # 34     ecut=    50.00 Ry     beta= 0.10
     Davidson diagonalization with overlap
     ethr =  1.54E-06,  avg # of iterations =  9.5

     negative rho (up, down):  5.842E-03 5.746E-03
 
     Adding external electric field

     Computed dipole along edir(3) : 
        Dipole                0.1492 Ry au,          0.3792 Debye
        Dipole field          0.0001 Ry au, 
 
        Potential amp.       -0.0100 Ry
        Total length         54.2615 bohr
 
 
     Adding external electric field

     Computed dipole along edir(3) : 
        Dipole                0.1492 Ry au,          0.3792 Debye
        Dipole field          0.0001 Ry au, 
 
        Potential amp.       -0.0100 Ry
        Total length         54.2615 bohr
 

     total cpu time spent up to now is      459.8 secs

     total energy              =   -7398.03002752 Ry
     estimated scf accuracy    <       0.01481888 Ry

     total magnetization       =    80.13 Bohr mag/cell
     absolute magnetization    =    81.67 Bohr mag/cell

     iteration # 35     ecut=    50.00 Ry     beta= 0.10
     Davidson diagonalization with overlap
     c_bands:  1 eigenvalues not converged
     ethr =  1.37E-06,  avg # of iterations = 21.0

     negative rho (up, down):  5.128E-03 4.880E-03
 
     Adding external electric field

     Computed dipole along edir(3) : 
        Dipole                0.1705 Ry au,          0.4333 Debye
        Dipole field          0.0001 Ry au, 
 
        Potential amp.       -0.0114 Ry
        Total length         54.2615 bohr
 
 
     Adding external electric field

     Computed dipole along edir(3) : 
        Dipole                0.1705 Ry au,          0.4333 Debye
        Dipole field          0.0001 Ry au, 
 
        Potential amp.       -0.0114 Ry
        Total length         54.2615 bohr
 

     total cpu time spent up to now is      485.1 secs

     total energy              =   -7398.02984399 Ry
     estimated scf accuracy    <       0.01282712 Ry

     total magnetization       =    80.14 Bohr mag/cell
     absolute magnetization    =    81.72 Bohr mag/cell

     iteration # 36     ecut=    50.00 Ry     beta= 0.10
     Davidson diagonalization with overlap
     ethr =  1.19E-06,  avg # of iterations =  2.5

     negative rho (up, down):  5.044E-03 4.563E-03
 
     Adding external electric field

     Computed dipole along edir(3) : 
        Dipole                0.2220 Ry au,          0.5642 Debye
        Dipole field          0.0001 Ry au, 
 
        Potential amp.       -0.0149 Ry
        Total length         54.2615 bohr
 
 
     Adding external electric field

     Computed dipole along edir(3) : 
        Dipole                0.2220 Ry au,          0.5642 Debye
        Dipole field          0.0001 Ry au, 
 
        Potential amp.       -0.0149 Ry
        Total length         54.2615 bohr
 

     total cpu time spent up to now is      496.9 secs

     total energy              =   -7398.02938120 Ry
     estimated scf accuracy    <       0.01051087 Ry

     total magnetization       =    80.16 Bohr mag/cell
     absolute magnetization    =    81.75 Bohr mag/cell

     iteration # 37     ecut=    50.00 Ry     beta= 0.10
     Davidson diagonalization with overlap
     ethr =  9.75E-07,  avg # of iterations =  2.0

     negative rho (up, down):  2.983E-03 2.558E-03
 
     Adding external electric field

     Computed dipole along edir(3) : 
        Dipole                0.2067 Ry au,          0.5255 Debye
        Dipole field          0.0001 Ry au, 
 
        Potential amp.       -0.0139 Ry
        Total length         54.2615 bohr
 
 
     Adding external electric field

     Computed dipole along edir(3) : 
        Dipole                0.2067 Ry au,          0.5255 Debye
        Dipole field          0.0001 Ry au, 
 
        Potential amp.       -0.0139 Ry
        Total length         54.2615 bohr
 

     total cpu time spent up to now is      508.3 secs

     total energy              =   -7398.02916323 Ry
     estimated scf accuracy    <       0.00783206 Ry

     total magnetization       =    80.18 Bohr mag/cell
     absolute magnetization    =    81.73 Bohr mag/cell

     iteration # 38     ecut=    50.00 Ry     beta= 0.10
     Davidson diagonalization with overlap
     ethr =  7.27E-07,  avg # of iterations =  2.0

     negative rho (up, down):  2.344E-03 2.067E-03
 
     Adding external electric field

     Computed dipole along edir(3) : 
        Dipole                0.3376 Ry au,          0.8581 Debye
        Dipole field          0.0002 Ry au, 
 
        Potential amp.       -0.0227 Ry
        Total length         54.2615 bohr
 
 
     Adding external electric field

     Computed dipole along edir(3) : 
        Dipole                0.3376 Ry au,          0.8581 Debye
        Dipole field          0.0002 Ry au, 
 
        Potential amp.       -0.0227 Ry
        Total length         54.2615 bohr
 

     total cpu time spent up to now is      519.7 secs

     total energy              =   -7398.02946941 Ry
     estimated scf accuracy    <       0.00459163 Ry

     total magnetization       =    80.17 Bohr mag/cell
     absolute magnetization    =    81.71 Bohr mag/cell

     iteration # 39     ecut=    50.00 Ry     beta= 0.10
     Davidson diagonalization with overlap
     ethr =  4.26E-07,  avg # of iterations =  3.0

     negative rho (up, down):  1.682E-03 1.605E-03
 
     Adding external electric field

     Computed dipole along edir(3) : 
        Dipole                0.3520 Ry au,          0.8946 Debye
        Dipole field          0.0002 Ry au, 
 
        Potential amp.       -0.0236 Ry
        Total length         54.2615 bohr
 
 
     Adding external electric field

     Computed dipole along edir(3) : 
        Dipole                0.3520 Ry au,          0.8946 Debye
        Dipole field          0.0002 Ry au, 
 
        Potential amp.       -0.0236 Ry
        Total length         54.2615 bohr
 

     total cpu time spent up to now is      533.2 secs

     total energy              =   -7398.02985910 Ry
     estimated scf accuracy    <       0.00115299 Ry

     total magnetization       =    80.11 Bohr mag/cell
     absolute magnetization    =    81.63 Bohr mag/cell

     iteration # 40     ecut=    50.00 Ry     beta= 0.10
     Davidson diagonalization with overlap
     ethr =  1.07E-07,  avg # of iterations =  2.0

     negative rho (up, down):  6.785E-04 6.179E-04
 
     Adding external electric field

     Computed dipole along edir(3) : 
        Dipole                0.3189 Ry au,          0.8106 Debye
        Dipole field          0.0002 Ry au, 
 
        Potential amp.       -0.0214 Ry
        Total length         54.2615 bohr
 
 
     Adding external electric field

     Computed dipole along edir(3) : 
        Dipole                0.3189 Ry au,          0.8106 Debye
        Dipole field          0.0002 Ry au, 
 
        Potential amp.       -0.0214 Ry
        Total length         54.2615 bohr
 

     total cpu time spent up to now is      544.5 secs

     total energy              =   -7398.02984034 Ry
     estimated scf accuracy    <       0.00091057 Ry

     total magnetization       =    80.10 Bohr mag/cell
     absolute magnetization    =    81.64 Bohr mag/cell

     iteration # 41     ecut=    50.00 Ry     beta= 0.10
     Davidson diagonalization with overlap
     ethr =  8.45E-08,  avg # of iterations =  2.0

     negative rho (up, down):  7.381E-04 6.860E-04
 
     Adding external electric field

     Computed dipole along edir(3) : 
        Dipole                0.3258 Ry au,          0.8281 Debye
        Dipole field          0.0002 Ry au, 
 
        Potential amp.       -0.0219 Ry
        Total length         54.2615 bohr
 
 
     Adding external electric field

     Computed dipole along edir(3) : 
        Dipole                0.3258 Ry au,          0.8281 Debye
        Dipole field          0.0002 Ry au, 
 
        Potential amp.       -0.0219 Ry
        Total length         54.2615 bohr
 

     total cpu time spent up to now is      555.8 secs

     total energy              =   -7398.02989743 Ry
     estimated scf accuracy    <       0.00059154 Ry

     total magnetization       =    80.11 Bohr mag/cell
     absolute magnetization    =    81.67 Bohr mag/cell

     iteration # 42     ecut=    50.00 Ry     beta= 0.10
     Davidson diagonalization with overlap
     ethr =  5.49E-08,  avg # of iterations =  2.0

     negative rho (up, down):  2.567E-04 2.249E-04
 
     Adding external electric field

     Computed dipole along edir(3) : 
        Dipole                0.2902 Ry au,          0.7375 Debye
        Dipole field          0.0002 Ry au, 
 
        Potential amp.       -0.0195 Ry
        Total length         54.2615 bohr
 
 
     Adding external electric field

     Computed dipole along edir(3) : 
        Dipole                0.2902 Ry au,          0.7375 Debye
        Dipole field          0.0002 Ry au, 
 
        Potential amp.       -0.0195 Ry
        Total length         54.2615 bohr
 

     total cpu time spent up to now is      567.6 secs

     total energy              =   -7398.02988282 Ry
     estimated scf accuracy    <       0.00058284 Ry

     total magnetization       =    80.10 Bohr mag/cell
     absolute magnetization    =    81.65 Bohr mag/cell

     iteration # 43     ecut=    50.00 Ry     beta= 0.10
     Davidson diagonalization with overlap
     ethr =  5.41E-08,  avg # of iterations =  6.0

     negative rho (up, down):  1.211E-04 1.027E-04
 
     Adding external electric field

     Computed dipole along edir(3) : 
        Dipole                0.2670 Ry au,          0.6787 Debye
        Dipole field          0.0002 Ry au, 
 
        Potential amp.       -0.0179 Ry
        Total length         54.2615 bohr
 
 
     Adding external electric field

     Computed dipole along edir(3) : 
        Dipole                0.2670 Ry au,          0.6787 Debye
        Dipole field          0.0002 Ry au, 
 
        Potential amp.       -0.0179 Ry
        Total length         54.2615 bohr
 

     total cpu time spent up to now is      581.4 secs

     total energy              =   -7398.02990414 Ry
     estimated scf accuracy    <       0.00037187 Ry

     total magnetization       =    80.10 Bohr mag/cell
     absolute magnetization    =    81.65 Bohr mag/cell

     iteration # 44     ecut=    50.00 Ry     beta= 0.10
     Davidson diagonalization with overlap
     ethr =  3.45E-08,  avg # of iterations =  2.0

     negative rho (up, down):  1.241E-04 9.462E-05
 
     Adding external electric field

     Computed dipole along edir(3) : 
        Dipole                0.2714 Ry au,          0.6897 Debye
        Dipole field          0.0002 Ry au, 
 
        Potential amp.       -0.0182 Ry
        Total length         54.2615 bohr
 
 
     Adding external electric field

     Computed dipole along edir(3) : 
        Dipole                0.2714 Ry au,          0.6897 Debye
        Dipole field          0.0002 Ry au, 
 
        Potential amp.       -0.0182 Ry
        Total length         54.2615 bohr
 

     total cpu time spent up to now is      594.8 secs

     total energy              =   -7398.02994394 Ry
     estimated scf accuracy    <       0.00027067 Ry

     total magnetization       =    80.10 Bohr mag/cell
     absolute magnetization    =    81.64 Bohr mag/cell

     iteration # 45     ecut=    50.00 Ry     beta= 0.10
     Davidson diagonalization with overlap
     ethr =  2.51E-08,  avg # of iterations =  2.0

     negative rho (up, down):  1.349E-04 8.897E-05
 
     Adding external electric field

     Computed dipole along edir(3) : 
        Dipole                0.2772 Ry au,          0.7045 Debye
        Dipole field          0.0002 Ry au, 
 
        Potential amp.       -0.0186 Ry
        Total length         54.2615 bohr
 
 
     Adding external electric field

     Computed dipole along edir(3) : 
        Dipole                0.2772 Ry au,          0.7045 Debye
        Dipole field          0.0002 Ry au, 
 
        Potential amp.       -0.0186 Ry
        Total length         54.2615 bohr
 

     total cpu time spent up to now is      606.3 secs

     total energy              =   -7398.02997601 Ry
     estimated scf accuracy    <       0.00020759 Ry

     total magnetization       =    80.10 Bohr mag/cell
     absolute magnetization    =    81.63 Bohr mag/cell

     iteration # 46     ecut=    50.00 Ry     beta= 0.10
     Davidson diagonalization with overlap
     ethr =  1.93E-08,  avg # of iterations =  2.0

     negative rho (up, down):  1.785E-04 8.186E-05
 
     Adding external electric field

     Computed dipole along edir(3) : 
        Dipole                0.2819 Ry au,          0.7166 Debye
        Dipole field          0.0002 Ry au, 
 
        Potential amp.       -0.0189 Ry
        Total length         54.2615 bohr
 
 
     Adding external electric field

     Computed dipole along edir(3) : 
        Dipole                0.2819 Ry au,          0.7166 Debye
        Dipole field          0.0002 Ry au, 
 
        Potential amp.       -0.0189 Ry
        Total length         54.2615 bohr
 

     total cpu time spent up to now is      617.7 secs

     total energy              =   -7398.03000763 Ry
     estimated scf accuracy    <       0.00018986 Ry

     total magnetization       =    80.10 Bohr mag/cell
     absolute magnetization    =    81.63 Bohr mag/cell

     iteration # 47     ecut=    50.00 Ry     beta= 0.10
     Davidson diagonalization with overlap
     ethr =  1.76E-08,  avg # of iterations =  2.0

     negative rho (up, down):  4.370E-04 2.308E-04
 
     Adding external electric field

     Computed dipole along edir(3) : 
        Dipole                0.2873 Ry au,          0.7302 Debye
        Dipole field          0.0002 Ry au, 
 
        Potential amp.       -0.0193 Ry
        Total length         54.2615 bohr
 
 
     Adding external electric field

     Computed dipole along edir(3) : 
        Dipole                0.2873 Ry au,          0.7302 Debye
        Dipole field          0.0002 Ry au, 
 
        Potential amp.       -0.0193 Ry
        Total length         54.2615 bohr
 

     total cpu time spent up to now is      629.0 secs

     total energy              =   -7398.03002564 Ry
     estimated scf accuracy    <       0.00013582 Ry

     total magnetization       =    80.09 Bohr mag/cell
     absolute magnetization    =    81.63 Bohr mag/cell

     iteration # 48     ecut=    50.00 Ry     beta= 0.10
     Davidson diagonalization with overlap
     c_bands:  2 eigenvalues not converged
     ethr =  1.26E-08,  avg # of iterations = 11.0

     negative rho (up, down):  9.491E-04 6.411E-04
 
     Adding external electric field

     Computed dipole along edir(3) : 
        Dipole                0.2930 Ry au,          0.7448 Debye
        Dipole field          0.0002 Ry au, 
 
        Potential amp.       -0.0197 Ry
        Total length         54.2615 bohr
 
 
     Adding external electric field

     Computed dipole along edir(3) : 
        Dipole                0.2930 Ry au,          0.7448 Debye
        Dipole field          0.0002 Ry au, 
 
        Potential amp.       -0.0197 Ry
        Total length         54.2615 bohr
 

     total cpu time spent up to now is      645.6 secs

     total energy              =   -7398.03003706 Ry
     estimated scf accuracy    <       0.00010217 Ry

     total magnetization       =    80.10 Bohr mag/cell
     absolute magnetization    =    81.63 Bohr mag/cell

     iteration # 49     ecut=    50.00 Ry     beta= 0.10
     Davidson diagonalization with overlap
     ethr =  9.48E-09,  avg # of iterations =  2.0

     negative rho (up, down):  1.360E-03 1.046E-03
 
     Adding external electric field

     Computed dipole along edir(3) : 
        Dipole                0.2958 Ry au,          0.7519 Debye
        Dipole field          0.0002 Ry au, 
 
        Potential amp.       -0.0199 Ry
        Total length         54.2615 bohr
 
 
     Adding external electric field

     Computed dipole along edir(3) : 
        Dipole                0.2958 Ry au,          0.7519 Debye
        Dipole field          0.0002 Ry au, 
 
        Potential amp.       -0.0199 Ry
        Total length         54.2615 bohr
 

     total cpu time spent up to now is      657.2 secs

     total energy              =   -7398.03004067 Ry
     estimated scf accuracy    <       0.00006099 Ry

     total magnetization       =    80.10 Bohr mag/cell
     absolute magnetization    =    81.63 Bohr mag/cell

     iteration # 50     ecut=    50.00 Ry     beta= 0.10
     Davidson diagonalization with overlap
     ethr =  5.66E-09,  avg # of iterations =  2.0

     negative rho (up, down):  1.487E-03 1.156E-03
 
     Adding external electric field

     Computed dipole along edir(3) : 
        Dipole                0.2984 Ry au,          0.7586 Debye
        Dipole field          0.0002 Ry au, 
 
        Potential amp.       -0.0200 Ry
        Total length         54.2615 bohr
 
 
     Adding external electric field

     Computed dipole along edir(3) : 
        Dipole                0.2984 Ry au,          0.7586 Debye
        Dipole field          0.0002 Ry au, 
 
        Potential amp.       -0.0200 Ry
        Total length         54.2615 bohr
 

     total cpu time spent up to now is      670.7 secs

     total energy              =   -7398.03004248 Ry
     estimated scf accuracy    <       0.00003999 Ry

     total magnetization       =    80.10 Bohr mag/cell
     absolute magnetization    =    81.62 Bohr mag/cell

     iteration # 51     ecut=    50.00 Ry     beta= 0.10
     Davidson diagonalization with overlap
     ethr =  3.71E-09,  avg # of iterations =  2.0

     negative rho (up, down):  1.751E-03 1.439E-03
 
     Adding external electric field

     Computed dipole along edir(3) : 
        Dipole                0.3012 Ry au,          0.7655 Debye
        Dipole field          0.0002 Ry au, 
 
        Potential amp.       -0.0202 Ry
        Total length         54.2615 bohr
 
 
     Adding external electric field

     Computed dipole along edir(3) : 
        Dipole                0.3012 Ry au,          0.7655 Debye
        Dipole field          0.0002 Ry au, 
 
        Potential amp.       -0.0202 Ry
        Total length         54.2615 bohr
 

     total cpu time spent up to now is      682.3 secs

     total energy              =   -7398.03004447 Ry
     estimated scf accuracy    <       0.00003056 Ry

     total magnetization       =    80.10 Bohr mag/cell
     absolute magnetization    =    81.62 Bohr mag/cell

     iteration # 52     ecut=    50.00 Ry     beta= 0.10
     Davidson diagonalization with overlap
     ethr =  2.84E-09,  avg # of iterations =  1.0

     negative rho (up, down):  1.635E-03 1.296E-03
 
     Adding external electric field

     Computed dipole along edir(3) : 
        Dipole                0.3047 Ry au,          0.7745 Debye
        Dipole field          0.0002 Ry au, 
 
        Potential amp.       -0.0205 Ry
        Total length         54.2615 bohr
 
 
     Adding external electric field

     Computed dipole along edir(3) : 
        Dipole                0.3047 Ry au,          0.7745 Debye
        Dipole field          0.0002 Ry au, 
 
        Potential amp.       -0.0205 Ry
        Total length         54.2615 bohr
 

     total cpu time spent up to now is      694.5 secs

     total energy              =   -7398.03004298 Ry
     estimated scf accuracy    <       0.00002554 Ry

     total magnetization       =    80.10 Bohr mag/cell
     absolute magnetization    =    81.62 Bohr mag/cell

     iteration # 53     ecut=    50.00 Ry     beta= 0.10
     Davidson diagonalization with overlap
     ethr =  2.37E-09,  avg # of iterations =  1.5

     negative rho (up, down):  1.464E-03 1.102E-03
 
     Adding external electric field

     Computed dipole along edir(3) : 
        Dipole                0.3072 Ry au,          0.7808 Debye
        Dipole field          0.0002 Ry au, 
 
        Potential amp.       -0.0206 Ry
        Total length         54.2615 bohr
 
 
     Adding external electric field

     Computed dipole along edir(3) : 
        Dipole                0.3072 Ry au,          0.7808 Debye
        Dipole field          0.0002 Ry au, 
 
        Potential amp.       -0.0206 Ry
        Total length         54.2615 bohr
 

     total cpu time spent up to now is      708.4 secs

     total energy              =   -7398.03004020 Ry
     estimated scf accuracy    <       0.00001848 Ry

     total magnetization       =    80.10 Bohr mag/cell
     absolute magnetization    =    81.62 Bohr mag/cell

     iteration # 54     ecut=    50.00 Ry     beta= 0.10
     Davidson diagonalization with overlap
     ethr =  1.71E-09,  avg # of iterations =  1.5

     negative rho (up, down):  1.250E-03 8.718E-04
 
     Adding external electric field

     Computed dipole along edir(3) : 
        Dipole                0.3059 Ry au,          0.7774 Debye
        Dipole field          0.0002 Ry au, 
 
        Potential amp.       -0.0205 Ry
        Total length         54.2615 bohr
 
 
     Adding external electric field

     Computed dipole along edir(3) : 
        Dipole                0.3059 Ry au,          0.7774 Debye
        Dipole field          0.0002 Ry au, 
 
        Potential amp.       -0.0205 Ry
        Total length         54.2615 bohr
 

     total cpu time spent up to now is      720.0 secs

     total energy              =   -7398.03003823 Ry
     estimated scf accuracy    <       0.00001194 Ry

     total magnetization       =    80.10 Bohr mag/cell
     absolute magnetization    =    81.62 Bohr mag/cell

     iteration # 55     ecut=    50.00 Ry     beta= 0.10
     Davidson diagonalization with overlap
     ethr =  1.11E-09,  avg # of iterations =  1.0

     negative rho (up, down):  1.156E-03 7.593E-04
 
     Adding external electric field

     Computed dipole along edir(3) : 
        Dipole                0.3044 Ry au,          0.7737 Debye
        Dipole field          0.0002 Ry au, 
 
        Potential amp.       -0.0204 Ry
        Total length         54.2615 bohr
 
 
     Adding external electric field

     Computed dipole along edir(3) : 
        Dipole                0.3044 Ry au,          0.7737 Debye
        Dipole field          0.0002 Ry au, 
 
        Potential amp.       -0.0204 Ry
        Total length         54.2615 bohr
 

     total cpu time spent up to now is      732.1 secs

     total energy              =   -7398.03003717 Ry
     estimated scf accuracy    <       0.00000910 Ry

     total magnetization       =    80.09 Bohr mag/cell
     absolute magnetization    =    81.62 Bohr mag/cell

     iteration # 56     ecut=    50.00 Ry     beta= 0.10
     Davidson diagonalization with overlap
     ethr =  8.44E-10,  avg # of iterations =  2.0

     negative rho (up, down):  1.177E-03 7.729E-04
 
     Adding external electric field

     Computed dipole along edir(3) : 
        Dipole                0.3034 Ry au,          0.7712 Debye
        Dipole field          0.0002 Ry au, 
 
        Potential amp.       -0.0204 Ry
        Total length         54.2615 bohr
 
 
     Adding external electric field

     Computed dipole along edir(3) : 
        Dipole                0.3034 Ry au,          0.7712 Debye
        Dipole field          0.0002 Ry au, 
 
        Potential amp.       -0.0204 Ry
        Total length         54.2615 bohr
 

     total cpu time spent up to now is      743.6 secs

     total energy              =   -7398.03003764 Ry
     estimated scf accuracy    <       0.00000585 Ry

     total magnetization       =    80.09 Bohr mag/cell
     absolute magnetization    =    81.62 Bohr mag/cell

     iteration # 57     ecut=    50.00 Ry     beta= 0.10
     Davidson diagonalization with overlap
     ethr =  5.42E-10,  avg # of iterations =  1.0

     negative rho (up, down):  1.162E-03 7.558E-04
 
     Adding external electric field

     Computed dipole along edir(3) : 
        Dipole                0.3020 Ry au,          0.7677 Debye
        Dipole field          0.0002 Ry au, 
 
        Potential amp.       -0.0203 Ry
        Total length         54.2615 bohr
 
 
     Adding external electric field

     Computed dipole along edir(3) : 
        Dipole                0.3020 Ry au,          0.7677 Debye
        Dipole field          0.0002 Ry au, 
 
        Potential amp.       -0.0203 Ry
        Total length         54.2615 bohr
 

     total cpu time spent up to now is      755.1 secs

     total energy              =   -7398.03003770 Ry
     estimated scf accuracy    <       0.00000417 Ry

     total magnetization       =    80.09 Bohr mag/cell
     absolute magnetization    =    81.62 Bohr mag/cell

     iteration # 58     ecut=    50.00 Ry     beta= 0.10
     Davidson diagonalization with overlap
     ethr =  3.87E-10,  avg # of iterations =  1.0

     negative rho (up, down):  9.552E-04 5.698E-04
 
     Adding external electric field

     Computed dipole along edir(3) : 
        Dipole                0.2990 Ry au,          0.7599 Debye
        Dipole field          0.0002 Ry au, 
 
        Potential amp.       -0.0201 Ry
[...]
    -5.9500  -5.9328  -5.9194  -5.9102  -5.8826  -5.8540  -5.8168  -5.8108
    -5.7776  -5.7634  -5.7551  -5.7342  -5.7226  -5.6919  -5.6790  -5.6466
    -5.6403  -5.6263  -5.5977  -5.5890  -5.5793  -5.5608  -5.5262  -5.4791
    -5.4610  -5.4237  -5.3958  -5.3883  -5.3583  -5.3447  -5.3136  -5.2788
    -5.2366  -5.2030  -5.1868  -5.1407  -5.1013  -5.0743  -5.0308  -5.0254
    -4.9967  -4.9707  -4.9560  -4.9068  -4.8930  -4.8612  -4.8405  -4.8239
    -4.7900  -4.7526  -4.6952  -4.6924  -4.6581  -4.6189  -4.5696  -4.5609
    -4.4952  -4.4868  -4.4506  -4.4296  -4.4195  -4.3683  -4.3573  -4.3281
    -4.3190  -4.2647  -4.2117  -4.1884  -4.1565  -4.1265  -4.1178  -4.0926
    -4.0444  -4.0046  -3.9904  -3.9664  -3.9509  -3.9154  -3.9037  -3.8763
    -3.8575  -3.8393  -3.8160  -3.7866  -3.7764  -3.7225  -3.7116  -3.7020
    -3.6822  -3.6704  -3.6329  -3.6315  -3.6298  -3.5981  -3.5889  -3.5221
    -3.5130  -3.4934  -3.4871  -3.4779  -3.4690  -3.4547  -3.4268  -3.4234
    -3.4144  -3.3682  -3.3469  -3.3357  -3.3282  -3.3051  -3.2749  -3.2422
    -3.2219  -3.2032  -3.1718  -3.1593  -3.1431  -3.1304  -3.1182  -3.1122
    -3.0882  -3.0702  -3.0469  -3.0252  -2.9954  -2.9767  -2.9593  -2.9333
    -2.9009  -2.8919  -2.8821  -2.8626  -2.8277  -2.8198  -2.7906  -2.7759
    -2.7623  -2.7547  -2.7352  -2.7313  -2.7244  -2.7100  -2.7048  -2.6986
    -2.6716  -2.6552  -2.6332  -2.6124  -2.6013  -2.5997  -2.5722  -2.5483
    -2.5371  -2.5196  -2.5051  -2.4765  -2.4640  -2.4517  -2.4437  -2.4273
    -2.3881  -2.3822  -2.3698  -2.3538  -2.3210  -2.3105  -2.2732  -2.2615
    -2.2570  -2.2200  -2.2101  -2.1844  -2.1728  -2.1656  -2.1181  -2.1005
    -2.0942  -2.0725  -2.0575  -2.0451  -2.0356  -2.0178  -1.9865  -1.9699
    -1.9615  -1.9463  -1.9378  -1.9316  -1.8957  -1.8757  -1.8637  -1.8393
    -1.8202  -1.8016  -1.7686  -1.7569  -1.7308  -1.7267  -1.6975  -1.6832
    -1.6634  -1.6536  -1.6372  -1.6021  -1.5928  -1.5701  -1.5621  -1.5297
    -1.5097  -1.4904  -1.4900  -1.4700  -1.4321  -1.4227  -1.3969  -1.3957
    -1.3714  -1.3538  -1.3117  -1.2857  -1.2684  -1.2388  -1.2244  -1.2155
    -1.1437  -1.1234  -1.0770  -1.0073  -0.9567  -0.9391  -0.8534  -0.8363
    -0.7962  -0.7612  -0.6925  -0.5053  -0.3631  -0.2962  -0.2926  -0.1881
     0.1358   0.1566   0.1871   0.2259   0.2572   0.2650   0.2763   0.2788
     0.3057   0.3083   0.3399   0.3461   0.3497   0.3599   0.3676   0.3796
     0.3828   0.3856   0.3981   0.4118   0.4207   0.4289   0.4307   0.4423
     0.4427   0.4503   0.4615   0.4712   0.4719   0.4776   0.4821   0.4909
     0.5020   0.5133   0.5168   0.5210   0.5283   0.5333   0.5337   0.5501
     0.5618   0.5670   0.5744   0.5765   0.5824   0.5873   0.5918   0.6114
     0.6161   0.6297   0.6311   0.6399   0.6469   0.6498   0.6556   0.6712
     0.6736   0.6780   0.6852   0.6881   0.7015   0.7030   0.7125   0.7231
     0.7267   0.7342   0.7410   0.7547   0.7600   0.7741   0.7750   0.7816
     0.7926   0.7949   0.8051   0.8166   0.8330   0.8422   0.8584   0.8655
     0.8769   0.8849   0.8912   0.8954   0.9068   0.9124   0.9207   0.9219
     0.9337   0.9457   0.9687   0.9710   0.9839   0.9988   1.0280   1.0421
     1.1521   1.1858   1.6230   1.7052   1.7086   1.7139   1.7423   1.7501
     1.7641   1.8455   1.8759   1.8986   1.9251   1.9622   1.9702   1.9804
     1.9976   2.0430   2.0480   2.0557   2.0713   2.0760   2.0962   2.1282
     2.1551   2.1740   2.1932   2.2041   2.2208   2.2330   2.2672   2.2701
     2.2868   2.2884   2.3007   2.3135   2.3209   2.3332   2.3499   2.3602
     2.3629   2.3836   2.4031   2.4070   2.4275   2.4454   2.4548   2.4693
     2.4911   2.5113   2.5193   2.5260   2.5352   2.5642   2.5806   2.6056
     2.6198   2.6280   2.6381   2.6440   2.7075   2.7470   2.7722   2.8234
     2.8438   2.8498   2.8766   2.8988   2.9399   3.2369   3.2807   3.4541
     3.5343   3.8180   3.8854   3.9627   4.0257   4.0497   4.1084   4.5006
     4.6657   4.7879   4.9134   4.9312   4.9706   5.0775   5.4326   6.3312
     6.3803   6.5291   6.6043   6.7429   6.8104   6.8233   6.8825   6.9205
     7.0343   7.0951   7.1551   7.1696   7.3444   7.3509   7.3882   7.4365
     7.5565   7.5858   7.6317   7.6828   7.7294   7.7556   7.8269   7.8699
     7.8952   7.9427   7.9628   8.0116   8.0369   8.0634   8.0859   8.1096
     8.1426   8.1610   8.2075   8.2239   8.2532   8.2840   8.3235   8.3356
     8.3632   8.3857   8.4395   8.4706   8.4856   8.5137   8.5299   8.5378
     8.5496   8.5723   8.5954   8.6074   8.6379   8.6519   8.6835   8.6891
     8.7252   8.7509   8.8059   8.8234   8.8358   8.8728   8.9047

     the Fermi energy is     1.5987 ev

!    total energy              =   -7398.03003610 Ry
     estimated scf accuracy    <       0.00000087 Ry
     smearing contrib. (-TS)   =      -0.01663395 Ry
     internal energy E=F+TS    =   -7398.01340214 Ry

     The total energy is F=E-TS. E is the sum of the following terms:
     one-electron contribution =  -91646.85014642 Ry
     hartree contribution      =   46471.65024139 Ry
     xc contribution           =   -2260.28120328 Ry
     ewald contribution        =   40039.30045198 Ry
     Dispersion Correction     =      -1.83280188 Ry
     electric field correction =       0.00005608 Ry

     total magnetization       =    80.09 Bohr mag/cell
     absolute magnetization    =    81.62 Bohr mag/cell

     convergence has been achieved in  59 iterations

     negative rho (up, down):  9.326E-04 5.510E-04

     Forces acting on atoms (cartesian axes, Ry/au):

     atom    1 type  2   force =    -0.00045273   -0.00089772   -0.00032659
     atom    2 type  1   force =    -0.00015784   -0.00034093   -0.00012578
     atom    3 type  1   force =     0.00014878   -0.00058737   -0.00045221
     atom    4 type  1   force =    -0.00026677    0.00005916    0.00027143
     atom    5 type  1   force =     0.00022601   -0.00009767    0.00008781
     atom    6 type  1   force =    -0.00046952    0.00021769    0.00012714
     atom    7 type  1   force =    -0.00026917    0.00080351    0.00007149
     atom    8 type  1   force =    -0.00023699    0.00006908    0.00060755
     atom    9 type  1   force =     0.00042130    0.00033519   -0.00056189
     atom   10 type  1   force =    -0.00002231    0.00030193   -0.00002277
     atom   11 type  1   force =     0.00004923    0.00020756   -0.00007409
     atom   12 type  1   force =     0.00010530   -0.00010056   -0.00023295
     atom   13 type  3   force =    -0.00017152    0.00029212   -0.00037956
     atom   14 type  3   force =    -0.00020464    0.00001521    0.00005572
     atom   15 type  3   force =    -0.00020232    0.00018916   -0.00045962
     atom   16 type  3   force =     0.00028441    0.00014049    0.00036641
     atom   17 type  4   force =     0.00028812    0.00066683   -0.00008024
     atom   18 type  4   force =     0.00001358   -0.00052903   -0.00025298
     atom   19 type  4   force =     0.00044135    0.00021652    0.00012716
     atom   20 type  4   force =     0.00019341    0.00003622   -0.00009414
     atom   21 type  4   force =    -0.00022485   -0.00036383    0.00018101
     atom   22 type  4   force =     0.00040687   -0.00017671   -0.00014266
     atom   23 type  4   force =    -0.00000596    0.00074820    0.00007043
     atom   24 type  4   force =    -0.00032696    0.00032776    0.00003958
     atom   25 type  4   force =    -0.00012171   -0.00025075   -0.00021211
     atom   26 type  4   force =    -0.00007137    0.00105385    0.00067445
     atom   27 type  4   force =     0.00039739    0.00004141   -0.00025209
     atom   28 type  4   force =     0.00000095    0.00001668   -0.00001400
     atom   29 type  4   force =     0.00049834    0.00000592    0.00022142
     atom   30 type  4   force =    -0.00001810    0.00035289   -0.00006934
     atom   31 type  4   force =     0.00044550    0.00029106    0.00015273
     atom   32 type  4   force =    -0.00015507    0.00017058    0.00022239
     atom   33 type  3   force =     0.00059422   -0.00007767   -0.00026483
     atom   34 type  3   force =     0.00051446   -0.00009402   -0.00022684
     atom   35 type  3   force =     0.00005384    0.00008019    0.00044289
     atom   36 type  3   force =    -0.00012963    0.00002989   -0.00030782
     atom   37 type  4   force =    -0.00005461    0.00003297   -0.00046237
     atom   38 type  4   force =    -0.00023577    0.00012998   -0.00078949
     atom   39 type  4   force =    -0.00033072   -0.00013789    0.00021258
     atom   40 type  4   force =     0.00003824    0.00027082   -0.00025145
     atom   41 type  4   force =     0.00038042   -0.00009694   -0.00006744
     atom   42 type  4   force =    -0.00004282   -0.00012333    0.00006356
     atom   43 type  4   force =    -0.00048545   -0.00027584   -0.00000941
     atom   44 type  4   force =     0.00017524    0.00016202   -0.00041763
     atom   45 type  4   force =     0.00027982   -0.00003173    0.00021641
     atom   46 type  4   force =    -0.00011873   -0.00024338   -0.00062603
     atom   47 type  4   force =    -0.00009244   -0.00020020   -0.00005913
     atom   48 type  4   force =     0.00004440   -0.00023346   -0.00060349
     atom   49 type  4   force =     0.00056233   -0.00008323   -0.00040656
     atom   50 type  4   force =     0.00015895    0.00108773    0.00027303
     atom   51 type  4   force =    -0.00003107    0.00032645    0.00001686
     atom   52 type  4   force =    -0.00018358    0.00012701   -0.00033303
     atom   53 type  2   force =     0.00149099   -0.00338943    0.00597684
     atom   54 type  1   force =     0.00513863   -0.00225921    0.00354714
     atom   55 type  1   force =     0.00854379   -0.00244230    0.00542219
     atom   56 type  1   force =    -0.00192138    0.01032063    0.00584720
     atom   57 type  1   force =     0.00017873    0.02323070    0.01459486
     atom   58 type  1   force =     0.00188964   -0.00345898   -0.00179416
     atom   59 type  1   force =     0.00135734   -0.00872635    0.00037796
     atom   60 type  1   force =    -0.00519287   -0.00197371    0.00448611
     atom   61 type  1   force =    -0.00262066   -0.00154936    0.00353361
     atom   62 type  1   force =    -0.00425664    0.00826248    0.00576381
     atom   63 type  1   force =    -0.01117651    0.02602619    0.01850874
     atom   64 type  1   force =    -0.00175702    0.00083554    0.00122497
     atom   65 type  3   force =     0.04608135   -0.11387141   -0.01079362
     atom   66 type  3   force =     0.00007103   -0.00310581    0.00156160
     atom   67 type  3   force =    -0.03907867    0.12696883    0.01486179
     atom   68 type  3   force =     0.06270268   -0.00177182   -0.00333461
     atom   69 type  4   force =     0.01378830   -0.01829548    0.00376896
     atom   70 type  4   force =    -0.00061067    0.00258845   -0.00056331
     atom   71 type  4   force =    -0.00146203    0.00320611   -0.00591984
     atom   72 type  4   force =     0.00406790    0.00184254   -0.00067021
     atom   73 type  4   force =     0.00090487   -0.01145922    0.00289497
     atom   74 type  4   force =    -0.00033829   -0.00094090   -0.00169815
     atom   75 type  4   force =    -0.00105319    0.01403120    0.00640966
     atom   76 type  4   force =     0.00826310    0.00528318    0.00928553
     atom   77 type  4   force =     0.00710714   -0.00261368    0.00159278
     atom   78 type  4   force =     0.04407858   -0.14257628   -0.00520765
     atom   79 type  4   force =     0.00182551    0.00195801    0.00144167
     atom   80 type  4   force =    -0.00008830    0.00227545   -0.00157788
     atom   81 type  4   force =     0.06754754    0.00072742   -0.00586513
     atom   82 type  4   force =     0.00008750    0.00144190   -0.00087755
     atom   83 type  4   force =    -0.03919517    0.13483637    0.00269422
     atom   84 type  4   force =    -0.00286999   -0.01102062   -0.00409511
     atom   85 type  3   force =     0.04000105   -0.12003061   -0.01843764
     atom   86 type  3   force =    -0.06289294   -0.00278351    0.00863392
     atom   87 type  3   force =    -0.04475745    0.12552791    0.01714911
     atom   88 type  3   force =    -0.00167273    0.00004229    0.00251975
     atom   89 type  4   force =     0.00904756   -0.01539206    0.00405537
     atom   90 type  4   force =    -0.00487020    0.00163998    0.00053325
     atom   91 type  4   force =    -0.00908411    0.00795867   -0.00647849
     atom   92 type  4   force =     0.00003458    0.00018177   -0.00062894
     atom   93 type  4   force =    -0.00173951   -0.00835082    0.00747502
     atom   94 type  4   force =    -0.00464138    0.00149534    0.00094658
     atom   95 type  4   force =    -0.00566762    0.01284221    0.00601386
     atom   96 type  4   force =     0.00409025    0.00522922    0.00967009
     atom   97 type  4   force =    -0.00002667    0.00038641    0.00068037
     atom   98 type  4   force =     0.04031386   -0.14138361   -0.00489482
     atom   99 type  4   force =    -0.06663696    0.00003185    0.00632667
     atom  100 type  4   force =    -0.00175548    0.00344795   -0.00277171
     atom  101 type  4   force =    -0.00022753    0.00096282   -0.00056335
     atom  102 type  4   force =    -0.00605723    0.00454169   -0.00143030
     atom  103 type  4   force =    -0.04023854    0.13335161    0.00430877
     atom  104 type  4   force =    -0.00701233   -0.00990787   -0.00518963
     atom  105 type  2   force =     0.00413199   -0.00658366   -0.01808661
     atom  106 type  1   force =     0.02821259    0.01427130    0.01191920
     atom  107 type  1   force =     0.00862620   -0.00618865   -0.01397888
     atom  108 type  1   force =    -0.02840764    0.02167018    0.01901372
     atom  109 type  1   force =     0.00491409    0.01628722    0.00964788
     atom  110 type  1   force =    -0.00252321   -0.00884187   -0.00659867
     atom  111 type  1   force =    -0.00079447   -0.00949331   -0.01153926
     atom  112 type  1   force =     0.02909620    0.01749525    0.01165791
     atom  113 type  1   force =    -0.00068399   -0.00505186   -0.01381851
     atom  114 type  1   force =    -0.02962503    0.02071034    0.01885594
     atom  115 type  1   force =    -0.00709820    0.01865875    0.01233797
     atom  116 type  1   force =    -0.00549606   -0.00438194   -0.00275296
     atom  117 type  3   force =     0.01425360   -0.17391754   -0.10883664
     atom  118 type  3   force =     0.00515908   -0.00851897   -0.01267218
     atom  119 type  3   force =    -0.04466595    0.12496882   -0.00186630
     atom  120 type  3   force =     0.09508007   -0.04106153   -0.07975318
     atom  121 type  4   force =     0.00611657   -0.01708111    0.03723482
     atom  122 type  4   force =    -0.00346166    0.00365326    0.00446507
     atom  123 type  4   force =    -0.00085775    0.00254609   -0.00284603
     atom  124 type  4   force =     0.00847898    0.00218434    0.02696438
     atom  125 type  4   force =     0.00985458   -0.01694150    0.01584821
     atom  126 type  4   force =    -0.00746973    0.00097688   -0.00308971
     atom  127 type  4   force =     0.00395467    0.00965042    0.00035249
     atom  128 type  4   force =    -0.00059893   -0.00113105    0.03010425
     atom  129 type  4   force =    -0.00765136    0.02552401    0.00120205
     atom  130 type  4   force =     0.04342436   -0.14592945   -0.00192780
     atom  131 type  4   force =    -0.01744283   -0.00040195    0.00288022
     atom  132 type  4   force =     0.00342674    0.00266400    0.00198473
     atom  133 type  4   force =     0.06970061    0.00365441   -0.00191835
     atom  134 type  4   force =     0.00097108    0.00368520    0.00270801
     atom  135 type  4   force =    -0.02757406    0.17227506    0.00607423
     atom  136 type  4   force =     0.01962863   -0.00860771    0.00401927
     atom  137 type  3   force =     0.00909558   -0.16688728   -0.09428365
     atom  138 type  3   force =    -0.06466102   -0.00210863   -0.00495283
     atom  139 type  3   force =    -0.04873249    0.11827220    0.00153484
     atom  140 type  3   force =     0.03145136   -0.04325357   -0.07372206
     atom  141 type  4   force =     0.00468326   -0.01329142    0.03212762
     atom  142 type  4   force =    -0.00543866   -0.00035528    0.00432899
     atom  143 type  4   force =    -0.00820803    0.00806568   -0.00348026
     atom  144 type  4   force =     0.00383644    0.00138706    0.02755998
     atom  145 type  4   force =     0.00689143   -0.01303931    0.03225526
     atom  146 type  4   force =    -0.00874264   -0.00180103   -0.00309726
     atom  147 type  4   force =     0.00027533    0.00984903    0.00254131
     atom  148 type  4   force =    -0.00789105    0.00117981    0.02901287
     atom  149 type  4   force =    -0.01313644    0.02943740    0.00051956
     atom  150 type  4   force =     0.03976766   -0.13826592   -0.00142461
     atom  151 type  4   force =    -0.08617619   -0.00174237    0.00918267
     atom  152 type  4   force =     0.00128352    0.00389340    0.00140984
     atom  153 type  4   force =    -0.00354267    0.00084186    0.00296531
     atom  154 type  4   force =    -0.00587110    0.00605154    0.00128994
     atom  155 type  4   force =    -0.02797341    0.16646311    0.00486661
     atom  156 type  4   force =     0.01057720   -0.00971849   -0.00134811
     atom  157 type  4   force =    -0.00345817    0.00147793   -0.00170780
     atom  158 type  5   force =     0.00394129   -0.00123471    0.00159769

     Total force =     0.671518     Total SCF correction =     0.003675
 
     init_run     :      7.28s CPU      7.95s WALL (       1 calls)
     electrons    :    733.42s CPU    768.44s WALL (       1 calls)
     forces       :      4.00s CPU      4.37s WALL (       1 calls)
     force_london :      0.10s CPU      0.10s WALL (       1 calls)

     Called by init_run:
     wfcinit      :      4.24s CPU      4.44s WALL (       1 calls)
     potinit      :      0.62s CPU      0.80s WALL (       1 calls)
     hinit0       :      1.30s CPU      1.38s WALL (       1 calls)

     Called by electrons:
     c_bands      :    576.25s CPU    595.10s WALL (      59 calls)
     sum_band     :    100.82s CPU    109.65s WALL (      59 calls)
     v_of_rho     :     11.33s CPU     12.26s WALL (      60 calls)
     newd         :     30.77s CPU     37.32s WALL (      60 calls)
     mix_rho      :     13.93s CPU     14.02s WALL (      59 calls)
     energy_londo :      0.09s CPU      0.09s WALL (       1 calls)

     Called by c_bands:
     init_us_2    :      1.62s CPU      1.66s WALL (     240 calls)
     init_us_2:cp :      1.62s CPU      1.66s WALL (     240 calls)
     regterg      :    563.63s CPU    582.31s WALL (     119 calls)

     Called by *egterg:
     rdiaghg      :    158.17s CPU    167.69s WALL (     501 calls)
     h_psi        :    216.21s CPU    220.39s WALL (     503 calls)
     s_psi        :     41.08s CPU     41.12s WALL (     503 calls)
     g_psi        :      0.29s CPU      0.29s WALL (     382 calls)

     Called by h_psi:
     h_psi:calbec :     58.56s CPU     62.16s WALL (     503 calls)
     vloc_psi     :    115.21s CPU    115.70s WALL (     503 calls)
     add_vuspsi   :     41.96s CPU     42.04s WALL (     503 calls)

     General routines
     calbec       :     87.33s CPU     92.74s WALL (     629 calls)
     fft          :     17.44s CPU     18.66s WALL (    1093 calls)
     ffts         :      8.75s CPU      8.79s WALL (    7313 calls)
     fftw         :    133.30s CPU    133.81s WALL (  200302 calls)
     interpolate  :      0.99s CPU      1.07s WALL (     120 calls)
 
     Parallel routines
 
     PWSCF        :  12m26.68s CPU  13m 2.99s WALL

 
   This run was terminated on:  22:58:37  19Nov2025            

=------------------------------------------------------------------------------=
   JOB DONE.
=------------------------------------------------------------------------------=
