
     Program PWSCF v.7.2 starts on 19Nov2025 at 22:24:13 

     This program is part of the open-source Quantum ESPRESSO suite
     for quantum simulation of materials; please cite
         "P. Giannozzi et al., J. Phys.:Condens. Matter 21 395502 (2009);
         "P. Giannozzi et al., J. Phys.:Condens. Matter 29 465901 (2017);
         "P. Giannozzi et al., J. Chem. Phys. 152 154105 (2020);
          URL http://www.quantum-espresso.org", 
     in publications or presentations arising from this work. More details at
     http://www.quantum-espresso.org/quote

     Parallel version (MPI), running on    64 processors

     MPI processes distributed on     4 nodes
     389943 MiB available memory on the printing compute node when the environment starts
 
     Reading input from PWINPUT_atm158_zp

     Current dimensions of program PWSCF are:
     Max number of different atomic species (ntypx) = 10
     Max number of k-points (npk) =  40000
     Max angular momentum in pseudopotentials (lmaxx) =  4
     Presently no symmetry can be used with electric field

     file Ni.pbe-n-rrkjus_psl.1.0.0.UPF: wavefunction(s)  3D renormalized
     file Mn.pbe-spn-rrkjus_psl.0.3.1.UPF: wavefunction(s)  3D renormalized
     file O.pbe-rrkjus.UPF: wavefunction(s)  2S renormalized
     file H.pbe-rrkjus.UPF: wavefunction(s)  1S renormalized

     gamma-point specific algorithms are used
 
     R & G space division:  proc/nbgrp/npool/nimage =      64
     Subspace diagonalization in iterative solution of the eigenvalue problem:
     one sub-group per band group will be used
     custom distributed-memory algorithm (size of sub-group:  6*  6 procs)

 
     Parallelization info
     --------------------
     sticks:   dense  smooth     PW     G-vecs:    dense   smooth      PW
     Min         208      82     20                59912    15118    1876
     Max         210      84     22                59974    15196    1926
     Sum       13399    5355   1345              3836275   970529  121367
 
     Using Slab Decomposition
 


     bravais-lattice index     =            0
     lattice parameter (alat)  =      17.7004  a.u.
     unit-cell volume          =   20319.7251 (a.u.)^3
     number of atoms/cell      =          158
     number of atomic types    =            5
     number of electrons       =      1078.00
     number of Kohn-Sham states=          647
     kinetic-energy cutoff     =      50.0000  Ry
     charge density cutoff     =     500.0000  Ry
     scf convergence threshold =      1.0E-06
     mixing beta               =       0.1000
     number of iterations used =            8  local-TF  mixing
     Exchange-correlation=  SLA  PW   PBE  PBE
                           (   1   4   3   4   0   0   0)

     celldm(1)=  17.700384  celldm(2)=   0.000000  celldm(3)=   0.000000
     celldm(4)=   0.000000  celldm(5)=   0.000000  celldm(6)=   0.000000

     crystal axes: (cart. coord. in units of alat)
               a(1) = (   1.000000   0.000000   0.000000 )  
               a(2) = (   0.000000   1.075730   0.000000 )  
               a(3) = (   0.000000   0.000000   3.406172 )  

     reciprocal axes: (cart. coord. in units 2 pi/alat)
               b(1) = (  1.000000  0.000000  0.000000 )  
               b(2) = (  0.000000  0.929602  0.000000 )  
               b(3) = (  0.000000  0.000000  0.293585 )  


     PseudoPot. # 1 for Ni read from file:
     ~/PSEUDO/Ni.pbe-n-rrkjus_psl.1.0.0.UPF
     MD5 check sum: Not computed, couldn't open file
     Pseudo is Ultrasoft + core correction, Zval = 10.0
     Generated using "atomic" code by A. Dal Corso  v.5.1.2
     Using radial grid of 1195 points,  6 beta functions with: 
                l(1) =   0
                l(2) =   0
                l(3) =   1
                l(4) =   1
                l(5) =   2
                l(6) =   2
     Q(r) pseudized with 0 coefficients 


     PseudoPot. # 2 for Mn read from file:
     ~/PSEUDO/Mn.pbe-spn-rrkjus_psl.0.3.1.UPF
     MD5 check sum: Not computed, couldn't open file
     Pseudo is Ultrasoft + core correction, Zval = 15.0
     Generated using &quot;atomic&quot; code by A. Dal Corso  v.6.2.2
     Using radial grid of 1187 points,  6 beta functions with: 
                l(1) =   0
                l(2) =   0
                l(3) =   1
                l(4) =   1
                l(5) =   2
                l(6) =   2
     Q(r) pseudized with 0 coefficients 


     PseudoPot. # 3 for P  read from file:
     ~/PSEUDO/P.pbe-n-rrkjus_psl.1.0.0.UPF
     MD5 check sum: Not computed, couldn't open file
     Pseudo is Ultrasoft + core correction, Zval =  5.0
     Generated using "atomic" code by A. Dal Corso  v.5.1
     Using radial grid of 1147 points,  6 beta functions with: 
                l(1) =   0
                l(2) =   0
                l(3) =   1
                l(4) =   1
                l(5) =   2
                l(6) =   2
     Q(r) pseudized with 0 coefficients 


     PseudoPot. # 4 for O  read from file:
     ~/PSEUDO/O.pbe-rrkjus.UPF
     MD5 check sum: Not computed, couldn't open file
     Pseudo is Ultrasoft, Zval =  6.0
     Generated by new atomic code, or converted to UPF format
     Using radial grid of 1269 points,  4 beta functions with: 
                l(1) =   0
                l(2) =   0
                l(3) =   1
                l(4) =   1
     Q(r) pseudized with 0 coefficients 


     PseudoPot. # 5 for H  read from file:
     ~/PSEUDO/H.pbe-rrkjus.UPF
     MD5 check sum: Not computed, couldn't open file
     Pseudo is Ultrasoft, Zval =  1.0
     Generated by new atomic code, or converted to UPF format
     Using radial grid of 1061 points,  2 beta functions with: 
                l(1) =   0
                l(2) =   0
     Q(r) pseudized with 0 coefficients 


     atomic species   valence    mass     pseudopotential
     Ni               10.00    58.69300     Ni( 1.00)
     Mn               15.00    54.93800     Mn( 1.00)
     P                 5.00    30.97300     P ( 1.00)
     O                 6.00    15.99900     O ( 1.00)
     H                 1.00     1.00790     H ( 1.00)

     Starting magnetic structure 
     atomic species   magnetization
     Ni              1.000
     Mn              1.000
     P               1.000
     O               1.000
     H               0.000

     No symmetry found



   Cartesian axes

     site n.     atom                  positions (alat units)
         1        Mn     tau(   1) = (   0.2493609   0.8365715   1.6923971  )
         2        Ni     tau(   2) = (   0.4971079   0.7736156   1.3698727  )
         3        Ni     tau(   3) = (   0.0112576   0.3072794   1.7087583  )
         4        Ni     tau(   4) = (   0.2596239   0.2390995   1.3686499  )
         5        Ni     tau(   5) = (   0.9975634   1.0800649   1.5354411  )
         6        Ni     tau(   6) = (   0.2537367   0.5354741   1.5344197  )
         7        Ni     tau(   7) = (   0.7537322   0.8383734   1.6753574  )
         8        Ni     tau(   8) = (   0.9914315   0.7746670   1.3720254  )
         9        Ni     tau(   9) = (   0.5035551   0.2960273   1.6759017  )
        10        Ni     tau(  10) = (   0.7601897   0.2370242   1.3663370  )
        11        Ni     tau(  11) = (   0.4997103   1.0755509   1.5321392  )
        12        Ni     tau(  12) = (   0.7557358   0.5365151   1.5309164  )
        13        P      tau(  13) = (   0.2102583   0.9729017   1.3795895  )
        14        P      tau(  14) = (   0.4681633   0.6439249   1.6893391  )
        15        P      tau(  15) = (   0.2886425   0.1100006   1.6952171  )
        16        P      tau(  16) = (   0.0425762   0.4312003   1.3742181  )
        17        O      tau(  17) = (   0.1340839   0.9024468   1.5167299  )
        18        O      tau(  18) = (   0.3903743   0.7050921   1.5459491  )
        19        O      tau(  19) = (   0.3645582   0.1700754   1.5496001  )
        20        O      tau(  20) = (   0.1194984   0.3599186   1.5100144  )
        21        O      tau(  21) = (   0.1474941   0.8824110   1.2564130  )
        22        O      tau(  22) = (   0.4040727   0.7408321   1.8053395  )
        23        O      tau(  23) = (   0.3535892   0.2030579   1.8119064  )
        24        O      tau(  24) = (   0.1029989   0.3444961   1.2466039  )
        25        O      tau(  25) = (   0.1016325   0.5871265   1.3783445  )
        26        O      tau(  26) = (   0.3444464   1.0271569   1.6949549  )
        27        O      tau(  27) = (   0.3797210   0.4257846   1.3839545  )
        28        O      tau(  28) = (   0.1239987   0.1120195   1.6852008  )
        29        O      tau(  29) = (   0.1277082   0.6548798   1.6784119  )
        30        O      tau(  30) = (   0.4126374   0.4868061   1.6917006  )
        31        O      tau(  31) = (   0.1512622   0.0516880   1.3795899  )
        32        O      tau(  32) = (   0.3740488   0.9633360   1.3872959  )
        33        P      tau(  33) = (   0.7102783   0.9720020   1.3712879  )
        34        P      tau(  34) = (   0.9622035   0.6496791   1.6938416  )
        35        P      tau(  35) = (   0.7879411   0.1129842   1.6874765  )
        36        P      tau(  36) = (   0.5437247   0.4318676   1.3705585  )
        37        O      tau(  37) = (   0.6320214   0.9007554   1.5076114  )
        38        O      tau(  38) = (   0.8856843   0.7114266   1.5472319  )
        39        O      tau(  39) = (   0.8642929   0.1717044   1.5437885  )
        40        O      tau(  40) = (   0.6216900   0.3608055   1.5064456  )
        41        O      tau(  41) = (   0.6495853   0.8828646   1.2457269  )
        42        O      tau(  42) = (   0.9055096   0.7504361   1.8079161  )
        43        O      tau(  43) = (   0.8450882   0.2103025   1.8047962  )
        44        O      tau(  44) = (   0.6043176   0.3439644   1.2442897  )
        45        O      tau(  45) = (   0.6044957   0.5867090   1.3746570  )
        46        O      tau(  46) = (   0.8440334   1.0304596   1.6909963  )
        47        O      tau(  47) = (   0.8783670   0.4261403   1.3828404  )
        48        O      tau(  48) = (   0.6221236   0.1136819   1.6769158  )
        49        O      tau(  49) = (   0.6324242   0.6520846   1.6793976  )
        50        O      tau(  50) = (   0.9031210   0.4942715   1.6888231  )
        51        O      tau(  51) = (   0.6491651   0.0505825   1.3737527  )
        52        O      tau(  52) = (   0.8740350   0.9654835   1.3844354  )
        53        Mn     tau(  53) = (   0.2404744   0.8246335   1.0701417  )
        54        Ni     tau(  54) = (   0.4968126   0.7601755   0.7454373  )
        55        Ni     tau(  55) = (   0.0066150   0.2811828   1.0628866  )
        56        Ni     tau(  56) = (   0.2585722   0.2230943   0.7421070  )
        57        Ni     tau(  57) = (   0.9987350   1.0571496   0.9014992  )
        58        Ni     tau(  58) = (   0.2517397   0.5205596   0.9040596  )
        59        Ni     tau(  59) = (   0.7451645   0.8212628   1.0648168  )
        60        Ni     tau(  60) = (   0.9939181   0.7613889   0.7462324  )
        61        Ni     tau(  61) = (   0.5111533   0.2799173   1.0618053  )
        62        Ni     tau(  62) = (   0.7606326   0.2194352   0.7418547  )
        63        Ni     tau(  63) = (   0.5024065   1.0563218   0.8999416  )
        64        Ni     tau(  64) = (   0.7529977   0.5192985   0.9024691  )
        65        P      tau(  65) = (   0.2092944   0.9606182   0.7524883  )
        66        P      tau(  66) = (   0.4655727   0.6234620   1.0595283  )
        67        P      tau(  67) = (   0.2910699   0.0902448   1.0573821  )
        68        P      tau(  68) = (   0.0396216   0.4163480   0.7471080  )
        69        O      tau(  69) = (   0.1294378   0.8888345   0.8859300  )
        70        O      tau(  70) = (   0.3874505   0.6929859   0.9232915  )
        71        O      tau(  71) = (   0.3702540   0.1589885   0.9209891  )
        72        O      tau(  72) = (   0.1184398   0.3458043   0.8831565  )
        73        O      tau(  73) = (   0.1451572   0.8725966   0.6282341  )
        74        O      tau(  74) = (   0.4048762   0.7120670   1.1852426  )
        75        O      tau(  75) = (   0.3523506   0.1775664   1.1834175  )
        76        O      tau(  76) = (   0.1017610   0.3285569   0.6213347  )
        77        O      tau(  77) = (   0.0975396   0.5724373   0.7511996  )
        78        O      tau(  78) = (   0.3483552   1.0190030   1.0599597  )
        79        O      tau(  79) = (   0.3784305   0.4100203   0.7560991  )
        80        O      tau(  80) = (   0.1268237   0.0943029   1.0477175  )
        81        O      tau(  81) = (   0.1212267   0.6299255   1.0507023  )
        82        O      tau(  82) = (   0.4053315   0.4684472   1.0569297  )
        83        O      tau(  83) = (   0.1536621   0.0322003   0.7496532  )
        84        O      tau(  84) = (   0.3732349   0.9506802   0.7613277  )
        85        P      tau(  85) = (   0.7119823   0.9571059   0.7496908  )
        86        P      tau(  86) = (   0.9615208   0.6238477   1.0606987  )
        87        P      tau(  87) = (   0.7927710   0.0845145   1.0577754  )
        88        P      tau(  88) = (   0.5426404   0.4144760   0.7459181  )
        89        O      tau(  89) = (   0.6326879   0.8866267   0.8856678  )
        90        O      tau(  90) = (   0.8842163   0.6958291   0.9244764  )
        91        O      tau(  91) = (   0.8716178   0.1552836   0.9216415  )
        92        O      tau(  92) = (   0.6212010   0.3433751   0.8818834  )
        93        O      tau(  93) = (   0.6507714   0.8687427   0.6238197  )
        94        O      tau(  94) = (   0.9014054   0.7139543   1.1859242  )
        95        O      tau(  95) = (   0.8548963   0.1722994   1.1834447  )
        96        O      tau(  96) = (   0.6044469   0.3253792   0.6209553  )
        97        O      tau(  97) = (   0.6024424   0.5698225   0.7490903  )
        98        O      tau(  98) = (   0.8498940   1.0129567   1.0594762  )
        99        O      tau(  99) = (   0.8798395   0.4080910   0.7564148  )
       100        O      tau( 100) = (   0.6286921   0.0909721   1.0472573  )
       101        O      tau( 101) = (   0.6294973   0.6302838   1.0497366  )
       102        O      tau( 102) = (   0.9024339   0.4685397   1.0573501  )
       103        O      tau( 103) = (   0.6547812   0.0286072   0.7473283  )
       104        O      tau( 104) = (   0.8760507   0.9507690   0.7605412  )
       105        Mn     tau( 105) = (   0.2404744   0.8121420   0.4502541  )
       106        Ni     tau( 106) = (   0.4968126   0.7476840   0.1255496  )
       107        Ni     tau( 107) = (   0.0066150   0.2686914   0.4429989  )
       108        Ni     tau( 108) = (   0.2585722   0.2106028   0.1222194  )
       109        Ni     tau( 109) = (   0.9987350   1.0446581   0.2816116  )
       110        Ni     tau( 110) = (   0.2517397   0.5080681   0.2841720  )
       111        Ni     tau( 111) = (   0.7451645   0.8087713   0.4449291  )
       112        Ni     tau( 112) = (   0.9939181   0.7488974   0.1263448  )
       113        Ni     tau( 113) = (   0.5111533   0.2674258   0.4419177  )
       114        Ni     tau( 114) = (   0.7606326   0.2069438   0.1219670  )
       115        Ni     tau( 115) = (   0.5024065   1.0438304   0.2800540  )
       116        Ni     tau( 116) = (   0.7529977   0.5068070   0.2825815  )
       117        P      tau( 117) = (   0.2092944   0.9481267   0.1326007  )
       118        P      tau( 118) = (   0.4655727   0.6109705   0.4396407  )
       119        P      tau( 119) = (   0.2910699   0.0777534   0.4374945  )
       120        P      tau( 120) = (   0.0396216   0.4038566   0.1272204  )
       121        O      tau( 121) = (   0.1294378   0.8763430   0.2660424  )
       122        O      tau( 122) = (   0.3874505   0.6804944   0.3034039  )
       123        O      tau( 123) = (   0.3702540   0.1464970   0.3011014  )
       124        O      tau( 124) = (   0.1184398   0.3333129   0.2632689  )
       125        O      tau( 125) = (   0.1451572   0.8601051   0.0083464  )
       126        O      tau( 126) = (   0.4048762   0.6995756   0.5653550  )
       127        O      tau( 127) = (   0.3523506   0.1650749   0.5635298  )
       128        O      tau( 128) = (   0.1017610   0.3160655   0.0014470  )
       129        O      tau( 129) = (   0.0975396   0.5599458   0.1313120  )
       130        O      tau( 130) = (   0.3483552   1.0065115   0.4400720  )
       131        O      tau( 131) = (   0.3784305   0.3975288   0.1362114  )
       132        O      tau( 132) = (   0.1268237   0.0818115   0.4278298  )
       133        O      tau( 133) = (   0.1212267   0.6174340   0.4308146  )
       134        O      tau( 134) = (   0.4053315   0.4559557   0.4370420  )
       135        O      tau( 135) = (   0.1536621   0.0197088   0.1297656  )
       136        O      tau( 136) = (   0.3732349   0.9381887   0.1414400  )
       137        P      tau( 137) = (   0.7119823   0.9446144   0.1298032  )
       138        P      tau( 138) = (   0.9615208   0.6113562   0.4408111  )
       139        P      tau( 139) = (   0.7927710   0.0720230   0.4378878  )
       140        P      tau( 140) = (   0.5426404   0.4019845   0.1260304  )
       141        O      tau( 141) = (   0.6326879   0.8741353   0.2657802  )
       142        O      tau( 142) = (   0.8842163   0.6833376   0.3045887  )
       143        O      tau( 143) = (   0.8716178   0.1427921   0.3017538  )
       144        O      tau( 144) = (   0.6212010   0.3308836   0.2619957  )
       145        O      tau( 145) = (   0.6507714   0.8562512   0.0039320  )
       146        O      tau( 146) = (   0.9014054   0.7014628   0.5660366  )
       147        O      tau( 147) = (   0.8548963   0.1598079   0.5635571  )
       148        O      tau( 148) = (   0.6044469   0.3128877   0.0010676  )
       149        O      tau( 149) = (   0.6024424   0.5573310   0.1292027  )
       150        O      tau( 150) = (   0.8498940   1.0004653   0.4395886  )
       151        O      tau( 151) = (   0.8798395   0.3955995   0.1365272  )
       152        O      tau( 152) = (   0.6286921   0.0784807   0.4273696  )
       153        O      tau( 153) = (   0.6294973   0.6177923   0.4298489  )
       154        O      tau( 154) = (   0.9024339   0.4560482   0.4374624  )
       155        O      tau( 155) = (   0.6547812   0.0161158   0.1274406  )
       156        O      tau( 156) = (   0.8760507   0.9382775   0.1406535  )
       157        O      tau( 157) = (   0.1248109   0.3901961   1.8430336  )
       158        H      tau( 158) = (   0.2082109   0.3300793   1.8688003  )

     -------------------------------------------------
     Parameters for Dispersion (Grimme-D2) Correction:
     -------------------------------------------------
       atom      VdW radius       C_6     

        Ni         2.952        374.666
        Mn         2.952        374.666
        P          3.222        271.980
        O          2.536         24.284
        H          1.892          4.857

     number of k points=     1  Gaussian smearing, width (Ry)=  0.0100
                       cart. coord. in units 2pi/alat
        k(    1) = (   0.0000000   0.0000000   0.0000000), wk =   1.0000000

     Dense  grid:  1918138 G-vectors     FFT dimensions: ( 125, 135, 432)

     Smooth grid:   485265 G-vectors     FFT dimensions: (  80,  90, 288)

     Estimated max dynamical RAM per process >     320.12 MB

     Estimated total dynamical RAM >      20.01 GB
     Generating pointlists ...
     new r_m :   0.0802 (alat units)  1.4195 (a.u.) for type    1
     new r_m :   0.0869 (alat units)  1.5388 (a.u.) for type    2
     new r_m :   0.0650 (alat units)  1.1499 (a.u.) for type    3
     new r_m :   0.0437 (alat units)  0.7739 (a.u.) for type    4
     new r_m :   0.0437 (alat units)  0.7739 (a.u.) for type    5

     Initial potential from superposition of free atoms

     starting charge    1077.8900, renormalised to    1078.0000

     negative rho (up, down):  1.232E-03 4.556E-04
 
     Adding external electric field

     Computed dipole along edir(3) : 
        Dipole                1.6254 Ry au,          4.1313 Debye
        Dipole field          0.0010 Ry au, 
 
        Potential amp.       -0.1091 Ry
        Total length         54.2615 bohr
 
 
     Adding external electric field

     Computed dipole along edir(3) : 
        Dipole                1.6254 Ry au,          4.1313 Debye
        Dipole field          0.0010 Ry au, 
 
        Potential amp.       -0.1091 Ry
        Total length         54.2615 bohr
 
     Starting wfcs are  812 randomized atomic wfcs

     total cpu time spent up to now is        9.9 secs

     Self-consistent Calculation

     iteration #  1     ecut=    50.00 Ry     beta= 0.10
     Davidson diagonalization with overlap
     ethr =  1.00E-02,  avg # of iterations =  6.0

     negative rho (up, down):  3.388E-01 6.364E-07
 
     Adding external electric field

     Computed dipole along edir(3) : 
        Dipole               -3.6423 Ry au,         -9.2578 Debye
        Dipole field         -0.0023 Ry au, 
 
        Potential amp.        0.2444 Ry
        Total length         54.2615 bohr
 
 
     Adding external electric field

     Computed dipole along edir(3) : 
        Dipole               -3.6423 Ry au,         -9.2578 Debye
        Dipole field         -0.0023 Ry au, 
 
        Potential amp.        0.2444 Ry
        Total length         54.2615 bohr
 

     total cpu time spent up to now is       35.9 secs

     total energy              =   -7177.32574881 Ry
     estimated scf accuracy    <     739.75837392 Ry

     total magnetization       =   216.00 Bohr mag/cell
     absolute magnetization    =   297.53 Bohr mag/cell

     iteration #  2     ecut=    50.00 Ry     beta= 0.10
     Davidson diagonalization with overlap
     ethr =  1.00E-02,  avg # of iterations =  2.0

     negative rho (up, down):  3.235E-01 4.658E-07
 
     Adding external electric field

     Computed dipole along edir(3) : 
        Dipole               -2.4139 Ry au,         -6.1355 Debye
        Dipole field         -0.0015 Ry au, 
 
        Potential amp.        0.1620 Ry
        Total length         54.2615 bohr
 
 
     Adding external electric field

     Computed dipole along edir(3) : 
        Dipole               -2.4139 Ry au,         -6.1355 Debye
        Dipole field         -0.0015 Ry au, 
 
        Potential amp.        0.1620 Ry
        Total length         54.2615 bohr
 

     total cpu time spent up to now is       50.9 secs

     total energy              =   -7261.69978365 Ry
     estimated scf accuracy    <     215.43476361 Ry

     total magnetization       =   151.32 Bohr mag/cell
     absolute magnetization    =   200.57 Bohr mag/cell

     iteration #  3     ecut=    50.00 Ry     beta= 0.10
     Davidson diagonalization with overlap
     ethr =  1.00E-02,  avg # of iterations =  1.5

     negative rho (up, down):  2.848E-01 4.138E-07
 
     Adding external electric field

     Computed dipole along edir(3) : 
        Dipole               -2.0440 Ry au,         -5.1953 Debye
        Dipole field         -0.0013 Ry au, 
 
        Potential amp.        0.1372 Ry
        Total length         54.2615 bohr
 
 
     Adding external electric field

     Computed dipole along edir(3) : 
        Dipole               -2.0440 Ry au,         -5.1953 Debye
        Dipole field         -0.0013 Ry au, 
 
        Potential amp.        0.1372 Ry
        Total length         54.2615 bohr
 

     total cpu time spent up to now is       63.8 secs

     total energy              =   -7292.66935507 Ry
     estimated scf accuracy    <      99.02312987 Ry

     total magnetization       =   126.50 Bohr mag/cell
     absolute magnetization    =   179.83 Bohr mag/cell

     iteration #  4     ecut=    50.00 Ry     beta= 0.10
     Davidson diagonalization with overlap
     ethr =  9.19E-03,  avg # of iterations =  1.5

     negative rho (up, down):  2.163E-01 1.562E-07
 
     Adding external electric field

     Computed dipole along edir(3) : 
        Dipole               -2.0720 Ry au,         -5.2665 Debye
        Dipole field         -0.0013 Ry au, 
 
        Potential amp.        0.1391 Ry
        Total length         54.2615 bohr
 
 
     Adding external electric field

     Computed dipole along edir(3) : 
        Dipole               -2.0720 Ry au,         -5.2665 Debye
        Dipole field         -0.0013 Ry au, 
 
        Potential amp.        0.1391 Ry
        Total length         54.2615 bohr
 

     total cpu time spent up to now is       76.9 secs

     total energy              =   -7324.76248126 Ry
     estimated scf accuracy    <      78.65381005 Ry

     total magnetization       =   110.58 Bohr mag/cell
     absolute magnetization    =   165.13 Bohr mag/cell

     iteration #  5     ecut=    50.00 Ry     beta= 0.10
     Davidson diagonalization with overlap
     ethr =  7.30E-03,  avg # of iterations =  1.5

     negative rho (up, down):  1.385E-02 2.226E-07
 
     Adding external electric field

     Computed dipole along edir(3) : 
        Dipole               -1.6795 Ry au,         -4.2688 Debye
        Dipole field         -0.0010 Ry au, 
 
        Potential amp.        0.1127 Ry
        Total length         54.2615 bohr
 
 
     Adding external electric field

     Computed dipole along edir(3) : 
        Dipole               -1.6795 Ry au,         -4.2688 Debye
        Dipole field         -0.0010 Ry au, 
 
        Potential amp.        0.1127 Ry
        Total length         54.2615 bohr
 

     total cpu time spent up to now is       90.0 secs

     total energy              =   -7383.68610666 Ry
     estimated scf accuracy    <      63.10448986 Ry

     total magnetization       =    88.18 Bohr mag/cell
     absolute magnetization    =   146.82 Bohr mag/cell

     iteration #  6     ecut=    50.00 Ry     beta= 0.10
     Davidson diagonalization with overlap
     ethr =  5.85E-03,  avg # of iterations =  1.5

     negative rho (up, down):  4.465E-04 4.487E-04
 
     Adding external electric field

     Computed dipole along edir(3) : 
        Dipole               -1.2944 Ry au,         -3.2901 Debye
        Dipole field         -0.0008 Ry au, 
 
        Potential amp.        0.0869 Ry
        Total length         54.2615 bohr
 
 
     Adding external electric field

     Computed dipole along edir(3) : 
        Dipole               -1.2944 Ry au,         -3.2901 Debye
        Dipole field         -0.0008 Ry au, 
 
        Potential amp.        0.0869 Ry
        Total length         54.2615 bohr
 

     total cpu time spent up to now is      103.0 secs

     total energy              =   -7395.19514492 Ry
     estimated scf accuracy    <      13.40080316 Ry

     total magnetization       =    82.00 Bohr mag/cell
     absolute magnetization    =   117.80 Bohr mag/cell

     iteration #  7     ecut=    50.00 Ry     beta= 0.10
     Davidson diagonalization with overlap
     ethr =  1.24E-03,  avg # of iterations =  5.0

     negative rho (up, down):  4.211E-04 4.430E-04
 
     Adding external electric field

     Computed dipole along edir(3) : 
        Dipole               -1.2750 Ry au,         -3.2408 Debye
        Dipole field         -0.0008 Ry au, 
 
        Potential amp.        0.0856 Ry
        Total length         54.2615 bohr
 
 
     Adding external electric field

     Computed dipole along edir(3) : 
        Dipole               -1.2750 Ry au,         -3.2408 Debye
        Dipole field         -0.0008 Ry au, 
 
        Potential amp.        0.0856 Ry
        Total length         54.2615 bohr
 

     total cpu time spent up to now is      122.6 secs

     total energy              =   -7397.60394950 Ry
     estimated scf accuracy    <      13.33847033 Ry

     total magnetization       =    71.12 Bohr mag/cell
     absolute magnetization    =    88.82 Bohr mag/cell

     iteration #  8     ecut=    50.00 Ry     beta= 0.10
     Davidson diagonalization with overlap
     ethr =  1.24E-03,  avg # of iterations =  1.0

     negative rho (up, down):  2.746E-04 3.385E-04
 
     Adding external electric field

     Computed dipole along edir(3) : 
        Dipole               -1.0862 Ry au,         -2.7609 Debye
        Dipole field         -0.0007 Ry au, 
 
        Potential amp.        0.0729 Ry
        Total length         54.2615 bohr
 
 
     Adding external electric field

     Computed dipole along edir(3) : 
        Dipole               -1.0862 Ry au,         -2.7609 Debye
        Dipole field         -0.0007 Ry au, 
 
        Potential amp.        0.0729 Ry
        Total length         54.2615 bohr
 

     total cpu time spent up to now is      134.0 secs

     total energy              =   -7397.48815210 Ry
     estimated scf accuracy    <      12.63963521 Ry

     total magnetization       =    71.42 Bohr mag/cell
     absolute magnetization    =    88.79 Bohr mag/cell

     iteration #  9     ecut=    50.00 Ry     beta= 0.10
     Davidson diagonalization with overlap
     ethr =  1.17E-03,  avg # of iterations =  1.0

     negative rho (up, down):  2.607E-04 3.667E-04
 
     Adding external electric field

     Computed dipole along edir(3) : 
        Dipole               -1.0125 Ry au,         -2.5734 Debye
        Dipole field         -0.0006 Ry au, 
 
        Potential amp.        0.0680 Ry
        Total length         54.2615 bohr
 
 
     Adding external electric field

     Computed dipole along edir(3) : 
        Dipole               -1.0125 Ry au,         -2.5734 Debye
        Dipole field         -0.0006 Ry au, 
 
        Potential amp.        0.0680 Ry
        Total length         54.2615 bohr
 

     total cpu time spent up to now is      145.3 secs

     total energy              =   -7397.47471096 Ry
     estimated scf accuracy    <       7.65926130 Ry

     total magnetization       =    72.06 Bohr mag/cell
     absolute magnetization    =    87.84 Bohr mag/cell

     iteration # 10     ecut=    50.00 Ry     beta= 0.10
     Davidson diagonalization with overlap
     ethr =  7.11E-04,  avg # of iterations =  1.5

     negative rho (up, down):  2.093E-04 4.250E-04
 
     Adding external electric field

     Computed dipole along edir(3) : 
        Dipole               -1.0135 Ry au,         -2.5761 Debye
        Dipole field         -0.0006 Ry au, 
 
        Potential amp.        0.0680 Ry
        Total length         54.2615 bohr
 
 
     Adding external electric field

     Computed dipole along edir(3) : 
        Dipole               -1.0135 Ry au,         -2.5761 Debye
        Dipole field         -0.0006 Ry au, 
 
        Potential amp.        0.0680 Ry
        Total length         54.2615 bohr
 

     total cpu time spent up to now is      157.6 secs

     total energy              =   -7397.56505429 Ry
     estimated scf accuracy    <       2.66870944 Ry

     total magnetization       =    75.69 Bohr mag/cell
     absolute magnetization    =    89.60 Bohr mag/cell

     iteration # 11     ecut=    50.00 Ry     beta= 0.10
     Davidson diagonalization with overlap
     ethr =  2.48E-04,  avg # of iterations =  6.5

     negative rho (up, down):  1.460E-04 3.848E-04
 
     Adding external electric field

     Computed dipole along edir(3) : 
        Dipole               -0.9372 Ry au,         -2.3821 Debye
        Dipole field         -0.0006 Ry au, 
 
        Potential amp.        0.0629 Ry
        Total length         54.2615 bohr
 
 
     Adding external electric field

     Computed dipole along edir(3) : 
        Dipole               -0.9372 Ry au,         -2.3821 Debye
        Dipole field         -0.0006 Ry au, 
 
        Potential amp.        0.0629 Ry
        Total length         54.2615 bohr
 

     total cpu time spent up to now is      172.5 secs

     total energy              =   -7397.61676256 Ry
     estimated scf accuracy    <       1.84685058 Ry

     total magnetization       =    76.40 Bohr mag/cell
     absolute magnetization    =    88.92 Bohr mag/cell

     iteration # 12     ecut=    50.00 Ry     beta= 0.10
     Davidson diagonalization with overlap
     c_bands:  2 eigenvalues not converged
     ethr =  1.71E-04,  avg # of iterations = 11.0

     negative rho (up, down):  5.855E-05 1.633E-04
 
     Adding external electric field

     Computed dipole along edir(3) : 
        Dipole               -0.8080 Ry au,         -2.0538 Debye
        Dipole field         -0.0005 Ry au, 
 
        Potential amp.        0.0542 Ry
        Total length         54.2615 bohr
 
 
     Adding external electric field

     Computed dipole along edir(3) : 
        Dipole               -0.8080 Ry au,         -2.0538 Debye
        Dipole field         -0.0005 Ry au, 
 
        Potential amp.        0.0542 Ry
        Total length         54.2615 bohr
 

     total cpu time spent up to now is      189.3 secs

     total energy              =   -7397.75571769 Ry
     estimated scf accuracy    <       0.82783672 Ry

     total magnetization       =    78.88 Bohr mag/cell
     absolute magnetization    =    89.35 Bohr mag/cell

     iteration # 13     ecut=    50.00 Ry     beta= 0.10
     Davidson diagonalization with overlap
     c_bands:  4 eigenvalues not converged
     ethr =  7.68E-05,  avg # of iterations = 14.0

     negative rho (up, down):  2.917E-06 3.320E-05
 
     Adding external electric field

     Computed dipole along edir(3) : 
        Dipole               -0.6554 Ry au,         -1.6660 Debye
        Dipole field         -0.0004 Ry au, 
 
        Potential amp.        0.0440 Ry
        Total length         54.2615 bohr
 
 
     Adding external electric field

     Computed dipole along edir(3) : 
        Dipole               -0.6554 Ry au,         -1.6660 Debye
        Dipole field         -0.0004 Ry au, 
 
        Potential amp.        0.0440 Ry
        Total length         54.2615 bohr
 

     total cpu time spent up to now is      209.5 secs

     total energy              =   -7397.88280828 Ry
     estimated scf accuracy    <       0.56217361 Ry

     total magnetization       =    80.26 Bohr mag/cell
     absolute magnetization    =    88.43 Bohr mag/cell

     iteration # 14     ecut=    50.00 Ry     beta= 0.10
     Davidson diagonalization with overlap
     c_bands:  3 eigenvalues not converged
     ethr =  5.21E-05,  avg # of iterations = 11.0

     negative rho (up, down):  7.921E-07 3.485E-05
 
     Adding external electric field

     Computed dipole along edir(3) : 
        Dipole               -0.7219 Ry au,         -1.8349 Debye
        Dipole field         -0.0004 Ry au, 
 
        Potential amp.        0.0484 Ry
        Total length         54.2615 bohr
 
 
     Adding external electric field

     Computed dipole along edir(3) : 
        Dipole               -0.7219 Ry au,         -1.8349 Debye
        Dipole field         -0.0004 Ry au, 
 
        Potential amp.        0.0484 Ry
        Total length         54.2615 bohr
 

     total cpu time spent up to now is      228.4 secs

     total energy              =   -7397.89149298 Ry
     estimated scf accuracy    <       0.70483661 Ry

     total magnetization       =    80.60 Bohr mag/cell
     absolute magnetization    =    86.27 Bohr mag/cell

     iteration # 15     ecut=    50.00 Ry     beta= 0.10
     Davidson diagonalization with overlap
     ethr =  5.21E-05,  avg # of iterations =  1.5

     negative rho (up, down):  5.424E-07 6.376E-05
 
     Adding external electric field

     Computed dipole along edir(3) : 
        Dipole               -0.7920 Ry au,         -2.0130 Debye
        Dipole field         -0.0005 Ry au, 
 
        Potential amp.        0.0532 Ry
        Total length         54.2615 bohr
 
 
     Adding external electric field

     Computed dipole along edir(3) : 
        Dipole               -0.7920 Ry au,         -2.0130 Debye
        Dipole field         -0.0005 Ry au, 
 
        Potential amp.        0.0532 Ry
        Total length         54.2615 bohr
 

     total cpu time spent up to now is      239.7 secs

     total energy              =   -7397.92609923 Ry
     estimated scf accuracy    <       0.86234234 Ry

     total magnetization       =    79.46 Bohr mag/cell
     absolute magnetization    =    84.81 Bohr mag/cell

     iteration # 16     ecut=    50.00 Ry     beta= 0.10
     Davidson diagonalization with overlap
     ethr =  5.21E-05,  avg # of iterations =  1.0

     negative rho (up, down):  2.262E-06 1.205E-04
 
     Adding external electric field

     Computed dipole along edir(3) : 
        Dipole               -0.8221 Ry au,         -2.0895 Debye
        Dipole field         -0.0005 Ry au, 
 
        Potential amp.        0.0552 Ry
        Total length         54.2615 bohr
 
 
     Adding external electric field

     Computed dipole along edir(3) : 
        Dipole               -0.8221 Ry au,         -2.0895 Debye
        Dipole field         -0.0005 Ry au, 
 
        Potential amp.        0.0552 Ry
        Total length         54.2615 bohr
 

     total cpu time spent up to now is      250.2 secs

     total energy              =   -7397.90848260 Ry
     estimated scf accuracy    <       0.36150404 Ry

     total magnetization       =    79.64 Bohr mag/cell
     absolute magnetization    =    84.35 Bohr mag/cell

     iteration # 17     ecut=    50.00 Ry     beta= 0.10
     Davidson diagonalization with overlap
     ethr =  3.35E-05,  avg # of iterations =  1.0

     negative rho (up, down):  2.840E-07 1.054E-04
 
     Adding external electric field

     Computed dipole along edir(3) : 
        Dipole               -0.7365 Ry au,         -1.8719 Debye
        Dipole field         -0.0005 Ry au, 
 
        Potential amp.        0.0494 Ry
        Total length         54.2615 bohr
 
 
     Adding external electric field

     Computed dipole along edir(3) : 
        Dipole               -0.7365 Ry au,         -1.8719 Debye
        Dipole field         -0.0005 Ry au, 
 
        Potential amp.        0.0494 Ry
        Total length         54.2615 bohr
 

     total cpu time spent up to now is      260.7 secs

     total energy              =   -7397.98459265 Ry
     estimated scf accuracy    <       0.23825739 Ry

     total magnetization       =    79.75 Bohr mag/cell
     absolute magnetization    =    84.43 Bohr mag/cell

     iteration # 18     ecut=    50.00 Ry     beta= 0.10
     Davidson diagonalization with overlap
     ethr =  2.21E-05,  avg # of iterations =  2.0

     negative rho (up, down):  9.549E-06 4.252E-05
 
     Adding external electric field

     Computed dipole along edir(3) : 
        Dipole               -0.6568 Ry au,         -1.6693 Debye
        Dipole field         -0.0004 Ry au, 
 
        Potential amp.        0.0441 Ry
        Total length         54.2615 bohr
 
 
     Adding external electric field

     Computed dipole along edir(3) : 
        Dipole               -0.6568 Ry au,         -1.6693 Debye
        Dipole field         -0.0004 Ry au, 
 
        Potential amp.        0.0441 Ry
        Total length         54.2615 bohr
 

     total cpu time spent up to now is      273.5 secs

     total energy              =   -7398.02487656 Ry
     estimated scf accuracy    <       0.34098803 Ry

     total magnetization       =    79.02 Bohr mag/cell
     absolute magnetization    =    81.56 Bohr mag/cell

     iteration # 19     ecut=    50.00 Ry     beta= 0.10
     Davidson diagonalization with overlap
     ethr =  2.21E-05,  avg # of iterations =  2.0

     negative rho (up, down):  2.149E-05 2.656E-05
 
     Adding external electric field

     Computed dipole along edir(3) : 
        Dipole               -0.7350 Ry au,         -1.8682 Debye
        Dipole field         -0.0005 Ry au, 
 
        Potential amp.        0.0493 Ry
        Total length         54.2615 bohr
 
 
     Adding external electric field

     Computed dipole along edir(3) : 
        Dipole               -0.7350 Ry au,         -1.8682 Debye
        Dipole field         -0.0005 Ry au, 
 
        Potential amp.        0.0493 Ry
        Total length         54.2615 bohr
 

     total cpu time spent up to now is      285.3 secs

     total energy              =   -7398.03269747 Ry
     estimated scf accuracy    <       0.15502248 Ry

     total magnetization       =    80.68 Bohr mag/cell
     absolute magnetization    =    82.48 Bohr mag/cell

     iteration # 20     ecut=    50.00 Ry     beta= 0.10
     Davidson diagonalization with overlap
     ethr =  1.44E-05,  avg # of iterations =  1.5

     negative rho (up, down):  1.785E-05 2.023E-05
 
     Adding external electric field

     Computed dipole along edir(3) : 
        Dipole               -0.7339 Ry au,         -1.8655 Debye
        Dipole field         -0.0005 Ry au, 
 
        Potential amp.        0.0493 Ry
        Total length         54.2615 bohr
 
 
     Adding external electric field

     Computed dipole along edir(3) : 
        Dipole               -0.7339 Ry au,         -1.8655 Debye
        Dipole field         -0.0005 Ry au, 
 
        Potential amp.        0.0493 Ry
        Total length         54.2615 bohr
 

     total cpu time spent up to now is      296.6 secs

     total energy              =   -7398.03895507 Ry
     estimated scf accuracy    <       0.46904340 Ry

     total magnetization       =    79.42 Bohr mag/cell
     absolute magnetization    =    81.21 Bohr mag/cell

     iteration # 21     ecut=    50.00 Ry     beta= 0.10
     Davidson diagonalization with overlap
     ethr =  1.44E-05,  avg # of iterations =  1.0

     negative rho (up, down):  9.597E-06 1.474E-05
 
     Adding external electric field

     Computed dipole along edir(3) : 
        Dipole               -0.7192 Ry au,         -1.8280 Debye
        Dipole field         -0.0004 Ry au, 
 
        Potential amp.        0.0483 Ry
        Total length         54.2615 bohr
 
 
     Adding external electric field

     Computed dipole along edir(3) : 
        Dipole               -0.7192 Ry au,         -1.8280 Debye
        Dipole field         -0.0004 Ry au, 
 
        Potential amp.        0.0483 Ry
        Total length         54.2615 bohr
 

     total cpu time spent up to now is      307.0 secs

     total energy              =   -7398.03839677 Ry
     estimated scf accuracy    <       0.27173480 Ry

     total magnetization       =    79.84 Bohr mag/cell
     absolute magnetization    =    81.65 Bohr mag/cell

     iteration # 22     ecut=    50.00 Ry     beta= 0.10
     Davidson diagonalization with overlap
     ethr =  1.44E-05,  avg # of iterations =  1.5

     negative rho (up, down):  3.043E-06 1.930E-06
 
     Adding external electric field

     Computed dipole along edir(3) : 
        Dipole               -0.4978 Ry au,         -1.2653 Debye
        Dipole field         -0.0003 Ry au, 
 
        Potential amp.        0.0334 Ry
        Total length         54.2615 bohr
 
 
     Adding external electric field

     Computed dipole along edir(3) : 
        Dipole               -0.4978 Ry au,         -1.2653 Debye
        Dipole field         -0.0003 Ry au, 
 
        Potential amp.        0.0334 Ry
        Total length         54.2615 bohr
 

     total cpu time spent up to now is      318.3 secs

     total energy              =   -7398.02674538 Ry
     estimated scf accuracy    <       0.24908554 Ry

     total magnetization       =    79.67 Bohr mag/cell
     absolute magnetization    =    81.50 Bohr mag/cell

     iteration # 23     ecut=    50.00 Ry     beta= 0.10
     Davidson diagonalization with overlap
     ethr =  1.44E-05,  avg # of iterations =  2.0

     negative rho (up, down):  7.043E-06 1.187E-05
 
     Adding external electric field

     Computed dipole along edir(3) : 
        Dipole               -0.5560 Ry au,         -1.4132 Debye
        Dipole field         -0.0003 Ry au, 
 
        Potential amp.        0.0373 Ry
        Total length         54.2615 bohr
 
 
     Adding external electric field

     Computed dipole along edir(3) : 
        Dipole               -0.5560 Ry au,         -1.4132 Debye
        Dipole field         -0.0003 Ry au, 
 
        Potential amp.        0.0373 Ry
        Total length         54.2615 bohr
 

     total cpu time spent up to now is      330.1 secs

     total energy              =   -7398.03431528 Ry
     estimated scf accuracy    <       0.19083627 Ry

     total magnetization       =    80.33 Bohr mag/cell
     absolute magnetization    =    81.90 Bohr mag/cell

     iteration # 24     ecut=    50.00 Ry     beta= 0.10
     Davidson diagonalization with overlap
     ethr =  1.44E-05,  avg # of iterations =  1.5

     negative rho (up, down):  9.561E-06 2.205E-05
 
     Adding external electric field

     Computed dipole along edir(3) : 
        Dipole               -0.5341 Ry au,         -1.3574 Debye
        Dipole field         -0.0003 Ry au, 
 
        Potential amp.        0.0358 Ry
        Total length         54.2615 bohr
 
 
     Adding external electric field

     Computed dipole along edir(3) : 
        Dipole               -0.5341 Ry au,         -1.3574 Debye
        Dipole field         -0.0003 Ry au, 
 
        Potential amp.        0.0358 Ry
        Total length         54.2615 bohr
 

     total cpu time spent up to now is      341.6 secs

     total energy              =   -7398.03487678 Ry
     estimated scf accuracy    <       0.05996202 Ry

     total magnetization       =    80.07 Bohr mag/cell
     absolute magnetization    =    81.58 Bohr mag/cell

     iteration # 25     ecut=    50.00 Ry     beta= 0.10
     Davidson diagonalization with overlap
     ethr =  5.56E-06,  avg # of iterations =  2.0

     negative rho (up, down):  9.750E-06 2.257E-05
 
     Adding external electric field

     Computed dipole along edir(3) : 
        Dipole               -0.5260 Ry au,         -1.3370 Debye
        Dipole field         -0.0003 Ry au, 
 
        Potential amp.        0.0353 Ry
        Total length         54.2615 bohr
 
 
     Adding external electric field

     Computed dipole along edir(3) : 
        Dipole               -0.5260 Ry au,         -1.3370 Debye
        Dipole field         -0.0003 Ry au, 
 
        Potential amp.        0.0353 Ry
        Total length         54.2615 bohr
 

     total cpu time spent up to now is      354.8 secs

     total energy              =   -7398.03597529 Ry
     estimated scf accuracy    <       0.09004339 Ry

     total magnetization       =    79.60 Bohr mag/cell
     absolute magnetization    =    81.09 Bohr mag/cell

     iteration # 26     ecut=    50.00 Ry     beta= 0.10
     Davidson diagonalization with overlap
     ethr =  5.56E-06,  avg # of iterations =  1.0

     negative rho (up, down):  1.626E-05 2.054E-05
 
     Adding external electric field

     Computed dipole along edir(3) : 
        Dipole               -0.5176 Ry au,         -1.3155 Debye
        Dipole field         -0.0003 Ry au, 
 
        Potential amp.        0.0347 Ry
        Total length         54.2615 bohr
 
 
     Adding external electric field

     Computed dipole along edir(3) : 
        Dipole               -0.5176 Ry au,         -1.3155 Debye
        Dipole field         -0.0003 Ry au, 
 
        Potential amp.        0.0347 Ry
        Total length         54.2615 bohr
 

     total cpu time spent up to now is      366.1 secs

     total energy              =   -7398.03595522 Ry
     estimated scf accuracy    <       0.08371751 Ry

     total magnetization       =    79.70 Bohr mag/cell
     absolute magnetization    =    81.17 Bohr mag/cell

     iteration # 27     ecut=    50.00 Ry     beta= 0.10
     Davidson diagonalization with overlap
     ethr =  5.56E-06,  avg # of iterations =  2.0

     negative rho (up, down):  1.032E-05 1.350E-05
 
     Adding external electric field

     Computed dipole along edir(3) : 
        Dipole               -0.6185 Ry au,         -1.5722 Debye
        Dipole field         -0.0004 Ry au, 
 
        Potential amp.        0.0415 Ry
        Total length         54.2615 bohr
 
 
     Adding external electric field

     Computed dipole along edir(3) : 
        Dipole               -0.6185 Ry au,         -1.5722 Debye
        Dipole field         -0.0004 Ry au, 
 
        Potential amp.        0.0415 Ry
        Total length         54.2615 bohr
 

     total cpu time spent up to now is      378.6 secs

     total energy              =   -7398.03407629 Ry
     estimated scf accuracy    <       0.08639624 Ry

     total magnetization       =    79.83 Bohr mag/cell
     absolute magnetization    =    81.28 Bohr mag/cell

     iteration # 28     ecut=    50.00 Ry     beta= 0.10
     Davidson diagonalization with overlap
     ethr =  5.56E-06,  avg # of iterations =  1.5

     negative rho (up, down):  1.218E-05 7.925E-06
 
     Adding external electric field

     Computed dipole along edir(3) : 
        Dipole               -0.6250 Ry au,         -1.5887 Debye
        Dipole field         -0.0004 Ry au, 
 
        Potential amp.        0.0419 Ry
        Total length         54.2615 bohr
 
 
     Adding external electric field

     Computed dipole along edir(3) : 
        Dipole               -0.6250 Ry au,         -1.5887 Debye
        Dipole field         -0.0004 Ry au, 
 
        Potential amp.        0.0419 Ry
        Total length         54.2615 bohr
 

     total cpu time spent up to now is      390.6 secs

     total energy              =   -7398.03530519 Ry
     estimated scf accuracy    <       0.03432776 Ry

     total magnetization       =    80.08 Bohr mag/cell
     absolute magnetization    =    81.64 Bohr mag/cell

     iteration # 29     ecut=    50.00 Ry     beta= 0.10
     Davidson diagonalization with overlap
     c_bands:  4 eigenvalues not converged
     ethr =  3.18E-06,  avg # of iterations = 11.0

     negative rho (up, down):  1.961E-07 2.126E-08
 
     Adding external electric field

     Computed dipole along edir(3) : 
        Dipole               -0.5306 Ry au,         -1.3487 Debye
        Dipole field         -0.0003 Ry au, 
 
        Potential amp.        0.0356 Ry
        Total length         54.2615 bohr
 
 
     Adding external electric field

     Computed dipole along edir(3) : 
        Dipole               -0.5306 Ry au,         -1.3487 Debye
        Dipole field         -0.0003 Ry au, 
 
        Potential amp.        0.0356 Ry
        Total length         54.2615 bohr
 

     total cpu time spent up to now is      409.0 secs

     total energy              =   -7398.03388890 Ry
     estimated scf accuracy    <       0.03153033 Ry

     total magnetization       =    79.96 Bohr mag/cell
     absolute magnetization    =    81.49 Bohr mag/cell

     iteration # 30     ecut=    50.00 Ry     beta= 0.10
     Davidson diagonalization with overlap
     ethr =  2.92E-06,  avg # of iterations =  7.0

     negative rho (up, down):  7.524E-07 4.245E-07
 
     Adding external electric field

     Computed dipole along edir(3) : 
        Dipole               -0.5665 Ry au,         -1.4398 Debye
        Dipole field         -0.0004 Ry au, 
 
        Potential amp.        0.0380 Ry
        Total length         54.2615 bohr
 
 
     Adding external electric field

     Computed dipole along edir(3) : 
        Dipole               -0.5665 Ry au,         -1.4398 Debye
        Dipole field         -0.0004 Ry au, 
 
        Potential amp.        0.0380 Ry
        Total length         54.2615 bohr
 

     total cpu time spent up to now is      423.6 secs

     total energy              =   -7398.03442059 Ry
     estimated scf accuracy    <       0.06044485 Ry

     total magnetization       =    80.11 Bohr mag/cell
     absolute magnetization    =    81.64 Bohr mag/cell

     iteration # 31     ecut=    50.00 Ry     beta= 0.10
     Davidson diagonalization with overlap
     ethr =  2.92E-06,  avg # of iterations =  2.0

     negative rho (up, down):  1.510E-06 9.294E-07
 
     Adding external electric field

     Computed dipole along edir(3) : 
        Dipole               -0.5808 Ry au,         -1.4762 Debye
        Dipole field         -0.0004 Ry au, 
 
        Potential amp.        0.0390 Ry
        Total length         54.2615 bohr
 
 
     Adding external electric field

     Computed dipole along edir(3) : 
        Dipole               -0.5808 Ry au,         -1.4762 Debye
        Dipole field         -0.0004 Ry au, 
 
        Potential amp.        0.0390 Ry
        Total length         54.2615 bohr
 

     total cpu time spent up to now is      435.7 secs

     total energy              =   -7398.03459782 Ry
     estimated scf accuracy    <       0.03147180 Ry

     total magnetization       =    80.13 Bohr mag/cell
     absolute magnetization    =    81.71 Bohr mag/cell

     iteration # 32     ecut=    50.00 Ry     beta= 0.10
     Davidson diagonalization with overlap
     ethr =  2.92E-06,  avg # of iterations =  1.5

     negative rho (up, down):  1.707E-06 8.978E-07
 
     Adding external electric field

     Computed dipole along edir(3) : 
        Dipole               -0.5805 Ry au,         -1.4756 Debye
        Dipole field         -0.0004 Ry au, 
 
        Potential amp.        0.0390 Ry
        Total length         54.2615 bohr
 
 
     Adding external electric field

     Computed dipole along edir(3) : 
        Dipole               -0.5805 Ry au,         -1.4756 Debye
        Dipole field         -0.0004 Ry au, 
 
        Potential amp.        0.0390 Ry
        Total length         54.2615 bohr
 

     total cpu time spent up to now is      447.2 secs

     total energy              =   -7398.03401689 Ry
     estimated scf accuracy    <       0.02487706 Ry

     total magnetization       =    80.07 Bohr mag/cell
     absolute magnetization    =    81.66 Bohr mag/cell

     iteration # 33     ecut=    50.00 Ry     beta= 0.10
     Davidson diagonalization with overlap
     ethr =  2.31E-06,  avg # of iterations =  2.0

     negative rho (up, down):  1.161E-06 8.511E-07
 
     Adding external electric field

     Computed dipole along edir(3) : 
        Dipole               -0.5686 Ry au,         -1.4453 Debye
        Dipole field         -0.0004 Ry au, 
 
        Potential amp.        0.0382 Ry
        Total length         54.2615 bohr
 
 
     Adding external electric field

     Computed dipole along edir(3) : 
        Dipole               -0.5686 Ry au,         -1.4453 Debye
        Dipole field         -0.0004 Ry au, 
 
        Potential amp.        0.0382 Ry
        Total length         54.2615 bohr
 

     total cpu time spent up to now is      458.9 secs

     total energy              =   -7398.03501896 Ry
     estimated scf accuracy    <       0.02953731 Ry

     total magnetization       =    80.12 Bohr mag/cell
     absolute magnetization    =    81.72 Bohr mag/cell

     iteration # 34     ecut=    50.00 Ry     beta= 0.10
     Davidson diagonalization with overlap
     ethr =  2.31E-06,  avg # of iterations =  1.5

     negative rho (up, down):  1.964E-06 1.828E-06
 
     Adding external electric field

     Computed dipole along edir(3) : 
        Dipole               -0.5367 Ry au,         -1.3642 Debye
        Dipole field         -0.0003 Ry au, 
 
        Potential amp.        0.0360 Ry
        Total length         54.2615 bohr
 
 
     Adding external electric field

     Computed dipole along edir(3) : 
        Dipole               -0.5367 Ry au,         -1.3642 Debye
        Dipole field         -0.0003 Ry au, 
 
        Potential amp.        0.0360 Ry
        Total length         54.2615 bohr
 

     total cpu time spent up to now is      469.5 secs

     total energy              =   -7398.03460455 Ry
     estimated scf accuracy    <       0.02663842 Ry

     total magnetization       =    80.08 Bohr mag/cell
     absolute magnetization    =    81.67 Bohr mag/cell

     iteration # 35     ecut=    50.00 Ry     beta= 0.10
     Davidson diagonalization with overlap
     ethr =  2.31E-06,  avg # of iterations =  1.5

     negative rho (up, down):  2.654E-06 2.872E-06
 
     Adding external electric field

     Computed dipole along edir(3) : 
        Dipole               -0.5452 Ry au,         -1.3857 Debye
        Dipole field         -0.0003 Ry au, 
 
        Potential amp.        0.0366 Ry
        Total length         54.2615 bohr
 
 
     Adding external electric field

     Computed dipole along edir(3) : 
        Dipole               -0.5452 Ry au,         -1.3857 Debye
        Dipole field         -0.0003 Ry au, 
 
        Potential amp.        0.0366 Ry
        Total length         54.2615 bohr
 

     total cpu time spent up to now is      480.7 secs

     total energy              =   -7398.03497343 Ry
     estimated scf accuracy    <       0.02730202 Ry

     total magnetization       =    80.07 Bohr mag/cell
     absolute magnetization    =    81.54 Bohr mag/cell

     iteration # 36     ecut=    50.00 Ry     beta= 0.10
     Davidson diagonalization with overlap
     ethr =  2.31E-06,  avg # of iterations =  1.0

     negative rho (up, down):  2.695E-06 2.570E-06
 
     Adding external electric field

     Computed dipole along edir(3) : 
        Dipole               -0.5491 Ry au,         -1.3957 Debye
        Dipole field         -0.0003 Ry au, 
 
        Potential amp.        0.0369 Ry
        Total length         54.2615 bohr
 
 
     Adding external electric field

     Computed dipole along edir(3) : 
        Dipole               -0.5491 Ry au,         -1.3957 Debye
        Dipole field         -0.0003 Ry au, 
 
        Potential amp.        0.0369 Ry
        Total length         54.2615 bohr
 

     total cpu time spent up to now is      490.7 secs

     total energy              =   -7398.03506796 Ry
     estimated scf accuracy    <       0.02670397 Ry

     total magnetization       =    80.06 Bohr mag/cell
     absolute magnetization    =    81.52 Bohr mag/cell

     iteration # 37     ecut=    50.00 Ry     beta= 0.10
     Davidson diagonalization with overlap
     ethr =  2.31E-06,  avg # of iterations =  1.5

     negative rho (up, down):  2.557E-06 2.484E-06
 
     Adding external electric field

     Computed dipole along edir(3) : 
        Dipole               -0.5478 Ry au,         -1.3924 Debye
        Dipole field         -0.0003 Ry au, 
 
        Potential amp.        0.0368 Ry
        Total length         54.2615 bohr
 
 
     Adding external electric field

     Computed dipole along edir(3) : 
        Dipole               -0.5478 Ry au,         -1.3924 Debye
        Dipole field         -0.0003 Ry au, 
 
        Potential amp.        0.0368 Ry
        Total length         54.2615 bohr
 

     total cpu time spent up to now is      501.3 secs

     total energy              =   -7398.03502399 Ry
     estimated scf accuracy    <       0.02479633 Ry

     total magnetization       =    80.05 Bohr mag/cell
     absolute magnetization    =    81.54 Bohr mag/cell

     iteration # 38     ecut=    50.00 Ry     beta= 0.10
     Davidson diagonalization with overlap
     ethr =  2.30E-06,  avg # of iterations =  1.5

     negative rho (up, down):  4.532E-05 5.047E-05
 
     Adding external electric field

     Computed dipole along edir(3) : 
        Dipole               -0.5356 Ry au,         -1.3613 Debye
        Dipole field         -0.0003 Ry au, 
 
        Potential amp.        0.0359 Ry
        Total length         54.2615 bohr
 
 
     Adding external electric field

     Computed dipole along edir(3) : 
        Dipole               -0.5356 Ry au,         -1.3613 Debye
        Dipole field         -0.0003 Ry au, 
 
        Potential amp.        0.0359 Ry
        Total length         54.2615 bohr
 

     total cpu time spent up to now is      512.2 secs

     total energy              =   -7398.03483163 Ry
     estimated scf accuracy    <       0.02723289 Ry

     total magnetization       =    80.07 Bohr mag/cell
     absolute magnetization    =    81.56 Bohr mag/cell

     iteration # 39     ecut=    50.00 Ry     beta= 0.10
     Davidson diagonalization with overlap
     ethr =  2.30E-06,  avg # of iterations =  2.0

     negative rho (up, down):  3.445E-05 3.701E-05
 
     Adding external electric field

     Computed dipole along edir(3) : 
        Dipole               -0.5610 Ry au,         -1.4259 Debye
        Dipole field         -0.0003 Ry au, 
 
        Potential amp.        0.0377 Ry
        Total length         54.2615 bohr
 
 
     Adding external electric field

     Computed dipole along edir(3) : 
        Dipole               -0.5610 Ry au,         -1.4259 Debye
        Dipole field         -0.0003 Ry au, 
 
        Potential amp.        0.0377 Ry
        Total length         54.2615 bohr
 

     total cpu time spent up to now is      524.3 secs

     total energy              =   -7398.03469335 Ry
     estimated scf accuracy    <       0.02561297 Ry

     total magnetization       =    80.02 Bohr mag/cell
     absolute magnetization    =    81.55 Bohr mag/cell

     iteration # 40     ecut=    50.00 Ry     beta= 0.10
     Davidson diagonalization with overlap
     ethr =  2.30E-06,  avg # of iterations =  1.5

     negative rho (up, down):  2.246E-05 2.429E-05
 
     Adding external electric field

     Computed dipole along edir(3) : 
        Dipole               -0.5418 Ry au,         -1.3772 Debye
        Dipole field         -0.0003 Ry au, 
 
        Potential amp.        0.0364 Ry
        Total length         54.2615 bohr
 
 
     Adding external electric field

     Computed dipole along edir(3) : 
        Dipole               -0.5418 Ry au,         -1.3772 Debye
        Dipole field         -0.0003 Ry au, 
 
        Potential amp.        0.0364 Ry
        Total length         54.2615 bohr
 

     total cpu time spent up to now is      534.9 secs

     total energy              =   -7398.03483039 Ry
     estimated scf accuracy    <       0.02514782 Ry

     total magnetization       =    80.03 Bohr mag/cell
     absolute magnetization    =    81.49 Bohr mag/cell

     iteration # 41     ecut=    50.00 Ry     beta= 0.10
     Davidson diagonalization with overlap
     ethr =  2.30E-06,  avg # of iterations =  1.5

     negative rho (up, down):  2.263E-05 2.728E-05
 
     Adding external electric field

     Computed dipole along edir(3) : 
        Dipole               -0.5750 Ry au,         -1.4614 Debye
        Dipole field         -0.0004 Ry au, 
 
        Potential amp.        0.0386 Ry
        Total length         54.2615 bohr
 
 
     Adding external electric field

     Computed dipole along edir(3) : 
        Dipole               -0.5750 Ry au,         -1.4614 Debye
        Dipole field         -0.0004 Ry au, 
 
        Potential amp.        0.0386 Ry
        Total length         54.2615 bohr
 

     total cpu time spent up to now is      545.4 secs

     total energy              =   -7398.03526218 Ry
     estimated scf accuracy    <       0.02611267 Ry

     total magnetization       =    80.04 Bohr mag/cell
     absolute magnetization    =    81.51 Bohr mag/cell

     iteration # 42     ecut=    50.00 Ry     beta= 0.10
     Davidson diagonalization with overlap
     ethr =  2.30E-06,  avg # of iterations =  1.5

     negative rho (up, down):  1.054E-04 9.080E-05
 
     Adding external electric field

     Computed dipole along edir(3) : 
        Dipole               -0.5351 Ry au,         -1.3600 Debye
        Dipole field         -0.0003 Ry au, 
 
        Potential amp.        0.0359 Ry
        Total length         54.2615 bohr
 
 
     Adding external electric field

     Computed dipole along edir(3) : 
        Dipole               -0.5351 Ry au,         -1.3600 Debye
        Dipole field         -0.0003 Ry au, 
 
        Potential amp.        0.0359 Ry
        Total length         54.2615 bohr
 

     total cpu time spent up to now is      555.9 secs

     total energy              =   -7398.03278714 Ry
     estimated scf accuracy    <       0.02805603 Ry

     total magnetization       =    80.01 Bohr mag/cell
     absolute magnetization    =    81.55 Bohr mag/cell

     iteration # 43     ecut=    50.00 Ry     beta= 0.10
     Davidson diagonalization with overlap
     c_bands:  2 eigenvalues not converged
     ethr =  2.30E-06,  avg # of iterations = 10.5

     negative rho (up, down):  5.065E-06 2.754E-06
 
     Adding external electric field

     Computed dipole along edir(3) : 
        Dipole               -0.5493 Ry au,         -1.3963 Debye
        Dipole field         -0.0003 Ry au, 
 
        Potential amp.        0.0369 Ry
        Total length         54.2615 bohr
 
 
     Adding external electric field

     Computed dipole along edir(3) : 
        Dipole               -0.5493 Ry au,         -1.3963 Debye
        Dipole field         -0.0003 Ry au, 
 
        Potential amp.        0.0369 Ry
        Total length         54.2615 bohr
 

     total cpu time spent up to now is      570.4 secs

     total energy              =   -7398.03367017 Ry
     estimated scf accuracy    <       0.02399974 Ry

     total magnetization       =    80.10 Bohr mag/cell
     absolute magnetization    =    81.52 Bohr mag/cell

     iteration # 44     ecut=    50.00 Ry     beta= 0.10
     Davidson diagonalization with overlap
     ethr =  2.23E-06,  avg # of iterations =  1.5

     negative rho (up, down):  1.115E-04 9.976E-05
 
     Adding external electric field

     Computed dipole along edir(3) : 
        Dipole               -0.5136 Ry au,         -1.3053 Debye
        Dipole field         -0.0003 Ry au, 
 
        Potential amp.        0.0345 Ry
        Total length         54.2615 bohr
 
 
     Adding external electric field

     Computed dipole along edir(3) : 
        Dipole               -0.5136 Ry au,         -1.3053 Debye
        Dipole field         -0.0003 Ry au, 
 
        Potential amp.        0.0345 Ry
        Total length         54.2615 bohr
 

     total cpu time spent up to now is      581.1 secs

     total energy              =   -7398.03311104 Ry
     estimated scf accuracy    <       0.02452696 Ry

     total magnetization       =    80.08 Bohr mag/cell
     absolute magnetization    =    81.52 Bohr mag/cell

     iteration # 45     ecut=    50.00 Ry     beta= 0.10
     Davidson diagonalization with overlap
     ethr =  2.23E-06,  avg # of iterations =  1.5

     negative rho (up, down):  1.341E-04 1.289E-04
 
     Adding external electric field

     Computed dipole along edir(3) : 
        Dipole               -0.5238 Ry au,         -1.3315 Debye
        Dipole field         -0.0003 Ry au, 
 
        Potential amp.        0.0352 Ry
        Total length         54.2615 bohr
 
 
     Adding external electric field

     Computed dipole along edir(3) : 
        Dipole               -0.5238 Ry au,         -1.3315 Debye
        Dipole field         -0.0003 Ry au, 
 
        Potential amp.        0.0352 Ry
        Total length         54.2615 bohr
 

     total cpu time spent up to now is      592.0 secs

     total energy              =   -7398.03300841 Ry
     estimated scf accuracy    <       0.02539136 Ry

     total magnetization       =    80.10 Bohr mag/cell
     absolute magnetization    =    81.50 Bohr mag/cell

     iteration # 46     ecut=    50.00 Ry     beta= 0.10
     Davidson diagonalization with overlap
     ethr =  2.23E-06,  avg # of iterations =  1.5

     negative rho (up, down):  1.931E-04 1.927E-04
 
     Adding external electric field

     Computed dipole along edir(3) : 
        Dipole               -0.5367 Ry au,         -1.3641 Debye
        Dipole field         -0.0003 Ry au, 
 
        Potential amp.        0.0360 Ry
        Total length         54.2615 bohr
 
 
     Adding external electric field

     Computed dipole along edir(3) : 
        Dipole               -0.5367 Ry au,         -1.3641 Debye
        Dipole field         -0.0003 Ry au, 
 
        Potential amp.        0.0360 Ry
        Total length         54.2615 bohr
 

     total cpu time spent up to now is      602.9 secs

     total energy              =   -7398.03352823 Ry
     estimated scf accuracy    <       0.02552676 Ry

     total magnetization       =    80.06 Bohr mag/cell
     absolute magnetization    =    81.40 Bohr mag/cell

     iteration # 47     ecut=    50.00 Ry     beta= 0.10
     Davidson diagonalization with overlap
     ethr =  2.23E-06,  avg # of iterations =  1.5

     negative rho (up, down):  3.285E-04 3.186E-04
 
     Adding external electric field

     Computed dipole along edir(3) : 
        Dipole               -0.5370 Ry au,         -1.3650 Debye
        Dipole field         -0.0003 Ry au, 
 
        Potential amp.        0.0360 Ry
        Total length         54.2615 bohr
 
 
     Adding external electric field

     Computed dipole along edir(3) : 
        Dipole               -0.5370 Ry au,         -1.3650 Debye
        Dipole field         -0.0003 Ry au, 
 
        Potential amp.        0.0360 Ry
        Total length         54.2615 bohr
 

     total cpu time spent up to now is      613.5 secs

     total energy              =   -7398.03269286 Ry
     estimated scf accuracy    <       0.02394372 Ry

     total magnetization       =    80.09 Bohr mag/cell
     absolute magnetization    =    81.50 Bohr mag/cell

     iteration # 48     ecut=    50.00 Ry     beta= 0.10
     Davidson diagonalization with overlap
     ethr =  2.22E-06,  avg # of iterations =  1.5

     negative rho (up, down):  6.176E-05 4.795E-05
 
     Adding external electric field

     Computed dipole along edir(3) : 
        Dipole               -0.5310 Ry au,         -1.3497 Debye
        Dipole field         -0.0003 Ry au, 
 
        Potential amp.        0.0356 Ry
        Total length         54.2615 bohr
 
 
     Adding external electric field

     Computed dipole along edir(3) : 
        Dipole               -0.5310 Ry au,         -1.3497 Debye
        Dipole field         -0.0003 Ry au, 
 
        Potential amp.        0.0356 Ry
        Total length         54.2615 bohr
 

     total cpu time spent up to now is      624.2 secs

     total energy              =   -7398.03269279 Ry
     estimated scf accuracy    <       0.02540198 Ry

     total magnetization       =    80.06 Bohr mag/cell
     absolute magnetization    =    81.46 Bohr mag/cell

     iteration # 49     ecut=    50.00 Ry     beta= 0.10
     Davidson diagonalization with overlap
     ethr =  2.22E-06,  avg # of iterations =  1.5

     negative rho (up, down):  4.311E-05 3.118E-05
 
     Adding external electric field

     Computed dipole along edir(3) : 
        Dipole               -0.4803 Ry au,         -1.2208 Debye
        Dipole field         -0.0003 Ry au, 
 
        Potential amp.        0.0322 Ry
        Total length         54.2615 bohr
 
 
     Adding external electric field

     Computed dipole along edir(3) : 
        Dipole               -0.4803 Ry au,         -1.2208 Debye
        Dipole field         -0.0003 Ry au, 
 
        Potential amp.        0.0322 Ry
        Total length         54.2615 bohr
 

     total cpu time spent up to now is      635.1 secs

     total energy              =   -7398.03254364 Ry
     estimated scf accuracy    <       0.02416442 Ry

     total magnetization       =    80.15 Bohr mag/cell
     absolute magnetization    =    81.51 Bohr mag/cell

     iteration # 50     ecut=    50.00 Ry     beta= 0.10
     Davidson diagonalization with overlap
     ethr =  2.22E-06,  avg # of iterations =  1.5

     negative rho (up, down):  6.309E-05 4.696E-05
 
     Adding external electric field

     Computed dipole along edir(3) : 
        Dipole               -0.5622 Ry au,         -1.4291 Debye
        Dipole field         -0.0003 Ry au, 
 
        Potential amp.        0.0377 Ry
        Total length         54.2615 bohr
 
 
     Adding external electric field

     Computed dipole along edir(3) : 
        Dipole               -0.5622 Ry au,         -1.4291 Debye
        Dipole field         -0.0003 Ry au, 
 
        Potential amp.        0.0377 Ry
        Total length         54.2615 bohr
 

     total cpu time spent up to now is      645.7 secs

     total energy              =   -7398.03325868 Ry
     estimated scf accuracy    <       0.02580955 Ry

     total magnetization       =    80.14 Bohr mag/cell
     absolute magnetization    =    81.60 Bohr mag/cell

     iteration # 51     ecut=    50.00 Ry     beta= 0.10
     Davidson diagonalization with overlap
     ethr =  2.22E-06,  avg # of iterations =  1.0

     negative rho (up, down):  5.642E-05 5.583E-05
 
     Adding external electric field

     Computed dipole along edir(3) : 
        Dipole               -0.5177 Ry au,         -1.3160 Debye
        Dipole field         -0.0003 Ry au, 
 
        Potential amp.        0.0347 Ry
        Total length         54.2615 bohr
 
 
     Adding external electric field

     Computed dipole along edir(3) : 
        Dipole               -0.5177 Ry au,         -1.3160 Debye
        Dipole field         -0.0003 Ry au, 
 
        Potential amp.        0.0347 Ry
        Total length         54.2615 bohr
 

     total cpu time spent up to now is      655.9 secs

     total energy              =   -7398.03423666 Ry
     estimated scf accuracy    <       0.02550873 Ry

     total magnetization       =    80.12 Bohr mag/cell
     absolute magnetization    =    81.56 Bohr mag/cell

     iteration # 52     ecut=    50.00 Ry     beta= 0.10
     Davidson diagonalization with overlap
     ethr =  2.22E-06,  avg # of iterations =  1.5

     negative rho (up, down):  8.449E-06 6.814E-06
 
     Adding external electric field

     Computed dipole along edir(3) : 
        Dipole               -0.4758 Ry au,         -1.2093 Debye
        Dipole field         -0.0003 Ry au, 
 
        Potential amp.        0.0319 Ry
        Total length         54.2615 bohr
 
 
     Adding external electric field

     Computed dipole along edir(3) : 
        Dipole               -0.4758 Ry au,         -1.2093 Debye
        Dipole field         -0.0003 Ry au, 
 
        Potential amp.        0.0319 Ry
        Total length         54.2615 bohr
 

     total cpu time spent up to now is      666.5 secs

     total energy              =   -7398.03269699 Ry
     estimated scf accuracy    <       0.02597426 Ry

     total magnetization       =    80.11 Bohr mag/cell
     absolute magnetization    =    81.60 Bohr mag/cell

     iteration # 53     ecut=    50.00 Ry     beta= 0.10
     Davidson diagonalization with overlap
     ethr =  2.22E-06,  avg # of iterations =  1.0

     negative rho (up, down):  9.918E-04 1.109E-03
 
     Adding external electric field

     Computed dipole along edir(3) : 
        Dipole               -0.4750 Ry au,         -1.2073 Debye
        Dipole field         -0.0003 Ry au, 
 
        Potential amp.        0.0319 Ry
        Total length         54.2615 bohr
 
 
     Adding external electric field

     Computed dipole along edir(3) : 
        Dipole               -0.4750 Ry au,         -1.2073 Debye
        Dipole field         -0.0003 Ry au, 
 
        Potential amp.        0.0319 Ry
        Total length         54.2615 bohr
 

     total cpu time spent up to now is      676.6 secs

     total energy              =   -7398.03175563 Ry
     estimated scf accuracy    <       0.02493247 Ry

     total magnetization       =    80.08 Bohr mag/cell
     absolute magnetization    =    81.46 Bohr mag/cell

     iteration # 54     ecut=    50.00 Ry     beta= 0.10
     Davidson diagonalization with overlap
     ethr =  2.22E-06,  avg # of iterations =  2.0

     negative rho (up, down):  7.097E-05 6.289E-05
 
     Adding external electric field

     Computed dipole along edir(3) : 
        Dipole               -0.5169 Ry au,         -1.3139 Debye
        Dipole field         -0.0003 Ry au, 
 
        Potential amp.        0.0347 Ry
        Total length         54.2615 bohr
 
 
     Adding external electric field

     Computed dipole along edir(3) : 
        Dipole               -0.5169 Ry au,         -1.3139 Debye
        Dipole field         -0.0003 Ry au, 
 
        Potential amp.        0.0347 Ry
        Total length         54.2615 bohr
 

     total cpu time spent up to now is      688.4 secs

     total energy              =   -7398.03289088 Ry
     estimated scf accuracy    <       0.02464932 Ry

     total magnetization       =    80.13 Bohr mag/cell
     absolute magnetization    =    81.46 Bohr mag/cell

     iteration # 55     ecut=    50.00 Ry     beta= 0.10
     Davidson diagonalization with overlap
     ethr =  2.22E-06,  avg # of iterations =  2.0

     negative rho (up, down):  2.002E-04 1.918E-04
 
     Adding external electric field

     Computed dipole along edir(3) : 
        Dipole               -0.4477 Ry au,         -1.1380 Debye
        Dipole field         -0.0003 Ry au, 
 
        Potential amp.        0.0300 Ry
        Total length         54.2615 bohr
 
 
     Adding external electric field

     Computed dipole along edir(3) : 
        Dipole               -0.4477 Ry au,         -1.1380 Debye
        Dipole field         -0.0003 Ry au, 
 
        Potential amp.        0.0300 Ry
        Total length         54.2615 bohr
 

     total cpu time spent up to now is      700.4 secs

     total energy              =   -7398.03230393 Ry
     estimated scf accuracy    <       0.02405047 Ry

     total magnetization       =    80.12 Bohr mag/cell
     absolute magnetization    =    81.48 Bohr mag/cell

     iteration # 56     ecut=    50.00 Ry     beta= 0.10
     Davidson diagonalization with overlap
     ethr =  2.22E-06,  avg # of iterations =  1.5

     negative rho (up, down):  1.816E-04 1.708E-04
 
     Adding external electric field

     Computed dipole along edir(3) : 
        Dipole               -0.4582 Ry au,         -1.1646 Debye
        Dipole field         -0.0003 Ry au, 
 
        Potential amp.        0.0308 Ry
        Total length         54.2615 bohr
 
 
     Adding external electric field

     Computed dipole along edir(3) : 
        Dipole               -0.4582 Ry au,         -1.1646 Debye
        Dipole field         -0.0003 Ry au, 
 
        Potential amp.        0.0308 Ry
        Total length         54.2615 bohr
 

     total cpu time spent up to now is      711.2 secs

     total energy              =   -7398.03236124 Ry
     estimated scf accuracy    <       0.02284938 Ry

     total magnetization       =    80.14 Bohr mag/cell
     absolute magnetization    =    81.57 Bohr mag/cell

     iteration # 57     ecut=    50.00 Ry     beta= 0.10
     Davidson diagonalization with overlap
     ethr =  2.12E-06,  avg # of iterations =  1.0

     negative rho (up, down):  9.046E-05 8.547E-05
 
     Adding external electric field

     Computed dipole along edir(3) : 
        Dipole               -0.4898 Ry au,         -1.2450 Debye
        Dipole field         -0.0003 Ry au, 
 
        Potential amp.        0.0329 Ry
        Total length         54.2615 bohr
 
 
     Adding external electric field

     Computed dipole along edir(3) : 
        Dipole               -0.4898 Ry au,         -1.2450 Debye
        Dipole field         -0.0003 Ry au, 
 
        Potential amp.        0.0329 Ry
        Total length         54.2615 bohr
 

     total cpu time spent up to now is      721.2 secs

     total energy              =   -7398.03326608 Ry
     estimated scf accuracy    <       0.02374308 Ry

     total magnetization       =    80.12 Bohr mag/cell
     absolute magnetization    =    81.54 Bohr mag/cell

     iteration # 58     ecut=    50.00 Ry     beta= 0.10
     Davidson diagonalization with overlap
     ethr =  2.12E-06,  avg # of iterations =  1.0

     negative rho (up, down):  7.914E-05 7.542E-05
 
     Adding external electric field

     Computed dipole along edir(3) : 
        Dipole               -0.4584 Ry au,         -1.1652 Debye
[...]
    -5.9484  -5.9312  -5.9178  -5.9085  -5.8808  -5.8522  -5.8152  -5.8091
    -5.7760  -5.7617  -5.7534  -5.7324  -5.7208  -5.6902  -5.6773  -5.6450
    -5.6386  -5.6245  -5.5960  -5.5873  -5.5779  -5.5591  -5.5244  -5.4773
    -5.4592  -5.4221  -5.3942  -5.3865  -5.3570  -5.3430  -5.3120  -5.2768
    -5.2350  -5.2012  -5.1853  -5.1394  -5.0996  -5.0726  -5.0292  -5.0238
    -4.9950  -4.9691  -4.9543  -4.9052  -4.8913  -4.8595  -4.8390  -4.8224
    -4.7884  -4.7511  -4.6935  -4.6908  -4.6565  -4.6172  -4.5684  -4.5588
    -4.4936  -4.4851  -4.4491  -4.4285  -4.4178  -4.3663  -4.3556  -4.3264
    -4.3170  -4.2631  -4.2101  -4.1865  -4.1548  -4.1247  -4.1157  -4.0907
    -4.0426  -4.0029  -3.9886  -3.9646  -3.9491  -3.9135  -3.9021  -3.8746
    -3.8555  -3.8374  -3.8143  -3.7849  -3.7746  -3.7207  -3.7099  -3.7003
    -3.6804  -3.6686  -3.6312  -3.6297  -3.6280  -3.5963  -3.5871  -3.5204
    -3.5113  -3.4917  -3.4855  -3.4759  -3.4673  -3.4530  -3.4252  -3.4217
    -3.4126  -3.3666  -3.3452  -3.3339  -3.3266  -3.3035  -3.2732  -3.2406
    -3.2202  -3.2015  -3.1701  -3.1576  -3.1414  -3.1286  -3.1166  -3.1107
    -3.0864  -3.0686  -3.0453  -3.0233  -2.9936  -2.9750  -2.9577  -2.9317
    -2.8994  -2.8902  -2.8804  -2.8611  -2.8260  -2.8181  -2.7889  -2.7741
    -2.7606  -2.7529  -2.7334  -2.7295  -2.7227  -2.7083  -2.7032  -2.6969
    -2.6701  -2.6536  -2.6316  -2.6107  -2.5996  -2.5980  -2.5707  -2.5469
    -2.5355  -2.5180  -2.5034  -2.4750  -2.4623  -2.4501  -2.4419  -2.4257
    -2.3863  -2.3804  -2.3680  -2.3522  -2.3192  -2.3086  -2.2715  -2.2596
    -2.2552  -2.2182  -2.2082  -2.1828  -2.1711  -2.1637  -2.1164  -2.0987
    -2.0926  -2.0708  -2.0558  -2.0434  -2.0341  -2.0162  -1.9848  -1.9682
    -1.9596  -1.9448  -1.9362  -1.9300  -1.8940  -1.8740  -1.8621  -1.8376
    -1.8185  -1.7996  -1.7669  -1.7553  -1.7290  -1.7250  -1.6959  -1.6814
    -1.6618  -1.6516  -1.6355  -1.6004  -1.5910  -1.5684  -1.5607  -1.5278
    -1.5080  -1.4888  -1.4883  -1.4683  -1.4303  -1.4209  -1.3954  -1.3937
    -1.3697  -1.3520  -1.3100  -1.2841  -1.2667  -1.2374  -1.2216  -1.2136
    -1.1417  -1.1221  -1.0750  -1.0025  -0.9549  -0.9371  -0.8515  -0.8348
    -0.7942  -0.7506  -0.6913  -0.5035  -0.3613  -0.2921  -0.2906  -0.1862
     0.1377   0.1586   0.1889   0.2277   0.2591   0.2669   0.2782   0.2807
     0.3075   0.3102   0.3415   0.3480   0.3516   0.3616   0.3694   0.3815
     0.3845   0.3873   0.3999   0.4134   0.4226   0.4307   0.4325   0.4441
     0.4445   0.4520   0.4633   0.4729   0.4736   0.4794   0.4838   0.4926
     0.5037   0.5151   0.5185   0.5228   0.5300   0.5349   0.5355   0.5522
     0.5636   0.5687   0.5762   0.5782   0.5842   0.5890   0.5936   0.6132
     0.6179   0.6315   0.6329   0.6416   0.6486   0.6515   0.6573   0.6729
     0.6754   0.6798   0.6869   0.6897   0.7032   0.7048   0.7143   0.7248
     0.7285   0.7361   0.7430   0.7565   0.7619   0.7757   0.7767   0.7839
     0.7946   0.7966   0.8071   0.8184   0.8346   0.8438   0.8602   0.8673
     0.8786   0.8866   0.8930   0.8972   0.9087   0.9142   0.9224   0.9236
     0.9356   0.9475   0.9703   0.9725   0.9857   1.0008   1.0297   1.0438
     1.1540   1.1877   1.6248   1.7069   1.7105   1.7158   1.7441   1.7519
     1.7659   1.8473   1.8778   1.9004   1.9267   1.9639   1.9721   1.9822
     1.9994   2.0446   2.0497   2.0574   2.0730   2.0777   2.0979   2.1300
     2.1569   2.1758   2.1949   2.2058   2.2226   2.2348   2.2687   2.2716
     2.2884   2.2900   2.3022   2.3153   2.3227   2.3349   2.3516   2.3619
     2.3644   2.3853   2.4047   2.4086   2.4291   2.4472   2.4566   2.4710
     2.4927   2.5126   2.5209   2.5277   2.5368   2.5657   2.5821   2.6071
     2.6214   2.6294   2.6398   2.6457   2.7092   2.7486   2.7735   2.8250
     2.8446   2.8510   2.8783   2.9003   2.9416   3.2390   3.2828   3.4561
     3.5364   3.8202   3.8871   3.9650   4.0277   4.0515   4.1102   4.5026
     4.6673   4.7894   4.9155   4.9327   4.9726   5.0794   5.4340   6.3323
     6.3823   6.5311   6.6060   6.7448   6.8117   6.8247   6.8838   6.9207
     7.0359   7.0964   7.1566   7.1707   7.3458   7.3524   7.3898   7.4378
     7.5574   7.5816   7.6331   7.6839   7.7309   7.7573   7.8285   7.8714
     7.8958   7.9442   7.9641   8.0119   8.0375   8.0647   8.0872   8.1111
     8.1438   8.1625   8.2090   8.2241   8.2542   8.2853   8.3248   8.3371
     8.3647   8.3864   8.4398   8.4714   8.4869   8.5151   8.5308   8.5379
     8.5502   8.5730   8.5968   8.6089   8.6391   8.6532   8.6849   8.6900
     8.7256   8.7510   8.8075   8.8233   8.8366   8.8740   8.9244

     the Fermi energy is     1.6005 ev

!    total energy              =   -7398.03003108 Ry
     estimated scf accuracy    <       0.00000060 Ry
     smearing contrib. (-TS)   =      -0.01663331 Ry
     internal energy E=F+TS    =   -7398.01339777 Ry

     The total energy is F=E-TS. E is the sum of the following terms:
     one-electron contribution =  -91645.76134944 Ry
     hartree contribution      =   46471.21056076 Ry
     xc contribution           =   -2260.28005757 Ry
     ewald contribution        =   40038.65018913 Ry
     Dispersion Correction     =      -1.83279607 Ry
     electric field correction =       0.00005541 Ry

     total magnetization       =    80.09 Bohr mag/cell
     absolute magnetization    =    81.62 Bohr mag/cell

     convergence has been achieved in 104 iterations

     negative rho (up, down):  9.323E-04 5.509E-04

     Forces acting on atoms (cartesian axes, Ry/au):

     atom    1 type  2   force =    -0.00032316   -0.00075469   -0.00030513
     atom    2 type  1   force =    -0.00010968   -0.00022051   -0.00028380
     atom    3 type  1   force =     0.00068935   -0.00108610   -0.00003540
     atom    4 type  1   force =    -0.00016093   -0.00002568    0.00002217
     atom    5 type  1   force =     0.00018235   -0.00014316   -0.00004166
     atom    6 type  1   force =    -0.00021322    0.00040160    0.00000550
     atom    7 type  1   force =    -0.00038910    0.00075973    0.00007467
     atom    8 type  1   force =    -0.00030874    0.00014816    0.00029795
     atom    9 type  1   force =     0.00025853    0.00031830   -0.00048115
     atom   10 type  1   force =    -0.00012133    0.00018207   -0.00027902
     atom   11 type  1   force =     0.00010563    0.00002234   -0.00029772
     atom   12 type  1   force =    -0.00010493    0.00001198   -0.00039966
     atom   13 type  3   force =    -0.00016612    0.00029325   -0.00033012
     atom   14 type  3   force =    -0.00022901   -0.00003834    0.00005132
     atom   15 type  3   force =    -0.00028535    0.00066376   -0.00014119
     atom   16 type  3   force =     0.00031587    0.00012560    0.00044036
     atom   17 type  4   force =     0.00024534    0.00060622    0.00001198
     atom   18 type  4   force =    -0.00000345   -0.00047457   -0.00029264
     atom   19 type  4   force =     0.00052187    0.00022911    0.00003097
     atom   20 type  4   force =     0.00025573   -0.00005077   -0.00001290
     atom   21 type  4   force =    -0.00021402   -0.00038536    0.00012256
     atom   22 type  4   force =     0.00040060   -0.00010259    0.00006860
     atom   23 type  4   force =     0.00026641    0.00064642    0.00039916
     atom   24 type  4   force =    -0.00028245    0.00028568   -0.00005846
     atom   25 type  4   force =    -0.00005577   -0.00012966   -0.00024093
     atom   26 type  4   force =    -0.00000036    0.00088402    0.00071806
     atom   27 type  4   force =     0.00032003    0.00006510   -0.00026556
     atom   28 type  4   force =    -0.00025215   -0.00008727    0.00000326
     atom   29 type  4   force =     0.00063258   -0.00002018    0.00027862
     atom   30 type  4   force =    -0.00003043    0.00028718    0.00000693
     atom   31 type  4   force =     0.00039288    0.00036890    0.00012470
     atom   32 type  4   force =    -0.00009873    0.00016068    0.00021138
     atom   33 type  3   force =     0.00059615   -0.00008184   -0.00022829
     atom   34 type  3   force =     0.00053319   -0.00006631   -0.00022105
     atom   35 type  3   force =     0.00005963    0.00005175    0.00041707
     atom   36 type  3   force =    -0.00013309    0.00003302   -0.00026157
     atom   37 type  4   force =    -0.00009212    0.00000099   -0.00041302
     atom   38 type  4   force =    -0.00028614    0.00016672   -0.00085635
     atom   39 type  4   force =    -0.00030030   -0.00006456    0.00010922
     atom   40 type  4   force =     0.00010253    0.00021668   -0.00016050
     atom   41 type  4   force =     0.00037667   -0.00008708   -0.00004880
     atom   42 type  4   force =    -0.00007683   -0.00001665    0.00030077
     atom   43 type  4   force =    -0.00046467   -0.00013175    0.00028131
     atom   44 type  4   force =     0.00020483    0.00013643   -0.00045394
     atom   45 type  4   force =     0.00030794    0.00003108    0.00020798
     atom   46 type  4   force =    -0.00005460   -0.00036106   -0.00052476
     atom   47 type  4   force =    -0.00023167   -0.00018911   -0.00008284
     atom   48 type  4   force =    -0.00005159   -0.00026903   -0.00053411
     atom   49 type  4   force =     0.00068482   -0.00007302   -0.00034801
     atom   50 type  4   force =     0.00011168    0.00090454    0.00037629
     atom   51 type  4   force =    -0.00005728    0.00035301    0.00000587
     atom   52 type  4   force =    -0.00012415    0.00013479   -0.00034430
     atom   53 type  2   force =     0.00151211   -0.00326856    0.00577766
     atom   54 type  1   force =     0.00508441   -0.00207314    0.00363479
     atom   55 type  1   force =     0.00847018   -0.00254594    0.00540784
     atom   56 type  1   force =    -0.00190243    0.01012930    0.00598830
     atom   57 type  1   force =     0.00017922    0.02312641    0.01464589
     atom   58 type  1   force =     0.00191168   -0.00328790   -0.00170412
     atom   59 type  1   force =     0.00130562   -0.00863152    0.00040631
     atom   60 type  1   force =    -0.00512292   -0.00180565    0.00455822
     atom   61 type  1   force =    -0.00259097   -0.00165195    0.00357265
     atom   62 type  1   force =    -0.00427394    0.00811677    0.00594303
     atom   63 type  1   force =    -0.01120821    0.02593053    0.01859619
     atom   64 type  1   force =    -0.00175018    0.00099641    0.00137272
     atom   65 type  3   force =     0.04608933   -0.11387015   -0.01074470
     atom   66 type  3   force =     0.00007312   -0.00310211    0.00161601
     atom   67 type  3   force =    -0.03907801    0.12695801    0.01491818
     atom   68 type  3   force =     0.06270704   -0.00176951   -0.00328098
     atom   69 type  4   force =     0.01382432   -0.01829017    0.00379456
     atom   70 type  4   force =    -0.00061963    0.00260919   -0.00052623
     atom   71 type  4   force =    -0.00144342    0.00318996   -0.00589856
     atom   72 type  4   force =     0.00408884    0.00181416   -0.00060273
     atom   73 type  4   force =     0.00095627   -0.01145351    0.00291916
     atom   74 type  4   force =    -0.00034707   -0.00091767   -0.00169436
     atom   75 type  4   force =    -0.00100771    0.01403465    0.00645740
     atom   76 type  4   force =     0.00829834    0.00525576    0.00924853
     atom   77 type  4   force =     0.00712795   -0.00256512    0.00160932
     atom   78 type  4   force =     0.04406680   -0.14260276   -0.00519455
     atom   79 type  4   force =     0.00177620    0.00196908    0.00146115
     atom   80 type  4   force =    -0.00010996    0.00224897   -0.00155497
     atom   81 type  4   force =     0.06759483    0.00076567   -0.00584006
     atom   82 type  4   force =     0.00007244    0.00141017   -0.00083934
     atom   83 type  4   force =    -0.03919127    0.13481137    0.00272374
     atom   84 type  4   force =    -0.00290759   -0.01102787   -0.00406129
     atom   85 type  3   force =     0.04000344   -0.12002691   -0.01838373
     atom   86 type  3   force =    -0.06289074   -0.00278063    0.00868508
     atom   87 type  3   force =    -0.04475842    0.12551515    0.01720261
     atom   88 type  3   force =    -0.00166110    0.00004415    0.00257377
     atom   89 type  4   force =     0.00905141   -0.01537569    0.00407040
     atom   90 type  4   force =    -0.00487204    0.00165223    0.00056036
     atom   91 type  4   force =    -0.00906645    0.00794950   -0.00646075
     atom   92 type  4   force =     0.00004589    0.00016040   -0.00055961
     atom   93 type  4   force =    -0.00175061   -0.00834895    0.00749668
     atom   94 type  4   force =    -0.00466480    0.00151762    0.00097460
     atom   95 type  4   force =    -0.00565242    0.01284290    0.00606495
     atom   96 type  4   force =     0.00411775    0.00520095    0.00963727
     atom   97 type  4   force =    -0.00001065    0.00043394    0.00070271
     atom   98 type  4   force =     0.04030903   -0.14138016   -0.00487375
     atom   99 type  4   force =    -0.06669560    0.00004297    0.00634995
     atom  100 type  4   force =    -0.00175864    0.00342879   -0.00273956
     atom  101 type  4   force =    -0.00022158    0.00097296   -0.00053073
     atom  102 type  4   force =    -0.00608767    0.00450314   -0.00139735
     atom  103 type  4   force =    -0.04025485    0.13334526    0.00434291
     atom  104 type  4   force =    -0.00701715   -0.00991570   -0.00515632
     atom  105 type  2   force =     0.00408017   -0.00647216   -0.01832692
     atom  106 type  1   force =     0.02821100    0.01436158    0.01167201
     atom  107 type  1   force =     0.00870853   -0.00618708   -0.01422542
     atom  108 type  1   force =    -0.02841809    0.02160620    0.01871458
     atom  109 type  1   force =     0.00505300    0.01606813    0.00931647
     atom  110 type  1   force =    -0.00258252   -0.00876434   -0.00692383
     atom  111 type  1   force =    -0.00084206   -0.00942901   -0.01170390
     atom  112 type  1   force =     0.02918460    0.01757899    0.01139079
     atom  113 type  1   force =    -0.00066957   -0.00505671   -0.01405166
     atom  114 type  1   force =    -0.02963292    0.02065776    0.01852031
     atom  115 type  1   force =    -0.00717465    0.01847987    0.01203151
     atom  116 type  1   force =    -0.00552575   -0.00436784   -0.00310507
     atom  117 type  3   force =     0.01426030   -0.17391829   -0.10879529
     atom  118 type  3   force =     0.00515250   -0.00850989   -0.01263088
     atom  119 type  3   force =    -0.04465313    0.12495261   -0.00183029
     atom  120 type  3   force =     0.09508129   -0.04106272   -0.07971492
     atom  121 type  4   force =     0.00616911   -0.01703817    0.03716804
     atom  122 type  4   force =    -0.00342973    0.00363691    0.00453097
     atom  123 type  4   force =    -0.00089773    0.00251180   -0.00282206
     atom  124 type  4   force =     0.00847710    0.00219890    0.02690409
     atom  125 type  4   force =     0.00989808   -0.01687890    0.01606629
     atom  126 type  4   force =    -0.00748353    0.00099190   -0.00309710
     atom  127 type  4   force =     0.00397227    0.00964480    0.00040812
     atom  128 type  4   force =    -0.00062552   -0.00107511    0.03028225
     atom  129 type  4   force =    -0.00771035    0.02544160    0.00122572
     atom  130 type  4   force =     0.04336277   -0.14591845   -0.00192884
     atom  131 type  4   force =    -0.01733253   -0.00042180    0.00288865
     atom  132 type  4   force =     0.00345796    0.00264186    0.00198464
     atom  133 type  4   force =     0.06966984    0.00370662   -0.00191849
     atom  134 type  4   force =     0.00096625    0.00368136    0.00270864
     atom  135 type  4   force =    -0.02748792    0.17213634    0.00611480
     atom  136 type  4   force =     0.01948153   -0.00862821    0.00405407
     atom  137 type  3   force =     0.00910350   -0.16688387   -0.09424572
     atom  138 type  3   force =    -0.06465959   -0.00210828   -0.00491715
     atom  139 type  3   force =    -0.04872021    0.11826344    0.00156970
     atom  140 type  3   force =     0.03145428   -0.04324906   -0.07367995
     atom  141 type  4   force =     0.00469508   -0.01326377    0.03205512
     atom  142 type  4   force =    -0.00539211   -0.00037746    0.00436211
     atom  143 type  4   force =    -0.00823144    0.00803918   -0.00347267
     atom  144 type  4   force =     0.00383173    0.00139653    0.02750365
     atom  145 type  4   force =     0.00692970   -0.01297429    0.03247466
     atom  146 type  4   force =    -0.00872711   -0.00178512   -0.00306890
     atom  147 type  4   force =     0.00031056    0.00985541    0.00261225
     atom  148 type  4   force =    -0.00792472    0.00123958    0.02919869
     atom  149 type  4   force =    -0.01319834    0.02935568    0.00053998
     atom  150 type  4   force =     0.03977672   -0.13827227   -0.00142124
     atom  151 type  4   force =    -0.08606858   -0.00175642    0.00919035
     atom  152 type  4   force =     0.00127838    0.00387944    0.00141239
     atom  153 type  4   force =    -0.00355614    0.00085078    0.00296037
     atom  154 type  4   force =    -0.00587549    0.00603351    0.00129623
     atom  155 type  4   force =    -0.02789868    0.16635194    0.00489689
     atom  156 type  4   force =     0.01046284   -0.00974089   -0.00132760
     atom  157 type  4   force =     0.00273942   -0.00214100    0.00114941
     atom  158 type  5   force =    -0.00314354    0.00280371   -0.00188895

     Total force =     0.671379     Total SCF correction =     0.002940
 
     init_run     :      7.19s CPU      7.81s WALL (       1 calls)
     electrons    :   1203.93s CPU   1262.71s WALL (       1 calls)
     forces       :      3.74s CPU      4.10s WALL (       1 calls)
     force_london :      0.10s CPU      0.10s WALL (       1 calls)

     Called by init_run:
     wfcinit      :      4.13s CPU      4.27s WALL (       1 calls)
     potinit      :      0.64s CPU      0.81s WALL (       1 calls)
     hinit0       :      1.31s CPU      1.42s WALL (       1 calls)

     Called by electrons:
     c_bands      :    935.27s CPU    966.04s WALL (     104 calls)
     sum_band     :    173.24s CPU    188.62s WALL (     104 calls)
     v_of_rho     :     17.78s CPU     18.97s WALL (     105 calls)
     newd         :     52.47s CPU     63.93s WALL (     105 calls)
     mix_rho      :     24.13s CPU     24.27s WALL (     104 calls)
     energy_londo :      0.10s CPU      0.10s WALL (       1 calls)

     Called by c_bands:
     init_us_2    :      2.83s CPU      2.91s WALL (     420 calls)
     init_us_2:cp :      2.83s CPU      2.91s WALL (     420 calls)
     regterg      :    913.02s CPU    943.41s WALL (     208 calls)

     Called by *egterg:
     rdiaghg      :    243.53s CPU    257.93s WALL (     801 calls)
     h_psi        :    361.72s CPU    369.07s WALL (     803 calls)
     s_psi        :     70.71s CPU     70.75s WALL (     803 calls)
     g_psi        :      0.48s CPU      0.49s WALL (     593 calls)

     Called by h_psi:
     h_psi:calbec :     96.32s CPU    102.82s WALL (     803 calls)
     vloc_psi     :    192.47s CPU    193.21s WALL (     803 calls)
     add_vuspsi   :     72.16s CPU     72.25s WALL (     803 calls)

     General routines
     calbec       :    143.43s CPU    153.25s WALL (    1019 calls)
     fft          :     26.00s CPU     27.45s WALL (    1903 calls)
     ffts         :     15.18s CPU     15.22s WALL (   12983 calls)
     fftw         :    222.85s CPU    223.73s WALL (  344906 calls)
     interpolate  :      1.48s CPU      1.58s WALL (     210 calls)
 
     Parallel routines
 
     PWSCF        :  20m16.82s CPU  21m16.87s WALL

 
   This run was terminated on:  22:45:30  19Nov2025            

=------------------------------------------------------------------------------=
   JOB DONE.
=------------------------------------------------------------------------------=
