
     Program PWSCF v.7.2 starts on 20Nov2025 at  1: 3: 9 

     This program is part of the open-source Quantum ESPRESSO suite
     for quantum simulation of materials; please cite
         "P. Giannozzi et al., J. Phys.:Condens. Matter 21 395502 (2009);
         "P. Giannozzi et al., J. Phys.:Condens. Matter 29 465901 (2017);
         "P. Giannozzi et al., J. Chem. Phys. 152 154105 (2020);
          URL http://www.quantum-espresso.org", 
     in publications or presentations arising from this work. More details at
     http://www.quantum-espresso.org/quote

     Parallel version (MPI), running on    64 processors

     MPI processes distributed on     4 nodes
     370469 MiB available memory on the printing compute node when the environment starts
 
     Reading input from PWINPUT_atm157_zp

     Current dimensions of program PWSCF are:
     Max number of different atomic species (ntypx) = 10
     Max number of k-points (npk) =  40000
     Max angular momentum in pseudopotentials (lmaxx) =  4
     Presently no symmetry can be used with electric field

     file Ni.pbe-n-rrkjus_psl.1.0.0.UPF: wavefunction(s)  3D renormalized
     file Mn.pbe-spn-rrkjus_psl.0.3.1.UPF: wavefunction(s)  3D renormalized
     file O.pbe-rrkjus.UPF: wavefunction(s)  2S renormalized
     file H.pbe-rrkjus.UPF: wavefunction(s)  1S renormalized

     gamma-point specific algorithms are used
 
     R & G space division:  proc/nbgrp/npool/nimage =      64
     Subspace diagonalization in iterative solution of the eigenvalue problem:
     one sub-group per band group will be used
     custom distributed-memory algorithm (size of sub-group:  6*  6 procs)

 
     Parallelization info
     --------------------
     sticks:   dense  smooth     PW     G-vecs:    dense   smooth      PW
     Min         208      82     20                59912    15118    1876
     Max         210      84     22                59974    15196    1926
     Sum       13399    5355   1345              3836275   970529  121367
 
     Using Slab Decomposition
 


     bravais-lattice index     =            0
     lattice parameter (alat)  =      17.7004  a.u.
     unit-cell volume          =   20319.7251 (a.u.)^3
     number of atoms/cell      =          158
     number of atomic types    =            5
     number of electrons       =      1078.00
     number of Kohn-Sham states=          647
     kinetic-energy cutoff     =      50.0000  Ry
     charge density cutoff     =     500.0000  Ry
     scf convergence threshold =      1.0E-06
     mixing beta               =       0.5000
     number of iterations used =            8  local-TF  mixing
     Exchange-correlation=  SLA  PW   PBE  PBE
                           (   1   4   3   4   0   0   0)

     celldm(1)=  17.700384  celldm(2)=   0.000000  celldm(3)=   0.000000
     celldm(4)=   0.000000  celldm(5)=   0.000000  celldm(6)=   0.000000

     crystal axes: (cart. coord. in units of alat)
               a(1) = (   1.000000   0.000000   0.000000 )  
               a(2) = (   0.000000   1.075730   0.000000 )  
               a(3) = (   0.000000   0.000000   3.406172 )  

     reciprocal axes: (cart. coord. in units 2 pi/alat)
               b(1) = (  1.000000  0.000000  0.000000 )  
               b(2) = (  0.000000  0.929602  0.000000 )  
               b(3) = (  0.000000  0.000000  0.293585 )  


     PseudoPot. # 1 for Ni read from file:
     ~/PSEUDO/Ni.pbe-n-rrkjus_psl.1.0.0.UPF
     MD5 check sum: Not computed, couldn't open file
     Pseudo is Ultrasoft + core correction, Zval = 10.0
     Generated using "atomic" code by A. Dal Corso  v.5.1.2
     Using radial grid of 1195 points,  6 beta functions with: 
                l(1) =   0
                l(2) =   0
                l(3) =   1
                l(4) =   1
                l(5) =   2
                l(6) =   2
     Q(r) pseudized with 0 coefficients 


     PseudoPot. # 2 for Mn read from file:
     ~/PSEUDO/Mn.pbe-spn-rrkjus_psl.0.3.1.UPF
     MD5 check sum: Not computed, couldn't open file
     Pseudo is Ultrasoft + core correction, Zval = 15.0
     Generated using &quot;atomic&quot; code by A. Dal Corso  v.6.2.2
     Using radial grid of 1187 points,  6 beta functions with: 
                l(1) =   0
                l(2) =   0
                l(3) =   1
                l(4) =   1
                l(5) =   2
                l(6) =   2
     Q(r) pseudized with 0 coefficients 


     PseudoPot. # 3 for P  read from file:
     ~/PSEUDO/P.pbe-n-rrkjus_psl.1.0.0.UPF
     MD5 check sum: Not computed, couldn't open file
     Pseudo is Ultrasoft + core correction, Zval =  5.0
     Generated using "atomic" code by A. Dal Corso  v.5.1
     Using radial grid of 1147 points,  6 beta functions with: 
                l(1) =   0
                l(2) =   0
                l(3) =   1
                l(4) =   1
                l(5) =   2
                l(6) =   2
     Q(r) pseudized with 0 coefficients 


     PseudoPot. # 4 for O  read from file:
     ~/PSEUDO/O.pbe-rrkjus.UPF
     MD5 check sum: Not computed, couldn't open file
     Pseudo is Ultrasoft, Zval =  6.0
     Generated by new atomic code, or converted to UPF format
     Using radial grid of 1269 points,  4 beta functions with: 
                l(1) =   0
                l(2) =   0
                l(3) =   1
                l(4) =   1
     Q(r) pseudized with 0 coefficients 


     PseudoPot. # 5 for H  read from file:
     ~/PSEUDO/H.pbe-rrkjus.UPF
     MD5 check sum: Not computed, couldn't open file
     Pseudo is Ultrasoft, Zval =  1.0
     Generated by new atomic code, or converted to UPF format
     Using radial grid of 1061 points,  2 beta functions with: 
                l(1) =   0
                l(2) =   0
     Q(r) pseudized with 0 coefficients 


     atomic species   valence    mass     pseudopotential
     Ni               10.00    58.69300     Ni( 1.00)
     Mn               15.00    54.93800     Mn( 1.00)
     P                 5.00    30.97300     P ( 1.00)
     O                 6.00    15.99900     O ( 1.00)
     H                 1.00     1.00790     H ( 1.00)

     Starting magnetic structure 
     atomic species   magnetization
     Ni              1.000
     Mn              1.000
     P               1.000
     O               1.000
     H               0.000

     No symmetry found



   Cartesian axes

     site n.     atom                  positions (alat units)
         1        Mn     tau(   1) = (   0.2487148   0.8375267   1.6951957  )
         2        Ni     tau(   2) = (   0.4985680   0.7741854   1.3708613  )
         3        Ni     tau(   3) = (  -0.0011545   0.3006174   1.6748188  )
         4        Ni     tau(   4) = (   0.2613034   0.2387656   1.3682654  )
         5        Ni     tau(   5) = (   0.9963341   1.0779630   1.5338071  )
         6        Ni     tau(   6) = (   0.2553410   0.5376272   1.5302552  )
         7        Ni     tau(   7) = (   0.7421076   0.8435707   1.7073254  )
         8        Ni     tau(   8) = (   0.9925505   0.7752294   1.3710528  )
         9        Ni     tau(   9) = (   0.5021333   0.2954136   1.6750756  )
        10        Ni     tau(  10) = (   0.7611689   0.2373559   1.3675061  )
        11        Ni     tau(  11) = (   0.5009702   1.0742604   1.5366496  )
        12        Ni     tau(  12) = (   0.7544547   0.5384375   1.5322894  )
        13        P      tau(  13) = (   0.2115511   0.9728651   1.3803029  )
        14        P      tau(  14) = (   0.4665848   0.6401311   1.6901980  )
        15        P      tau(  15) = (   0.2857882   0.1150193   1.6956783  )
        16        P      tau(  16) = (   0.0437806   0.4336934   1.3698950  )
        17        O      tau(  17) = (   0.1341895   0.9017796   1.5160649  )
        18        O      tau(  18) = (   0.3918354   0.7064542   1.5480543  )
        19        O      tau(  19) = (   0.3659047   0.1699051   1.5489901  )
        20        O      tau(  20) = (   0.1220478   0.3634760   1.5065536  )
        21        O      tau(  21) = (   0.1491769   0.8830546   1.2562069  )
        22        O      tau(  22) = (   0.4014483   0.7325987   1.8096174  )
        23        O      tau(  23) = (   0.3477141   0.2121598   1.8095684  )
        24        O      tau(  24) = (   0.1043448   0.3449385   1.2442231  )
        25        O      tau(  25) = (   0.1038610   0.5888479   1.3734716  )
        26        O      tau(  26) = (   0.3384087   1.0313531   1.6992469  )
        27        O      tau(  27) = (   0.3808703   0.4260931   1.3818057  )
        28        O      tau(  28) = (   0.1211112   0.1186251   1.6801879  )
        29        O      tau(  29) = (   0.1290557   0.6512937   1.6784404  )
        30        O      tau(  30) = (   0.4077914   0.4842311   1.6878311  )
        31        O      tau(  31) = (   0.1525182   0.0517135   1.3798448  )
        32        O      tau(  32) = (   0.3752655   0.9631458   1.3897289  )
        33        P      tau(  33) = (   0.7115935   0.9699435   1.3754512  )
        34        P      tau(  34) = (   0.9627941   0.6488001   1.6882550  )
        35        P      tau(  35) = (   0.7877941   0.1135143   1.6933997  )
        36        P      tau(  36) = (   0.5450057   0.4319961   1.3698026  )
        37        O      tau(  37) = (   0.6347424   0.8975550   1.5107968  )
        38        O      tau(  38) = (   0.8874360   0.7086109   1.5448689  )
        39        O      tau(  39) = (   0.8663690   0.1747348   1.5464995  )
        40        O      tau(  40) = (   0.6223636   0.3611942   1.5061123  )
        41        O      tau(  41) = (   0.6513775   0.8826145   1.2479475  )
        42        O      tau(  42) = (   0.9079471   0.7471932   1.8059270  )
        43        O      tau(  43) = (   0.8460393   0.2141480   1.8067812  )
        44        O      tau(  44) = (   0.6057326   0.3434800   1.2439494  )
        45        O      tau(  45) = (   0.6051788   0.5869386   1.3743458  )
        46        O      tau(  46) = (   0.8485507   1.0338148   1.6901252  )
        47        O      tau(  47) = (   0.8800306   0.4271144   1.3821281  )
        48        O      tau(  48) = (   0.6230808   0.1160198   1.6767091  )
        49        O      tau(  49) = (   0.6309458   0.6452848   1.6833570  )
        50        O      tau(  50) = (   0.9073287   0.4911282   1.6902526  )
        51        O      tau(  51) = (   0.6516592   0.0493454   1.3784195  )
        52        O      tau(  52) = (   0.8758524   0.9648084   1.3850114  )
        53        Mn     tau(  53) = (   0.2404744   0.8246335   1.0701417  )
        54        Ni     tau(  54) = (   0.4968126   0.7601755   0.7454373  )
        55        Ni     tau(  55) = (   0.0066150   0.2811828   1.0628866  )
        56        Ni     tau(  56) = (   0.2585722   0.2230943   0.7421070  )
        57        Ni     tau(  57) = (   0.9987350   1.0571496   0.9014992  )
        58        Ni     tau(  58) = (   0.2517397   0.5205596   0.9040596  )
        59        Ni     tau(  59) = (   0.7451645   0.8212628   1.0648168  )
        60        Ni     tau(  60) = (   0.9939181   0.7613889   0.7462324  )
        61        Ni     tau(  61) = (   0.5111533   0.2799173   1.0618053  )
        62        Ni     tau(  62) = (   0.7606326   0.2194352   0.7418547  )
        63        Ni     tau(  63) = (   0.5024065   1.0563218   0.8999416  )
        64        Ni     tau(  64) = (   0.7529977   0.5192985   0.9024691  )
        65        P      tau(  65) = (   0.2092944   0.9606182   0.7524883  )
        66        P      tau(  66) = (   0.4655727   0.6234620   1.0595283  )
        67        P      tau(  67) = (   0.2910699   0.0902448   1.0573821  )
        68        P      tau(  68) = (   0.0396216   0.4163480   0.7471080  )
        69        O      tau(  69) = (   0.1294378   0.8888345   0.8859300  )
        70        O      tau(  70) = (   0.3874505   0.6929859   0.9232915  )
        71        O      tau(  71) = (   0.3702540   0.1589885   0.9209891  )
        72        O      tau(  72) = (   0.1184398   0.3458043   0.8831565  )
        73        O      tau(  73) = (   0.1451572   0.8725966   0.6282341  )
        74        O      tau(  74) = (   0.4048762   0.7120670   1.1852426  )
        75        O      tau(  75) = (   0.3523506   0.1775664   1.1834175  )
        76        O      tau(  76) = (   0.1017610   0.3285569   0.6213347  )
        77        O      tau(  77) = (   0.0975396   0.5724373   0.7511996  )
        78        O      tau(  78) = (   0.3483552   1.0190030   1.0599597  )
        79        O      tau(  79) = (   0.3784305   0.4100203   0.7560991  )
        80        O      tau(  80) = (   0.1268237   0.0943029   1.0477175  )
        81        O      tau(  81) = (   0.1212267   0.6299255   1.0507023  )
        82        O      tau(  82) = (   0.4053315   0.4684472   1.0569297  )
        83        O      tau(  83) = (   0.1536621   0.0322003   0.7496532  )
        84        O      tau(  84) = (   0.3732349   0.9506802   0.7613277  )
        85        P      tau(  85) = (   0.7119823   0.9571059   0.7496908  )
        86        P      tau(  86) = (   0.9615208   0.6238477   1.0606987  )
        87        P      tau(  87) = (   0.7927710   0.0845145   1.0577754  )
        88        P      tau(  88) = (   0.5426404   0.4144760   0.7459181  )
        89        O      tau(  89) = (   0.6326879   0.8866267   0.8856678  )
        90        O      tau(  90) = (   0.8842163   0.6958291   0.9244764  )
        91        O      tau(  91) = (   0.8716178   0.1552836   0.9216415  )
        92        O      tau(  92) = (   0.6212010   0.3433751   0.8818834  )
        93        O      tau(  93) = (   0.6507714   0.8687427   0.6238197  )
        94        O      tau(  94) = (   0.9014054   0.7139543   1.1859242  )
        95        O      tau(  95) = (   0.8548963   0.1722994   1.1834447  )
        96        O      tau(  96) = (   0.6044469   0.3253792   0.6209553  )
        97        O      tau(  97) = (   0.6024424   0.5698225   0.7490903  )
        98        O      tau(  98) = (   0.8498940   1.0129567   1.0594762  )
        99        O      tau(  99) = (   0.8798395   0.4080910   0.7564148  )
       100        O      tau( 100) = (   0.6286921   0.0909721   1.0472573  )
       101        O      tau( 101) = (   0.6294973   0.6302838   1.0497366  )
       102        O      tau( 102) = (   0.9024339   0.4685397   1.0573501  )
       103        O      tau( 103) = (   0.6547812   0.0286072   0.7473283  )
       104        O      tau( 104) = (   0.8760507   0.9507690   0.7605412  )
       105        Mn     tau( 105) = (   0.2404744   0.8121420   0.4502541  )
       106        Ni     tau( 106) = (   0.4968126   0.7476840   0.1255496  )
       107        Ni     tau( 107) = (   0.0066150   0.2686914   0.4429989  )
       108        Ni     tau( 108) = (   0.2585722   0.2106028   0.1222194  )
       109        Ni     tau( 109) = (   0.9987350   1.0446581   0.2816116  )
       110        Ni     tau( 110) = (   0.2517397   0.5080681   0.2841720  )
       111        Ni     tau( 111) = (   0.7451645   0.8087713   0.4449291  )
       112        Ni     tau( 112) = (   0.9939181   0.7488974   0.1263448  )
       113        Ni     tau( 113) = (   0.5111533   0.2674258   0.4419177  )
       114        Ni     tau( 114) = (   0.7606326   0.2069438   0.1219670  )
       115        Ni     tau( 115) = (   0.5024065   1.0438304   0.2800540  )
       116        Ni     tau( 116) = (   0.7529977   0.5068070   0.2825815  )
       117        P      tau( 117) = (   0.2092944   0.9481267   0.1326007  )
       118        P      tau( 118) = (   0.4655727   0.6109705   0.4396407  )
       119        P      tau( 119) = (   0.2910699   0.0777534   0.4374945  )
       120        P      tau( 120) = (   0.0396216   0.4038566   0.1272204  )
       121        O      tau( 121) = (   0.1294378   0.8763430   0.2660424  )
       122        O      tau( 122) = (   0.3874505   0.6804944   0.3034039  )
       123        O      tau( 123) = (   0.3702540   0.1464970   0.3011014  )
       124        O      tau( 124) = (   0.1184398   0.3333129   0.2632689  )
       125        O      tau( 125) = (   0.1451572   0.8601051   0.0083464  )
       126        O      tau( 126) = (   0.4048762   0.6995756   0.5653550  )
       127        O      tau( 127) = (   0.3523506   0.1650749   0.5635298  )
       128        O      tau( 128) = (   0.1017610   0.3160655   0.0014470  )
       129        O      tau( 129) = (   0.0975396   0.5599458   0.1313120  )
       130        O      tau( 130) = (   0.3483552   1.0065115   0.4400720  )
       131        O      tau( 131) = (   0.3784305   0.3975288   0.1362114  )
       132        O      tau( 132) = (   0.1268237   0.0818115   0.4278298  )
       133        O      tau( 133) = (   0.1212267   0.6174340   0.4308146  )
       134        O      tau( 134) = (   0.4053315   0.4559557   0.4370420  )
       135        O      tau( 135) = (   0.1536621   0.0197088   0.1297656  )
       136        O      tau( 136) = (   0.3732349   0.9381887   0.1414400  )
       137        P      tau( 137) = (   0.7119823   0.9446144   0.1298032  )
       138        P      tau( 138) = (   0.9615208   0.6113562   0.4408111  )
       139        P      tau( 139) = (   0.7927710   0.0720230   0.4378878  )
       140        P      tau( 140) = (   0.5426404   0.4019845   0.1260304  )
       141        O      tau( 141) = (   0.6326879   0.8741353   0.2657802  )
       142        O      tau( 142) = (   0.8842163   0.6833376   0.3045887  )
       143        O      tau( 143) = (   0.8716178   0.1427921   0.3017538  )
       144        O      tau( 144) = (   0.6212010   0.3308836   0.2619957  )
       145        O      tau( 145) = (   0.6507714   0.8562512   0.0039320  )
       146        O      tau( 146) = (   0.9014054   0.7014628   0.5660366  )
       147        O      tau( 147) = (   0.8548963   0.1598079   0.5635571  )
       148        O      tau( 148) = (   0.6044469   0.3128877   0.0010676  )
       149        O      tau( 149) = (   0.6024424   0.5573310   0.1292027  )
       150        O      tau( 150) = (   0.8498940   1.0004653   0.4395886  )
       151        O      tau( 151) = (   0.8798395   0.3955995   0.1365272  )
       152        O      tau( 152) = (   0.6286921   0.0784807   0.4273696  )
       153        O      tau( 153) = (   0.6294973   0.6177923   0.4298489  )
       154        O      tau( 154) = (   0.9024339   0.4560482   0.4374624  )
       155        O      tau( 155) = (   0.6547812   0.0161158   0.1274406  )
       156        O      tau( 156) = (   0.8760507   0.9382775   0.1406535  )
       157        O      tau( 157) = (   0.6290941   0.9242713   1.8447046  )
       158        H      tau( 158) = (   0.5523937   0.8599107   1.8761737  )

     -------------------------------------------------
     Parameters for Dispersion (Grimme-D2) Correction:
     -------------------------------------------------
       atom      VdW radius       C_6     

        Ni         2.952        374.666
        Mn         2.952        374.666
        P          3.222        271.980
        O          2.536         24.284
        H          1.892          4.857

     number of k points=     1  Gaussian smearing, width (Ry)=  0.0100
                       cart. coord. in units 2pi/alat
        k(    1) = (   0.0000000   0.0000000   0.0000000), wk =   1.0000000

     Dense  grid:  1918138 G-vectors     FFT dimensions: ( 125, 135, 432)

     Smooth grid:   485265 G-vectors     FFT dimensions: (  80,  90, 288)

     Estimated max dynamical RAM per process >     320.12 MB

     Estimated total dynamical RAM >      20.01 GB
     Generating pointlists ...
     new r_m :   0.0806 (alat units)  1.4263 (a.u.) for type    1
     new r_m :   0.0869 (alat units)  1.5388 (a.u.) for type    2
     new r_m :   0.0650 (alat units)  1.1499 (a.u.) for type    3
     new r_m :   0.0433 (alat units)  0.7663 (a.u.) for type    4
     new r_m :   0.0433 (alat units)  0.7663 (a.u.) for type    5

     Initial potential from superposition of free atoms

     starting charge    1077.8900, renormalised to    1078.0000

     negative rho (up, down):  1.227E-03 4.512E-04
 
     Adding external electric field

     Computed dipole along edir(3) : 
        Dipole                1.6378 Ry au,          4.1630 Debye
        Dipole field          0.0010 Ry au, 
 
        Potential amp.       -0.1099 Ry
        Total length         54.2615 bohr
 
 
     Adding external electric field

     Computed dipole along edir(3) : 
        Dipole                1.6378 Ry au,          4.1630 Debye
        Dipole field          0.0010 Ry au, 
 
        Potential amp.       -0.1099 Ry
        Total length         54.2615 bohr
 
     Starting wfcs are  812 randomized atomic wfcs

     total cpu time spent up to now is       10.5 secs

     Self-consistent Calculation

     iteration #  1     ecut=    50.00 Ry     beta= 0.50
     Davidson diagonalization with overlap
     ethr =  1.00E-02,  avg # of iterations =  6.0

     negative rho (up, down):  2.457E+00 1.709E-05
 
     Adding external electric field

     Computed dipole along edir(3) : 
        Dipole              -21.6151 Ry au,        -54.9401 Debye
        Dipole field         -0.0134 Ry au, 
 
        Potential amp.        1.4507 Ry
        Total length         54.2615 bohr
 
 
     Adding external electric field

     Computed dipole along edir(3) : 
        Dipole              -21.6151 Ry au,        -54.9401 Debye
        Dipole field         -0.0134 Ry au, 
 
        Potential amp.        1.4507 Ry
        Total length         54.2615 bohr
 

     total cpu time spent up to now is       37.6 secs

     total energy              =   -7213.05079492 Ry
     estimated scf accuracy    <     731.44058412 Ry

     total magnetization       =   216.00 Bohr mag/cell
     absolute magnetization    =   298.16 Bohr mag/cell

     iteration #  2     ecut=    50.00 Ry     beta= 0.50
     Davidson diagonalization with overlap
     ethr =  1.00E-02,  avg # of iterations =  8.0

     negative rho (up, down):  2.242E+00 3.127E-05
 
     Adding external electric field

     Computed dipole along edir(3) : 
        Dipole               -0.8556 Ry au,         -2.1746 Debye
        Dipole field         -0.0005 Ry au, 
 
        Potential amp.        0.0574 Ry
        Total length         54.2615 bohr
 
 
     Adding external electric field

     Computed dipole along edir(3) : 
        Dipole               -0.8556 Ry au,         -2.1746 Debye
        Dipole field         -0.0005 Ry au, 
 
        Potential amp.        0.0574 Ry
        Total length         54.2615 bohr
 

     total cpu time spent up to now is       66.0 secs

     total energy              =   -7310.60555008 Ry
     estimated scf accuracy    <    6056.08859163 Ry

     total magnetization       =   129.13 Bohr mag/cell
     absolute magnetization    =   169.90 Bohr mag/cell

     iteration #  3     ecut=    50.00 Ry     beta= 0.50
     Davidson diagonalization with overlap
     ethr =  1.00E-02,  avg # of iterations =  3.5

     negative rho (up, down):  1.571E+00 2.070E-04
 
     Adding external electric field

     Computed dipole along edir(3) : 
        Dipole               -2.6147 Ry au,         -6.6459 Debye
        Dipole field         -0.0016 Ry au, 
 
        Potential amp.        0.1755 Ry
        Total length         54.2615 bohr
 
 
     Adding external electric field

     Computed dipole along edir(3) : 
        Dipole               -2.6147 Ry au,         -6.6459 Debye
        Dipole field         -0.0016 Ry au, 
 
        Potential amp.        0.1755 Ry
        Total length         54.2615 bohr
 

     total cpu time spent up to now is       82.7 secs

     total energy              =   -7363.72484879 Ry
     estimated scf accuracy    <     695.51830032 Ry

     total magnetization       =   119.90 Bohr mag/cell
     absolute magnetization    =   164.89 Bohr mag/cell

     iteration #  4     ecut=    50.00 Ry     beta= 0.50
     Davidson diagonalization with overlap
     ethr =  1.00E-02,  avg # of iterations =  2.0

     negative rho (up, down):  1.313E+00 2.716E-04
 
     Adding external electric field

     Computed dipole along edir(3) : 
        Dipole               -2.8313 Ry au,         -7.1964 Debye
        Dipole field         -0.0018 Ry au, 
 
        Potential amp.        0.1900 Ry
        Total length         54.2615 bohr
 
 
     Adding external electric field

     Computed dipole along edir(3) : 
        Dipole               -2.8313 Ry au,         -7.1964 Debye
        Dipole field         -0.0018 Ry au, 
 
        Potential amp.        0.1900 Ry
        Total length         54.2615 bohr
 

     total cpu time spent up to now is       97.5 secs

     total energy              =   -7376.92843642 Ry
     estimated scf accuracy    <     189.84764950 Ry

     total magnetization       =    84.81 Bohr mag/cell
     absolute magnetization    =   133.16 Bohr mag/cell

     iteration #  5     ecut=    50.00 Ry     beta= 0.50
     Davidson diagonalization with overlap
     ethr =  1.00E-02,  avg # of iterations =  1.0

     negative rho (up, down):  5.121E-01 3.401E-05
 
     Adding external electric field

     Computed dipole along edir(3) : 
        Dipole               -3.1626 Ry au,         -8.0386 Debye
        Dipole field         -0.0020 Ry au, 
 
        Potential amp.        0.2123 Ry
        Total length         54.2615 bohr
 
 
     Adding external electric field

     Computed dipole along edir(3) : 
        Dipole               -3.1626 Ry au,         -8.0386 Debye
        Dipole field         -0.0020 Ry au, 
 
        Potential amp.        0.2123 Ry
        Total length         54.2615 bohr
 

     total cpu time spent up to now is      110.1 secs

     total energy              =   -7390.76696309 Ry
     estimated scf accuracy    <      37.94474921 Ry

     total magnetization       =    82.47 Bohr mag/cell
     absolute magnetization    =   123.84 Bohr mag/cell

     iteration #  6     ecut=    50.00 Ry     beta= 0.50
     Davidson diagonalization with overlap
     ethr =  3.52E-03,  avg # of iterations =  2.0

     negative rho (up, down):  1.048E-01 1.454E-05
 
     Adding external electric field

     Computed dipole along edir(3) : 
        Dipole               -3.3569 Ry au,         -8.5323 Debye
        Dipole field         -0.0021 Ry au, 
 
        Potential amp.        0.2253 Ry
        Total length         54.2615 bohr
 
 
     Adding external electric field

     Computed dipole along edir(3) : 
        Dipole               -3.3569 Ry au,         -8.5323 Debye
        Dipole field         -0.0021 Ry au, 
 
        Potential amp.        0.2253 Ry
        Total length         54.2615 bohr
 

     total cpu time spent up to now is      125.0 secs

     total energy              =   -7394.86429573 Ry
     estimated scf accuracy    <      19.63101262 Ry

     total magnetization       =    81.97 Bohr mag/cell
     absolute magnetization    =   109.14 Bohr mag/cell

     iteration #  7     ecut=    50.00 Ry     beta= 0.50
     Davidson diagonalization with overlap
     ethr =  1.82E-03,  avg # of iterations =  3.0

     negative rho (up, down):  1.233E-04 4.154E-03
 
     Adding external electric field

     Computed dipole along edir(3) : 
        Dipole               -3.6396 Ry au,         -9.2511 Debye
        Dipole field         -0.0023 Ry au, 
 
        Potential amp.        0.2443 Ry
        Total length         54.2615 bohr
 
 
     Adding external electric field

     Computed dipole along edir(3) : 
        Dipole               -3.6396 Ry au,         -9.2511 Debye
        Dipole field         -0.0023 Ry au, 
 
        Potential amp.        0.2443 Ry
        Total length         54.2615 bohr
 

     total cpu time spent up to now is      141.1 secs

     total energy              =   -7397.21779971 Ry
     estimated scf accuracy    <      21.05744055 Ry

     total magnetization       =    79.84 Bohr mag/cell
     absolute magnetization    =    96.06 Bohr mag/cell

     iteration #  8     ecut=    50.00 Ry     beta= 0.50
     Davidson diagonalization with overlap
     ethr =  1.82E-03,  avg # of iterations =  2.0

     negative rho (up, down):  1.387E-04 4.262E-03
 
     Adding external electric field

     Computed dipole along edir(3) : 
        Dipole               -3.6402 Ry au,         -9.2524 Debye
        Dipole field         -0.0023 Ry au, 
 
        Potential amp.        0.2443 Ry
        Total length         54.2615 bohr
 
 
     Adding external electric field

     Computed dipole along edir(3) : 
        Dipole               -3.6402 Ry au,         -9.2524 Debye
        Dipole field         -0.0023 Ry au, 
 
        Potential amp.        0.2443 Ry
        Total length         54.2615 bohr
 

     total cpu time spent up to now is      155.7 secs

     total energy              =   -7397.98675599 Ry
     estimated scf accuracy    <       9.10425657 Ry

     total magnetization       =    75.61 Bohr mag/cell
     absolute magnetization    =    84.61 Bohr mag/cell

     iteration #  9     ecut=    50.00 Ry     beta= 0.50
     Davidson diagonalization with overlap
     ethr =  8.45E-04,  avg # of iterations =  7.5

     negative rho (up, down):  1.209E-04 2.638E-03
 
     Adding external electric field

     Computed dipole along edir(3) : 
        Dipole               -3.6668 Ry au,         -9.3200 Debye
        Dipole field         -0.0023 Ry au, 
 
        Potential amp.        0.2461 Ry
        Total length         54.2615 bohr
 
 
     Adding external electric field

     Computed dipole along edir(3) : 
        Dipole               -3.6668 Ry au,         -9.3200 Debye
        Dipole field         -0.0023 Ry au, 
 
        Potential amp.        0.2461 Ry
        Total length         54.2615 bohr
 

     total cpu time spent up to now is      177.6 secs

     total energy              =   -7397.97559376 Ry
     estimated scf accuracy    <       3.29647417 Ry

     total magnetization       =    78.00 Bohr mag/cell
     absolute magnetization    =    86.07 Bohr mag/cell

     iteration # 10     ecut=    50.00 Ry     beta= 0.50
     Davidson diagonalization with overlap
     ethr =  3.06E-04,  avg # of iterations = 11.0

     negative rho (up, down):  3.874E-04 6.374E-03
 
     Adding external electric field

     Computed dipole along edir(3) : 
        Dipole               -3.5896 Ry au,         -9.1239 Debye
        Dipole field         -0.0022 Ry au, 
 
        Potential amp.        0.2409 Ry
        Total length         54.2615 bohr
 
 
     Adding external electric field

     Computed dipole along edir(3) : 
        Dipole               -3.5896 Ry au,         -9.1239 Debye
        Dipole field         -0.0022 Ry au, 
 
        Potential amp.        0.2409 Ry
        Total length         54.2615 bohr
 

     total cpu time spent up to now is      201.5 secs

     total energy              =   -7398.00697490 Ry
     estimated scf accuracy    <      22.35106357 Ry

     total magnetization       =    78.28 Bohr mag/cell
     absolute magnetization    =    84.76 Bohr mag/cell

     iteration # 11     ecut=    50.00 Ry     beta= 0.50
     Davidson diagonalization with overlap
     ethr =  3.06E-04,  avg # of iterations =  1.0

     negative rho (up, down):  5.656E-06 3.516E-04
 
     Adding external electric field

     Computed dipole along edir(3) : 
        Dipole               -3.4773 Ry au,         -8.8385 Debye
        Dipole field         -0.0022 Ry au, 
 
        Potential amp.        0.2334 Ry
        Total length         54.2615 bohr
 
 
     Adding external electric field

     Computed dipole along edir(3) : 
        Dipole               -3.4773 Ry au,         -8.8385 Debye
        Dipole field         -0.0022 Ry au, 
 
        Potential amp.        0.2334 Ry
        Total length         54.2615 bohr
 

     total cpu time spent up to now is      213.4 secs

     total energy              =   -7398.11777255 Ry
     estimated scf accuracy    <      11.05793531 Ry

     total magnetization       =    77.93 Bohr mag/cell
     absolute magnetization    =    82.69 Bohr mag/cell

     iteration # 12     ecut=    50.00 Ry     beta= 0.50
     Davidson diagonalization with overlap
     ethr =  3.06E-04,  avg # of iterations =  1.5

     negative rho (up, down):  1.129E-06 2.370E-04
 
     Adding external electric field

     Computed dipole along edir(3) : 
        Dipole               -3.4144 Ry au,         -8.6786 Debye
        Dipole field         -0.0021 Ry au, 
 
        Potential amp.        0.2292 Ry
        Total length         54.2615 bohr
 
 
     Adding external electric field

     Computed dipole along edir(3) : 
        Dipole               -3.4144 Ry au,         -8.6786 Debye
        Dipole field         -0.0021 Ry au, 
 
        Potential amp.        0.2292 Ry
        Total length         54.2615 bohr
 

     total cpu time spent up to now is      225.7 secs

     total energy              =   -7398.14066388 Ry
     estimated scf accuracy    <      27.96266759 Ry

     total magnetization       =    78.27 Bohr mag/cell
     absolute magnetization    =    82.31 Bohr mag/cell

     iteration # 13     ecut=    50.00 Ry     beta= 0.50
     Davidson diagonalization with overlap
     ethr =  3.06E-04,  avg # of iterations =  1.0

     negative rho (up, down):  5.992E-09 3.846E-07
 
     Adding external electric field

     Computed dipole along edir(3) : 
        Dipole               -3.0441 Ry au,         -7.7374 Debye
        Dipole field         -0.0019 Ry au, 
 
        Potential amp.        0.2043 Ry
        Total length         54.2615 bohr
 
 
     Adding external electric field

     Computed dipole along edir(3) : 
        Dipole               -3.0441 Ry au,         -7.7374 Debye
        Dipole field         -0.0019 Ry au, 
 
        Potential amp.        0.2043 Ry
        Total length         54.2615 bohr
 

     total cpu time spent up to now is      237.5 secs

     total energy              =   -7398.17324649 Ry
     estimated scf accuracy    <      22.99787649 Ry

     total magnetization       =    77.68 Bohr mag/cell
     absolute magnetization    =    82.02 Bohr mag/cell

     iteration # 14     ecut=    50.00 Ry     beta= 0.50
     Davidson diagonalization with overlap
     ethr =  3.06E-04,  avg # of iterations =  1.0

     negative rho (up, down):  9.683E-08 1.835E-08
 
     Adding external electric field

     Computed dipole along edir(3) : 
        Dipole               -2.6278 Ry au,         -6.6793 Debye
        Dipole field         -0.0016 Ry au, 
 
        Potential amp.        0.1764 Ry
        Total length         54.2615 bohr
 
 
     Adding external electric field

     Computed dipole along edir(3) : 
        Dipole               -2.6278 Ry au,         -6.6793 Debye
        Dipole field         -0.0016 Ry au, 
 
        Potential amp.        0.1764 Ry
        Total length         54.2615 bohr
 

     total cpu time spent up to now is      250.0 secs

     total energy              =   -7398.00621731 Ry
     estimated scf accuracy    <      15.57590958 Ry

     total magnetization       =    77.52 Bohr mag/cell
     absolute magnetization    =    81.21 Bohr mag/cell

     iteration # 15     ecut=    50.00 Ry     beta= 0.50
     Davidson diagonalization with overlap
     ethr =  3.06E-04,  avg # of iterations =  2.0

     negative rho (up, down):  4.820E-08 2.429E-08
 
     Adding external electric field

     Computed dipole along edir(3) : 
        Dipole               -2.1532 Ry au,         -5.4729 Debye
        Dipole field         -0.0013 Ry au, 
 
        Potential amp.        0.1445 Ry
        Total length         54.2615 bohr
 
 
     Adding external electric field

     Computed dipole along edir(3) : 
        Dipole               -2.1532 Ry au,         -5.4729 Debye
        Dipole field         -0.0013 Ry au, 
 
        Potential amp.        0.1445 Ry
        Total length         54.2615 bohr
 

     total cpu time spent up to now is      264.4 secs

     total energy              =   -7398.00397189 Ry
     estimated scf accuracy    <       6.78263215 Ry

     total magnetization       =    79.44 Bohr mag/cell
     absolute magnetization    =    82.13 Bohr mag/cell

     iteration # 16     ecut=    50.00 Ry     beta= 0.50
     Davidson diagonalization with overlap
     ethr =  3.06E-04,  avg # of iterations =  1.0

     negative rho (up, down):  2.180E-08 6.327E-10
 
     Adding external electric field

     Computed dipole along edir(3) : 
        Dipole               -2.0189 Ry au,         -5.1315 Debye
        Dipole field         -0.0012 Ry au, 
 
        Potential amp.        0.1355 Ry
        Total length         54.2615 bohr
 
 
     Adding external electric field

     Computed dipole along edir(3) : 
        Dipole               -2.0189 Ry au,         -5.1315 Debye
        Dipole field         -0.0012 Ry au, 
 
        Potential amp.        0.1355 Ry
        Total length         54.2615 bohr
 

     total cpu time spent up to now is      276.7 secs

     total energy              =   -7398.03477395 Ry
     estimated scf accuracy    <       1.57730078 Ry

     total magnetization       =    79.13 Bohr mag/cell
     absolute magnetization    =    80.91 Bohr mag/cell

     iteration # 17     ecut=    50.00 Ry     beta= 0.50
     Davidson diagonalization with overlap
     ethr =  1.46E-04,  avg # of iterations =  2.0
 
     Adding external electric field

     Computed dipole along edir(3) : 
        Dipole               -1.8359 Ry au,         -4.6665 Debye
        Dipole field         -0.0011 Ry au, 
 
        Potential amp.        0.1232 Ry
        Total length         54.2615 bohr
 
 
     Adding external electric field

     Computed dipole along edir(3) : 
        Dipole               -1.8359 Ry au,         -4.6665 Debye
        Dipole field         -0.0011 Ry au, 
 
        Potential amp.        0.1232 Ry
        Total length         54.2615 bohr
 

     total cpu time spent up to now is      290.3 secs

     total energy              =   -7398.05718704 Ry
     estimated scf accuracy    <       0.73142466 Ry

     total magnetization       =    80.05 Bohr mag/cell
     absolute magnetization    =    81.92 Bohr mag/cell

     iteration # 18     ecut=    50.00 Ry     beta= 0.50
     Davidson diagonalization with overlap
     ethr =  6.79E-05,  avg # of iterations =  2.0
 
     Adding external electric field

     Computed dipole along edir(3) : 
        Dipole               -1.7242 Ry au,         -4.3825 Debye
        Dipole field         -0.0011 Ry au, 
 
        Potential amp.        0.1157 Ry
        Total length         54.2615 bohr
 
 
     Adding external electric field

     Computed dipole along edir(3) : 
        Dipole               -1.7242 Ry au,         -4.3825 Debye
        Dipole field         -0.0011 Ry au, 
 
        Potential amp.        0.1157 Ry
        Total length         54.2615 bohr
 

     total cpu time spent up to now is      304.2 secs

     total energy              =   -7398.06252475 Ry
     estimated scf accuracy    <       0.28456360 Ry

     total magnetization       =    80.75 Bohr mag/cell
     absolute magnetization    =    82.44 Bohr mag/cell

     iteration # 19     ecut=    50.00 Ry     beta= 0.50
     Davidson diagonalization with overlap
     ethr =  2.64E-05,  avg # of iterations = 21.0
 
     Adding external electric field

     Computed dipole along edir(3) : 
        Dipole               -1.6651 Ry au,         -4.2322 Debye
        Dipole field         -0.0010 Ry au, 
 
        Potential amp.        0.1118 Ry
        Total length         54.2615 bohr
 
 
     Adding external electric field

     Computed dipole along edir(3) : 
        Dipole               -1.6651 Ry au,         -4.2322 Debye
        Dipole field         -0.0010 Ry au, 
 
        Potential amp.        0.1118 Ry
        Total length         54.2615 bohr
 

     total cpu time spent up to now is      344.1 secs

     total energy              =   -7398.06174728 Ry
     estimated scf accuracy    <       0.20632214 Ry

     total magnetization       =    80.66 Bohr mag/cell
     absolute magnetization    =    82.25 Bohr mag/cell

     iteration # 20     ecut=    50.00 Ry     beta= 0.50
     Davidson diagonalization with overlap
     ethr =  1.91E-05,  avg # of iterations =  1.0
 
     Adding external electric field

     Computed dipole along edir(3) : 
        Dipole               -1.4653 Ry au,         -3.7244 Debye
        Dipole field         -0.0009 Ry au, 
 
        Potential amp.        0.0983 Ry
        Total length         54.2615 bohr
 
 
     Adding external electric field

     Computed dipole along edir(3) : 
        Dipole               -1.4653 Ry au,         -3.7244 Debye
        Dipole field         -0.0009 Ry au, 
 
        Potential amp.        0.0983 Ry
        Total length         54.2615 bohr
 

     total cpu time spent up to now is      356.2 secs

     total energy              =   -7398.05443104 Ry
     estimated scf accuracy    <       0.19657885 Ry

     total magnetization       =    80.57 Bohr mag/cell
     absolute magnetization    =    82.19 Bohr mag/cell

     iteration # 21     ecut=    50.00 Ry     beta= 0.50
     Davidson diagonalization with overlap
     ethr =  1.82E-05,  avg # of iterations =  1.0
 
     Adding external electric field

     Computed dipole along edir(3) : 
        Dipole               -1.3817 Ry au,         -3.5120 Debye
        Dipole field         -0.0009 Ry au, 
 
        Potential amp.        0.0927 Ry
        Total length         54.2615 bohr
 
 
     Adding external electric field

     Computed dipole along edir(3) : 
        Dipole               -1.3817 Ry au,         -3.5120 Debye
        Dipole field         -0.0009 Ry au, 
 
        Potential amp.        0.0927 Ry
        Total length         54.2615 bohr
 

     total cpu time spent up to now is      368.3 secs

     total energy              =   -7398.05700076 Ry
     estimated scf accuracy    <       0.15548094 Ry

     total magnetization       =    80.64 Bohr mag/cell
     absolute magnetization    =    82.16 Bohr mag/cell

     iteration # 22     ecut=    50.00 Ry     beta= 0.50
     Davidson diagonalization with overlap
     ethr =  1.44E-05,  avg # of iterations =  1.0
 
     Adding external electric field

     Computed dipole along edir(3) : 
        Dipole               -1.3980 Ry au,         -3.5534 Debye
        Dipole field         -0.0009 Ry au, 
 
        Potential amp.        0.0938 Ry
        Total length         54.2615 bohr
 
 
     Adding external electric field

     Computed dipole along edir(3) : 
        Dipole               -1.3980 Ry au,         -3.5534 Debye
        Dipole field         -0.0009 Ry au, 
 
        Potential amp.        0.0938 Ry
        Total length         54.2615 bohr
 

     total cpu time spent up to now is      380.4 secs

     total energy              =   -7398.05714163 Ry
     estimated scf accuracy    <       0.21696131 Ry

     total magnetization       =    80.09 Bohr mag/cell
     absolute magnetization    =    81.66 Bohr mag/cell

     iteration # 23     ecut=    50.00 Ry     beta= 0.50
     Davidson diagonalization with overlap
     ethr =  1.44E-05,  avg # of iterations =  1.0
 
     Adding external electric field

     Computed dipole along edir(3) : 
        Dipole               -1.3946 Ry au,         -3.5448 Debye
        Dipole field         -0.0009 Ry au, 
 
        Potential amp.        0.0936 Ry
        Total length         54.2615 bohr
 
 
     Adding external electric field

     Computed dipole along edir(3) : 
        Dipole               -1.3946 Ry au,         -3.5448 Debye
        Dipole field         -0.0009 Ry au, 
 
        Potential amp.        0.0936 Ry
        Total length         54.2615 bohr
 

     total cpu time spent up to now is      392.3 secs

     total energy              =   -7398.05660678 Ry
     estimated scf accuracy    <       0.15486214 Ry

     total magnetization       =    80.55 Bohr mag/cell
     absolute magnetization    =    82.14 Bohr mag/cell

     iteration # 24     ecut=    50.00 Ry     beta= 0.50
     Davidson diagonalization with overlap
     ethr =  1.44E-05,  avg # of iterations =  1.0
 
     Adding external electric field

     Computed dipole along edir(3) : 
        Dipole               -1.3712 Ry au,         -3.4851 Debye
        Dipole field         -0.0008 Ry au, 
 
        Potential amp.        0.0920 Ry
        Total length         54.2615 bohr
 
 
     Adding external electric field

     Computed dipole along edir(3) : 
        Dipole               -1.3712 Ry au,         -3.4851 Debye
        Dipole field         -0.0008 Ry au, 
 
        Potential amp.        0.0920 Ry
        Total length         54.2615 bohr
 

     total cpu time spent up to now is      404.2 secs

     total energy              =   -7398.05534737 Ry
     estimated scf accuracy    <       0.13418610 Ry

     total magnetization       =    80.60 Bohr mag/cell
     absolute magnetization    =    82.21 Bohr mag/cell

     iteration # 25     ecut=    50.00 Ry     beta= 0.50
     Davidson diagonalization with overlap
     ethr =  1.24E-05,  avg # of iterations =  1.0
 
     Adding external electric field

     Computed dipole along edir(3) : 
        Dipole               -1.3384 Ry au,         -3.4019 Debye
        Dipole field         -0.0008 Ry au, 
 
        Potential amp.        0.0898 Ry
        Total length         54.2615 bohr
 
 
     Adding external electric field

     Computed dipole along edir(3) : 
        Dipole               -1.3384 Ry au,         -3.4019 Debye
        Dipole field         -0.0008 Ry au, 
 
        Potential amp.        0.0898 Ry
        Total length         54.2615 bohr
 

     total cpu time spent up to now is      416.8 secs

     total energy              =   -7398.05432325 Ry
     estimated scf accuracy    <       0.11295550 Ry

     total magnetization       =    80.65 Bohr mag/cell
     absolute magnetization    =    82.25 Bohr mag/cell

     iteration # 26     ecut=    50.00 Ry     beta= 0.50
     Davidson diagonalization with overlap
     ethr =  1.05E-05,  avg # of iterations =  1.0
 
     Adding external electric field

     Computed dipole along edir(3) : 
        Dipole               -1.2596 Ry au,         -3.2016 Debye
        Dipole field         -0.0008 Ry au, 
 
        Potential amp.        0.0845 Ry
        Total length         54.2615 bohr
 
 
     Adding external electric field

     Computed dipole along edir(3) : 
        Dipole               -1.2596 Ry au,         -3.2016 Debye
        Dipole field         -0.0008 Ry au, 
 
        Potential amp.        0.0845 Ry
        Total length         54.2615 bohr
 

     total cpu time spent up to now is      428.9 secs

     total energy              =   -7398.05228485 Ry
     estimated scf accuracy    <       0.11116808 Ry

     total magnetization       =    80.57 Bohr mag/cell
     absolute magnetization    =    82.19 Bohr mag/cell

     iteration # 27     ecut=    50.00 Ry     beta= 0.50
     Davidson diagonalization with overlap
     ethr =  1.03E-05,  avg # of iterations =  1.5
 
     Adding external electric field

     Computed dipole along edir(3) : 
        Dipole               -1.0887 Ry au,         -2.7671 Debye
        Dipole field         -0.0007 Ry au, 
 
        Potential amp.        0.0731 Ry
        Total length         54.2615 bohr
 
 
     Adding external electric field

     Computed dipole along edir(3) : 
        Dipole               -1.0887 Ry au,         -2.7671 Debye
        Dipole field         -0.0007 Ry au, 
 
        Potential amp.        0.0731 Ry
        Total length         54.2615 bohr
 

     total cpu time spent up to now is      441.8 secs

     total energy              =   -7398.04830791 Ry
     estimated scf accuracy    <       0.11036707 Ry

     total magnetization       =    80.52 Bohr mag/cell
     absolute magnetization    =    82.13 Bohr mag/cell

     iteration # 28     ecut=    50.00 Ry     beta= 0.50
     Davidson diagonalization with overlap
     ethr =  1.02E-05,  avg # of iterations =  2.0
 
     Adding external electric field

     Computed dipole along edir(3) : 
        Dipole               -0.9678 Ry au,         -2.4598 Debye
        Dipole field         -0.0006 Ry au, 
 
        Potential amp.        0.0650 Ry
        Total length         54.2615 bohr
 
 
     Adding external electric field

     Computed dipole along edir(3) : 
        Dipole               -0.9678 Ry au,         -2.4598 Debye
        Dipole field         -0.0006 Ry au, 
 
        Potential amp.        0.0650 Ry
        Total length         54.2615 bohr
 

     total cpu time spent up to now is      456.1 secs

     total energy              =   -7398.04655128 Ry
     estimated scf accuracy    <       0.14281975 Ry

     total magnetization       =    80.54 Bohr mag/cell
     absolute magnetization    =    82.15 Bohr mag/cell

     iteration # 29     ecut=    50.00 Ry     beta= 0.50
     Davidson diagonalization with overlap
     ethr =  1.02E-05,  avg # of iterations =  1.5
 
     Adding external electric field

     Computed dipole along edir(3) : 
        Dipole               -0.9820 Ry au,         -2.4960 Debye
        Dipole field         -0.0006 Ry au, 
 
        Potential amp.        0.0659 Ry
        Total length         54.2615 bohr
 
 
     Adding external electric field

     Computed dipole along edir(3) : 
        Dipole               -0.9820 Ry au,         -2.4960 Debye
        Dipole field         -0.0006 Ry au, 
 
        Potential amp.        0.0659 Ry
        Total length         54.2615 bohr
 

     total cpu time spent up to now is      468.8 secs

     total energy              =   -7398.04655118 Ry
     estimated scf accuracy    <       0.16052992 Ry

     total magnetization       =    80.45 Bohr mag/cell
     absolute magnetization    =    82.05 Bohr mag/cell

     iteration # 30     ecut=    50.00 Ry     beta= 0.50
     Davidson diagonalization with overlap
     ethr =  1.02E-05,  avg # of iterations =  2.0
 
     Adding external electric field

     Computed dipole along edir(3) : 
        Dipole               -0.8820 Ry au,         -2.2418 Debye
        Dipole field         -0.0005 Ry au, 
 
        Potential amp.        0.0592 Ry
        Total length         54.2615 bohr
 
 
     Adding external electric field

     Computed dipole along edir(3) : 
        Dipole               -0.8820 Ry au,         -2.2418 Debye
        Dipole field         -0.0005 Ry au, 
 
        Potential amp.        0.0592 Ry
        Total length         54.2615 bohr
 

     total cpu time spent up to now is      482.5 secs

     total energy              =   -7398.04472490 Ry
     estimated scf accuracy    <       0.14484343 Ry

     total magnetization       =    80.42 Bohr mag/cell
     absolute magnetization    =    82.03 Bohr mag/cell

     iteration # 31     ecut=    50.00 Ry     beta= 0.50
     Davidson diagonalization with overlap
     ethr =  1.02E-05,  avg # of iterations =  2.0
 
     Adding external electric field

     Computed dipole along edir(3) : 
        Dipole               -0.8810 Ry au,         -2.2393 Debye
        Dipole field         -0.0005 Ry au, 
 
        Potential amp.        0.0591 Ry
        Total length         54.2615 bohr
 
 
     Adding external electric field

     Computed dipole along edir(3) : 
        Dipole               -0.8810 Ry au,         -2.2393 Debye
        Dipole field         -0.0005 Ry au, 
 
        Potential amp.        0.0591 Ry
        Total length         54.2615 bohr
 

     total cpu time spent up to now is      496.4 secs

     total energy              =   -7398.04538750 Ry
     estimated scf accuracy    <       0.19427696 Ry

     total magnetization       =    80.36 Bohr mag/cell
     absolute magnetization    =    81.97 Bohr mag/cell

     iteration # 32     ecut=    50.00 Ry     beta= 0.50
     Davidson diagonalization with overlap
     ethr =  1.02E-05,  avg # of iterations =  1.0
 
     Adding external electric field

     Computed dipole along edir(3) : 
        Dipole               -1.4508 Ry au,         -3.6877 Debye
        Dipole field         -0.0009 Ry au, 
 
        Potential amp.        0.0974 Ry
        Total length         54.2615 bohr
 
 
     Adding external electric field

     Computed dipole along edir(3) : 
        Dipole               -1.4508 Ry au,         -3.6877 Debye
        Dipole field         -0.0009 Ry au, 
 
        Potential amp.        0.0974 Ry
        Total length         54.2615 bohr
 

     total cpu time spent up to now is      508.5 secs

     total energy              =   -7398.05780052 Ry
     estimated scf accuracy    <       0.19111710 Ry

     total magnetization       =    80.40 Bohr mag/cell
     absolute magnetization    =    82.00 Bohr mag/cell

     iteration # 33     ecut=    50.00 Ry     beta= 0.50
     Davidson diagonalization with overlap
     ethr =  1.02E-05,  avg # of iterations =  2.0
 
     Adding external electric field

     Computed dipole along edir(3) : 
        Dipole               -1.4608 Ry au,         -3.7129 Debye
        Dipole field         -0.0009 Ry au, 
 
        Potential amp.        0.0980 Ry
        Total length         54.2615 bohr
 
 
     Adding external electric field

     Computed dipole along edir(3) : 
        Dipole               -1.4608 Ry au,         -3.7129 Debye
        Dipole field         -0.0009 Ry au, 
 
        Potential amp.        0.0980 Ry
        Total length         54.2615 bohr
 

     total cpu time spent up to now is      521.8 secs

     total energy              =   -7398.05971593 Ry
     estimated scf accuracy    <       0.11436681 Ry

     total magnetization       =    80.58 Bohr mag/cell
     absolute magnetization    =    82.17 Bohr mag/cell

     iteration # 34     ecut=    50.00 Ry     beta= 0.50
     Davidson diagonalization with overlap
     ethr =  1.02E-05,  avg # of iterations =  1.0
 
     Adding external electric field

     Computed dipole along edir(3) : 
        Dipole               -1.0925 Ry au,         -2.7770 Debye
        Dipole field         -0.0007 Ry au, 
 
        Potential amp.        0.0733 Ry
        Total length         54.2615 bohr
 
 
     Adding external electric field

     Computed dipole along edir(3) : 
        Dipole               -1.0925 Ry au,         -2.7770 Debye
        Dipole field         -0.0007 Ry au, 
 
        Potential amp.        0.0733 Ry
        Total length         54.2615 bohr
 

     total cpu time spent up to now is      533.5 secs

     total energy              =   -7398.04570539 Ry
     estimated scf accuracy    <       0.12346896 Ry

     total magnetization       =    80.60 Bohr mag/cell
     absolute magnetization    =    82.18 Bohr mag/cell

     iteration # 35     ecut=    50.00 Ry     beta= 0.50
     Davidson diagonalization with overlap
     ethr =  1.02E-05,  avg # of iterations =  2.0
 
     Adding external electric field

     Computed dipole along edir(3) : 
        Dipole               -0.6895 Ry au,         -1.7525 Debye
        Dipole field         -0.0004 Ry au, 
 
        Potential amp.        0.0463 Ry
        Total length         54.2615 bohr
 
 
     Adding external electric field

     Computed dipole along edir(3) : 
        Dipole               -0.6895 Ry au,         -1.7525 Debye
        Dipole field         -0.0004 Ry au, 
 
        Potential amp.        0.0463 Ry
        Total length         54.2615 bohr
 

     total cpu time spent up to now is      546.9 secs

     total energy              =   -7398.03576795 Ry
     estimated scf accuracy    <       0.08275583 Ry

     total magnetization       =    80.40 Bohr mag/cell
     absolute magnetization    =    82.04 Bohr mag/cell

     iteration # 36     ecut=    50.00 Ry     beta= 0.50
     Davidson diagonalization with overlap
     ethr =  7.68E-06,  avg # of iterations = 19.0

     negative rho (up, down):  1.638E-06 4.316E-06
 
     Adding external electric field

     Computed dipole along edir(3) : 
        Dipole               -0.3612 Ry au,         -0.9181 Debye
        Dipole field         -0.0002 Ry au, 
 
        Potential amp.        0.0242 Ry
        Total length         54.2615 bohr
 
 
     Adding external electric field

     Computed dipole along edir(3) : 
        Dipole               -0.3612 Ry au,         -0.9181 Debye
        Dipole field         -0.0002 Ry au, 
 
        Potential amp.        0.0242 Ry
        Total length         54.2615 bohr
 

     total cpu time spent up to now is      575.9 secs

     total energy              =   -7398.03072744 Ry
     estimated scf accuracy    <       0.09412133 Ry

     total magnetization       =    80.37 Bohr mag/cell
     absolute magnetization    =    82.00 Bohr mag/cell

     iteration # 37     ecut=    50.00 Ry     beta= 0.50
     Davidson diagonalization with overlap
     ethr =  7.68E-06,  avg # of iterations =  3.0

     negative rho (up, down):  1.329E-03 1.403E-03
 
     Adding external electric field

     Computed dipole along edir(3) : 
        Dipole                0.0264 Ry au,          0.0672 Debye
        Dipole field          0.0000 Ry au, 
 
        Potential amp.       -0.0018 Ry
        Total length         54.2615 bohr
 
 
     Adding external electric field

     Computed dipole along edir(3) : 
        Dipole                0.0264 Ry au,          0.0672 Debye
        Dipole field          0.0000 Ry au, 
 
        Potential amp.       -0.0018 Ry
        Total length         54.2615 bohr
 

     total cpu time spent up to now is      590.8 secs

     total energy              =   -7398.02926787 Ry
     estimated scf accuracy    <       0.10080966 Ry

     total magnetization       =    80.26 Bohr mag/cell
     absolute magnetization    =    81.89 Bohr mag/cell

     iteration # 38     ecut=    50.00 Ry     beta= 0.50
     Davidson diagonalization with overlap
     c_bands:  1 eigenvalues not converged
     c_bands:  1 eigenvalues not converged
     ethr =  7.68E-06,  avg # of iterations = 20.0

     negative rho (up, down):  2.875E-03 2.845E-03
 
     Adding external electric field

     Computed dipole along edir(3) : 
        Dipole                0.1155 Ry au,          0.2937 Debye
        Dipole field          0.0001 Ry au, 
 
        Potential amp.       -0.0078 Ry
        Total length         54.2615 bohr
 
 
     Adding external electric field

     Computed dipole along edir(3) : 
        Dipole                0.1155 Ry au,          0.2937 Debye
        Dipole field          0.0001 Ry au, 
 
        Potential amp.       -0.0078 Ry
        Total length         54.2615 bohr
 

     total cpu time spent up to now is      616.3 secs

     total energy              =   -7398.02928660 Ry
     estimated scf accuracy    <       0.07740291 Ry

     total magnetization       =    80.47 Bohr mag/cell
     absolute magnetization    =    82.09 Bohr mag/cell

     iteration # 39     ecut=    50.00 Ry     beta= 0.50
     Davidson diagonalization with overlap
     ethr =  7.18E-06,  avg # of iterations =  1.5

     negative rho (up, down):  6.798E-03 6.496E-03
 
     Adding external electric field

     Computed dipole along edir(3) : 
        Dipole                0.1601 Ry au,          0.4069 Debye
        Dipole field          0.0001 Ry au, 
 
        Potential amp.       -0.0107 Ry
        Total length         54.2615 bohr
 
 
     Adding external electric field

     Computed dipole along edir(3) : 
        Dipole                0.1601 Ry au,          0.4069 Debye
        Dipole field          0.0001 Ry au, 
 
        Potential amp.       -0.0107 Ry
        Total length         54.2615 bohr
 

     total cpu time spent up to now is      628.8 secs

     total energy              =   -7398.02807641 Ry
     estimated scf accuracy    <       0.04735908 Ry

     total magnetization       =    80.30 Bohr mag/cell
     absolute magnetization    =    81.91 Bohr mag/cell

     iteration # 40     ecut=    50.00 Ry     beta= 0.50
     Davidson diagonalization with overlap
     c_bands:  4 eigenvalues not converged
     ethr =  4.39E-06,  avg # of iterations = 11.5

     negative rho (up, down):  1.998E-03 1.907E-03
 
     Adding external electric field

     Computed dipole along edir(3) : 
        Dipole                0.1420 Ry au,          0.3610 Debye
        Dipole field          0.0001 Ry au, 
 
        Potential amp.       -0.0095 Ry
        Total length         54.2615 bohr
 
 
     Adding external electric field

     Computed dipole along edir(3) : 
        Dipole                0.1420 Ry au,          0.3610 Debye
        Dipole field          0.0001 Ry au, 
 
        Potential amp.       -0.0095 Ry
        Total length         54.2615 bohr
 

     total cpu time spent up to now is      648.7 secs

     total energy              =   -7398.02829696 Ry
     estimated scf accuracy    <       0.03270614 Ry

     total magnetization       =    80.22 Bohr mag/cell
     absolute magnetization    =    81.81 Bohr mag/cell

     iteration # 41     ecut=    50.00 Ry     beta= 0.50
     Davidson diagonalization with overlap
     c_bands:  2 eigenvalues not converged
     ethr =  3.03E-06,  avg # of iterations = 11.5

     negative rho (up, down):  9.931E-03 9.739E-03
 
     Adding external electric field

     Computed dipole along edir(3) : 
        Dipole                0.2510 Ry au,          0.6379 Debye
        Dipole field          0.0002 Ry au, 
 
        Potential amp.       -0.0168 Ry
        Total length         54.2615 bohr
 
 
     Adding external electric field

     Computed dipole along edir(3) : 
        Dipole                0.2510 Ry au,          0.6379 Debye
        Dipole field          0.0002 Ry au, 
 
        Potential amp.       -0.0168 Ry
        Total length         54.2615 bohr
 

     total cpu time spent up to now is      669.4 secs

     total energy              =   -7398.02856855 Ry
     estimated scf accuracy    <       0.01961281 Ry

     total magnetization       =    80.30 Bohr mag/cell
     absolute magnetization    =    81.84 Bohr mag/cell

     iteration # 42     ecut=    50.00 Ry     beta= 0.50
     Davidson diagonalization with overlap
     ethr =  1.82E-06,  avg # of iterations =  8.5

     negative rho (up, down):  2.506E-03 2.418E-03
 
     Adding external electric field

     Computed dipole along edir(3) : 
        Dipole                0.2609 Ry au,          0.6633 Debye
        Dipole field          0.0002 Ry au, 
 
        Potential amp.       -0.0175 Ry
        Total length         54.2615 bohr
 
 
     Adding external electric field

     Computed dipole along edir(3) : 
        Dipole                0.2609 Ry au,          0.6633 Debye
        Dipole field          0.0002 Ry au, 
 
        Potential amp.       -0.0175 Ry
        Total length         54.2615 bohr
 

     total cpu time spent up to now is      686.0 secs

     total energy              =   -7398.02817377 Ry
     estimated scf accuracy    <       0.01108012 Ry

     total magnetization       =    80.19 Bohr mag/cell
     absolute magnetization    =    81.74 Bohr mag/cell

     iteration # 43     ecut=    50.00 Ry     beta= 0.50
     Davidson diagonalization with overlap
     ethr =  1.03E-06,  avg # of iterations =  2.0

     negative rho (up, down):  4.191E-03 4.146E-03
 
     Adding external electric field

     Computed dipole along edir(3) : 
        Dipole                0.2486 Ry au,          0.6318 Debye
        Dipole field          0.0002 Ry au, 
 
        Potential amp.       -0.0167 Ry
        Total length         54.2615 bohr
 
 
     Adding external electric field

     Computed dipole along edir(3) : 
        Dipole                0.2486 Ry au,          0.6318 Debye
        Dipole field          0.0002 Ry au, 
 
        Potential amp.       -0.0167 Ry
        Total length         54.2615 bohr
 

     total cpu time spent up to now is      699.3 secs

     total energy              =   -7398.02832606 Ry
     estimated scf accuracy    <       0.00928771 Ry

     total magnetization       =    80.40 Bohr mag/cell
     absolute magnetization    =    81.91 Bohr mag/cell

     iteration # 44     ecut=    50.00 Ry     beta= 0.50
     Davidson diagonalization with overlap
     ethr =  8.62E-07,  avg # of iterations =  1.5

     negative rho (up, down):  5.753E-03 5.671E-03
 
     Adding external electric field

     Computed dipole along edir(3) : 
        Dipole                0.2793 Ry au,          0.7100 Debye
        Dipole field          0.0002 Ry au, 
 
        Potential amp.       -0.0187 Ry
        Total length         54.2615 bohr
 
 
     Adding external electric field

     Computed dipole along edir(3) : 
        Dipole                0.2793 Ry au,          0.7100 Debye
        Dipole field          0.0002 Ry au, 
 
        Potential amp.       -0.0187 Ry
        Total length         54.2615 bohr
 

     total cpu time spent up to now is      711.7 secs

     total energy              =   -7398.02851101 Ry
     estimated scf accuracy    <       0.00326635 Ry

     total magnetization       =    80.31 Bohr mag/cell
     absolute magnetization    =    81.81 Bohr mag/cell

     iteration # 45     ecut=    50.00 Ry     beta= 0.50
     Davidson diagonalization with overlap
     ethr =  3.03E-07,  avg # of iterations =  2.0

     negative rho (up, down):  3.963E-03 3.824E-03
 
     Adding external electric field

     Computed dipole along edir(3) : 
        Dipole                0.2830 Ry au,          0.7193 Debye
        Dipole field          0.0002 Ry au, 
 
        Potential amp.       -0.0190 Ry
        Total length         54.2615 bohr
 
 
     Adding external electric field

     Computed dipole along edir(3) : 
        Dipole                0.2830 Ry au,          0.7193 Debye
        Dipole field          0.0002 Ry au, 
 
        Potential amp.       -0.0190 Ry
        Total length         54.2615 bohr
 

     total cpu time spent up to now is      724.8 secs

     total energy              =   -7398.02841510 Ry
     estimated scf accuracy    <       0.00382374 Ry

     total magnetization       =    80.28 Bohr mag/cell
     absolute magnetization    =    81.79 Bohr mag/cell

     iteration # 46     ecut=    50.00 Ry     beta= 0.50
     Davidson diagonalization with overlap
     ethr =  3.03E-07,  avg # of iterations =  2.0

     negative rho (up, down):  4.045E-03 3.951E-03
 
     Adding external electric field

     Computed dipole along edir(3) : 
        Dipole                0.2977 Ry au,          0.7566 Debye
        Dipole field          0.0002 Ry au, 
 
        Potential amp.       -0.0200 Ry
        Total length         54.2615 bohr
 
 
     Adding external electric field

     Computed dipole along edir(3) : 
        Dipole                0.2977 Ry au,          0.7566 Debye
        Dipole field          0.0002 Ry au, 
 
        Potential amp.       -0.0200 Ry
        Total length         54.2615 bohr
 

     total cpu time spent up to now is      737.9 secs

     total energy              =   -7398.02840457 Ry
     estimated scf accuracy    <       0.00232908 Ry

     total magnetization       =    80.34 Bohr mag/cell
     absolute magnetization    =    81.84 Bohr mag/cell

     iteration # 47     ecut=    50.00 Ry     beta= 0.50
     Davidson diagonalization with overlap
     ethr =  2.16E-07,  avg # of iterations =  2.0

     negative rho (up, down):  2.701E-03 2.504E-03
 
     Adding external electric field

     Computed dipole along edir(3) : 
        Dipole                0.2961 Ry au,          0.7526 Debye
        Dipole field          0.0002 Ry au, 
 
        Potential amp.       -0.0199 Ry
        Total length         54.2615 bohr
 
 
     Adding external electric field

     Computed dipole along edir(3) : 
        Dipole                0.2961 Ry au,          0.7526 Debye
        Dipole field          0.0002 Ry au, 
 
        Potential amp.       -0.0199 Ry
        Total length         54.2615 bohr
 

     total cpu time spent up to now is      750.9 secs

     total energy              =   -7398.02840806 Ry
     estimated scf accuracy    <       0.00148584 Ry

     total magnetization       =    80.33 Bohr mag/cell
     absolute magnetization    =    81.85 Bohr mag/cell

     iteration # 48     ecut=    50.00 Ry     beta= 0.50
     Davidson diagonalization with overlap
     ethr =  1.38E-07,  avg # of iterations =  1.5

     negative rho (up, down):  3.192E-03 3.065E-03
 
     Adding external electric field

     Computed dipole along edir(3) : 
        Dipole                0.2973 Ry au,          0.7557 Debye
        Dipole field          0.0002 Ry au, 
 
        Potential amp.       -0.0200 Ry
        Total length         54.2615 bohr
 
 
     Adding external electric field

     Computed dipole along edir(3) : 
        Dipole                0.2973 Ry au,          0.7557 Debye
        Dipole field          0.0002 Ry au, 
 
        Potential amp.       -0.0200 Ry
        Total length         54.2615 bohr
 

     total cpu time spent up to now is      763.2 secs

     total energy              =   -7398.02840735 Ry
     estimated scf accuracy    <       0.00040275 Ry

     total magnetization       =    80.28 Bohr mag/cell
     absolute magnetization    =    81.80 Bohr mag/cell

     iteration # 49     ecut=    50.00 Ry     beta= 0.50
     Davidson diagonalization with overlap
     ethr =  3.74E-08,  avg # of iterations =  2.0

     negative rho (up, down):  1.743E-03 1.431E-03
 
     Adding external electric field

     Computed dipole along edir(3) : 
        Dipole                0.2862 Ry au,          0.7275 Debye
        Dipole field          0.0002 Ry au, 
 
        Potential amp.       -0.0192 Ry
        Total length         54.2615 bohr
 
 
     Adding external electric field

     Computed dipole along edir(3) : 
        Dipole                0.2862 Ry au,          0.7275 Debye
        Dipole field          0.0002 Ry au, 
 
        Potential amp.       -0.0192 Ry
        Total length         54.2615 bohr
 

     total cpu time spent up to now is      776.4 secs

     total energy              =   -7398.02839631 Ry
     estimated scf accuracy    <       0.00132498 Ry

     total magnetization       =    80.32 Bohr mag/cell
     absolute magnetization    =    81.84 Bohr mag/cell

     iteration # 50     ecut=    50.00 Ry     beta= 0.50
     Davidson diagonalization with overlap
     ethr =  3.74E-08,  avg # of iterations =  2.0

     negative rho (up, down):  1.623E-03 1.300E-03
 
     Adding external electric field

     Computed dipole along edir(3) : 
        Dipole                0.2882 Ry au,          0.7326 Debye
        Dipole field          0.0002 Ry au, 
 
        Potential amp.       -0.0193 Ry
        Total length         54.2615 bohr
 
 
     Adding external electric field

     Computed dipole along edir(3) : 
        Dipole                0.2882 Ry au,          0.7326 Debye
        Dipole field          0.0002 Ry au, 
 
        Potential amp.       -0.0193 Ry
        Total length         54.2615 bohr
 

     total cpu time spent up to now is      789.5 secs

     total energy              =   -7398.02838508 Ry
     estimated scf accuracy    <       0.00081441 Ry

     total magnetization       =    80.31 Bohr mag/cell
     absolute magnetization    =    81.83 Bohr mag/cell

     iteration # 51     ecut=    50.00 Ry     beta= 0.50
     Davidson diagonalization with overlap
     ethr =  3.74E-08,  avg # of iterations =  1.5

     negative rho (up, down):  9.763E-04 6.474E-04
 
     Adding external electric field

     Computed dipole along edir(3) : 
        Dipole                0.2779 Ry au,          0.7063 Debye
        Dipole field          0.0002 Ry au, 
 
        Potential amp.       -0.0186 Ry
        Total length         54.2615 bohr
 
 
     Adding external electric field

     Computed dipole along edir(3) : 
        Dipole                0.2779 Ry au,          0.7063 Debye
        Dipole field          0.0002 Ry au, 
 
        Potential amp.       -0.0186 Ry
        Total length         54.2615 bohr
 

     total cpu time spent up to now is      802.0 secs

     total energy              =   -7398.02839883 Ry
     estimated scf accuracy    <       0.00055676 Ry

     total magnetization       =    80.32 Bohr mag/cell
     absolute magnetization    =    81.85 Bohr mag/cell

     iteration # 52     ecut=    50.00 Ry     beta= 0.50
     Davidson diagonalization with overlap
     ethr =  3.74E-08,  avg # of iterations =  1.5

     negative rho (up, down):  7.285E-04 4.519E-04
 
     Adding external electric field

     Computed dipole along edir(3) : 
        Dipole                0.2726 Ry au,          0.6930 Debye
        Dipole field          0.0002 Ry au, 
 
        Potential amp.       -0.0183 Ry
        Total length         54.2615 bohr
 
 
     Adding external electric field

     Computed dipole along edir(3) : 
        Dipole                0.2726 Ry au,          0.6930 Debye
        Dipole field          0.0002 Ry au, 
 
        Potential amp.       -0.0183 Ry
        Total length         54.2615 bohr
 

     total cpu time spent up to now is      814.7 secs

     total energy              =   -7398.02839013 Ry
     estimated scf accuracy    <       0.00029416 Ry

     total magnetization       =    80.31 Bohr mag/cell
     absolute magnetization    =    81.84 Bohr mag/cell

     iteration # 53     ecut=    50.00 Ry     beta= 0.50
     Davidson diagonalization with overlap
     ethr =  2.73E-08,  avg # of iterations =  1.5

     negative rho (up, down):  7.474E-04 4.850E-04
 
     Adding external electric field

     Computed dipole along edir(3) : 
        Dipole                0.2743 Ry au,          0.6973 Debye
        Dipole field          0.0002 Ry au, 
 
        Potential amp.       -0.0184 Ry
        Total length         54.2615 bohr
 
 
     Adding external electric field

     Computed dipole along edir(3) : 
        Dipole                0.2743 Ry au,          0.6973 Debye
        Dipole field          0.0002 Ry au, 
 
        Potential amp.       -0.0184 Ry
        Total length         54.2615 bohr
 

     total cpu time spent up to now is      826.9 secs

     total energy              =   -7398.02839468 Ry
     estimated scf accuracy    <       0.00016478 Ry

     total magnetization       =    80.30 Bohr mag/cell
     absolute magnetization    =    81.83 Bohr mag/cell

     iteration # 54     ecut=    50.00 Ry     beta= 0.50
     Davidson diagonalization with overlap
     ethr =  1.53E-08,  avg # of iterations =  1.0

     negative rho (up, down):  6.407E-04 3.299E-04
 
     Adding external electric field

     Computed dipole along edir(3) : 
        Dipole                0.2704 Ry au,          0.6872 Debye
        Dipole field          0.0002 Ry au, 
 
        Potential amp.       -0.0181 Ry
        Total length         54.2615 bohr
 
 
     Adding external electric field

     Computed dipole along edir(3) : 
        Dipole                0.2704 Ry au,          0.6872 Debye
        Dipole field          0.0002 Ry au, 
 
        Potential amp.       -0.0181 Ry
        Total length         54.2615 bohr
 

     total cpu time spent up to now is      838.6 secs

     total energy              =   -7398.02839603 Ry
     estimated scf accuracy    <       0.00009181 Ry

     total magnetization       =    80.30 Bohr mag/cell
     absolute magnetization    =    81.83 Bohr mag/cell

     iteration # 55     ecut=    50.00 Ry     beta= 0.50
     Davidson diagonalization with overlap
     ethr =  8.52E-09,  avg # of iterations =  1.5

     negative rho (up, down):  6.442E-04 3.447E-04
 
     Adding external electric field

     Computed dipole along edir(3) : 
        Dipole                0.2727 Ry au,          0.6933 Debye
        Dipole field          0.0002 Ry au, 
 
        Potential amp.       -0.0183 Ry
        Total length         54.2615 bohr
 
 
     Adding external electric field

     Computed dipole along edir(3) : 
        Dipole                0.2727 Ry au,          0.6933 Debye
        Dipole field          0.0002 Ry au, 
 
        Potential amp.       -0.0183 Ry
        Total length         54.2615 bohr
 

     total cpu time spent up to now is      850.6 secs

     total energy              =   -7398.02839581 Ry
     estimated scf accuracy    <       0.00006467 Ry

     total magnetization       =    80.29 Bohr mag/cell
     absolute magnetization    =    81.82 Bohr mag/cell

     iteration # 56     ecut=    50.00 Ry     beta= 0.50
     Davidson diagonalization with overlap
     ethr =  6.00E-09,  avg # of iterations =  1.0

     negative rho (up, down):  6.315E-04 3.064E-04
 
     Adding external electric field

     Computed dipole along edir(3) : 
        Dipole                0.2708 Ry au,          0.6883 Debye
        Dipole field          0.0002 Ry au, 
 
        Potential amp.       -0.0182 Ry
        Total length         54.2615 bohr
 
 
     Adding external electric field

     Computed dipole along edir(3) : 
        Dipole                0.2708 Ry au,          0.6883 Debye
        Dipole field          0.0002 Ry au, 
 
        Potential amp.       -0.0182 Ry
        Total length         54.2615 bohr
 

     total cpu time spent up to now is      861.8 secs

     total energy              =   -7398.02839732 Ry
     estimated scf accuracy    <       0.00002377 Ry

     total magnetization       =    80.29 Bohr mag/cell
     absolute magnetization    =    81.82 Bohr mag/cell

     iteration # 57     ecut=    50.00 Ry     beta= 0.50
     Davidson diagonalization with overlap
     ethr =  2.21E-09,  avg # of iterations =  1.5

     negative rho (up, down):  6.895E-04 3.347E-04
 
     Adding external electric field

     Computed dipole along edir(3) : 
        Dipole                0.2705 Ry au,          0.6875 Debye
        Dipole field          0.0002 Ry au, 
 
        Potential amp.       -0.0182 Ry
        Total length         54.2615 bohr
 
 
     Adding external electric field

     Computed dipole along edir(3) : 
        Dipole                0.2705 Ry au,          0.6875 Debye
        Dipole field          0.0002 Ry au, 
 
        Potential amp.       -0.0182 Ry
        Total length         54.2615 bohr
 

     total cpu time spent up to now is      873.6 secs

     total energy              =   -7398.02839911 Ry
     estimated scf accuracy    <       0.00001231 Ry

     total magnetization       =    80.29 Bohr mag/cell
     absolute magnetization    =    81.82 Bohr mag/cell

     iteration # 58     ecut=    50.00 Ry     beta= 0.50
     Davidson diagonalization with overlap
     ethr =  1.14E-09,  avg # of iterations =  1.5

     negative rho (up, down):  6.866E-04 3.283E-04
 
     Adding external electric field

     Computed dipole along edir(3) : 
        Dipole                0.2689 Ry au,          0.6834 Debye
        Dipole field          0.0002 Ry au, 
 
        Potential amp.       -0.0180 Ry
        Total length         54.2615 bohr
 
 
     Adding external electric field

     Computed dipole along edir(3) : 
        Dipole                0.2689 Ry au,          0.6834 Debye
        Dipole field          0.0002 Ry au, 
 
        Potential amp.       -0.0180 Ry
        Total length         54.2615 bohr
 

     total cpu time spent up to now is      885.9 secs

     total energy              =   -7398.02839936 Ry
     estimated scf accuracy    <       0.00000452 Ry

     total magnetization       =    80.30 Bohr mag/cell
     absolute magnetization    =    81.83 Bohr mag/cell

     iteration # 59     ecut=    50.00 Ry     beta= 0.50
     Davidson diagonalization with overlap
     ethr =  4.19E-10,  avg # of iterations =  1.5

     negative rho (up, down):  7.371E-04 3.712E-04
 
     Adding external electric field

     Computed dipole along edir(3) : 
        Dipole                0.2685 Ry au,          0.6824 Debye
[...]
    -5.9534  -5.9446  -5.9243  -5.9185  -5.9037  -5.8559  -5.8216  -5.8050
    -5.7798  -5.7633  -5.7441  -5.7400  -5.7110  -5.6919  -5.6736  -5.6571
    -5.6463  -5.6137  -5.6083  -5.5959  -5.5936  -5.5732  -5.5197  -5.4864
    -5.4570  -5.4281  -5.4006  -5.3808  -5.3652  -5.3557  -5.3290  -5.2569
    -5.2265  -5.2064  -5.1916  -5.1198  -5.1102  -5.0904  -5.0387  -5.0216
    -5.0120  -4.9598  -4.9260  -4.9053  -4.8830  -4.8577  -4.8460  -4.7962
    -4.7841  -4.7431  -4.7071  -4.6819  -4.6579  -4.6304  -4.5522  -4.5325
    -4.4975  -4.4858  -4.4560  -4.4377  -4.4159  -4.3870  -4.3530  -4.3408
    -4.3128  -4.2777  -4.2208  -4.1843  -4.1405  -4.1247  -4.1101  -4.1016
    -4.0519  -4.0113  -3.9946  -3.9801  -3.9491  -3.9198  -3.9032  -3.8756
    -3.8513  -3.8471  -3.7919  -3.7892  -3.7595  -3.7249  -3.7084  -3.6949
    -3.6804  -3.6561  -3.6425  -3.6335  -3.6241  -3.6054  -3.5713  -3.5299
    -3.5099  -3.5044  -3.4863  -3.4789  -3.4713  -3.4639  -3.4341  -3.4272
    -3.4204  -3.3805  -3.3577  -3.3292  -3.3145  -3.2948  -3.2528  -3.2453
    -3.2317  -3.2027  -3.1666  -3.1662  -3.1535  -3.1331  -3.1249  -3.1125
    -3.0820  -3.0766  -3.0374  -3.0028  -2.9932  -2.9800  -2.9637  -2.9236
    -2.9055  -2.8972  -2.8851  -2.8384  -2.8287  -2.8139  -2.7923  -2.7796
    -2.7633  -2.7569  -2.7454  -2.7352  -2.7250  -2.7230  -2.7120  -2.6848
    -2.6647  -2.6470  -2.6372  -2.6291  -2.6030  -2.5873  -2.5758  -2.5516
    -2.5400  -2.5093  -2.5073  -2.4877  -2.4670  -2.4519  -2.4395  -2.4301
    -2.3964  -2.3844  -2.3726  -2.3554  -2.3279  -2.2954  -2.2845  -2.2581
    -2.2495  -2.2320  -2.2033  -2.1848  -2.1769  -2.1489  -2.1195  -2.1123
    -2.0991  -2.0735  -2.0600  -2.0463  -2.0341  -2.0170  -1.9953  -1.9664
    -1.9556  -1.9394  -1.9379  -1.9290  -1.8949  -1.8865  -1.8707  -1.8522
    -1.8276  -1.7841  -1.7788  -1.7437  -1.7350  -1.7059  -1.6903  -1.6804
    -1.6721  -1.6522  -1.6480  -1.6032  -1.5971  -1.5729  -1.5292  -1.5190
    -1.5053  -1.4972  -1.4688  -1.4451  -1.4381  -1.4200  -1.4011  -1.3894
    -1.3688  -1.3483  -1.3259  -1.2854  -1.2730  -1.2502  -1.2258  -1.2021
    -1.1574  -1.1205  -1.0746  -0.9734  -0.9559  -0.9092  -0.8703  -0.8286
    -0.8129  -0.7429  -0.6473  -0.5222  -0.3799  -0.3096  -0.3052  -0.2049
     0.1282   0.1517   0.1811   0.2189   0.2489   0.2694   0.2711   0.2947
     0.2985   0.3144   0.3350   0.3376   0.3443   0.3654   0.3682   0.3693
     0.3814   0.3843   0.3961   0.4023   0.4152   0.4238   0.4272   0.4370
     0.4420   0.4485   0.4550   0.4571   0.4668   0.4702   0.4769   0.4821
     0.5001   0.5034   0.5082   0.5121   0.5179   0.5203   0.5317   0.5379
     0.5544   0.5561   0.5638   0.5667   0.5749   0.5813   0.5949   0.6002
     0.6036   0.6107   0.6179   0.6225   0.6267   0.6413   0.6554   0.6649
     0.6678   0.6753   0.6847   0.6885   0.6909   0.7016   0.7063   0.7183
     0.7301   0.7375   0.7390   0.7428   0.7531   0.7593   0.7596   0.7662
     0.7723   0.7782   0.8082   0.8145   0.8218   0.8308   0.8438   0.8509
     0.8535   0.8697   0.8741   0.8790   0.8950   0.8990   0.9054   0.9167
     0.9223   0.9294   0.9534   0.9550   0.9878   0.9952   1.0110   1.0250
     1.1349   1.1687   1.6040   1.6917   1.6967   1.7261   1.7294   1.7469
     1.7592   1.8537   1.8792   1.8983   1.9151   1.9599   1.9651   1.9856
     1.9974   2.0194   2.0385   2.0590   2.0707   2.0727   2.0925   2.1305
     2.1547   2.1702   2.1793   2.2082   2.2160   2.2515   2.2544   2.2606
     2.2746   2.2826   2.3045   2.3143   2.3232   2.3325   2.3472   2.3541
     2.3690   2.3814   2.3903   2.3928   2.4086   2.4237   2.4431   2.4837
     2.4891   2.5059   2.5135   2.5284   2.5413   2.5458   2.5661   2.5893
     2.5974   2.6072   2.6418   2.6606   2.6991   2.7274   2.7448   2.8069
     2.8251   2.8595   2.8769   2.9226   2.9255   3.3706   3.3992   3.6068
     3.6630   3.7990   3.8613   3.9437   4.0066   4.0262   4.0902   4.6050
     4.6661   4.7744   4.8975   4.9325   4.9581   5.0514   5.4369   6.3395
     6.3637   6.5131   6.6062   6.7268   6.8111   6.8468   6.9004   6.9392
     7.0484   7.0914   7.1327   7.1521   7.3400   7.3904   7.4066   7.4379
     7.5252   7.5910   7.6207   7.7071   7.7467   7.7523   7.8194   7.8482
     7.8864   7.9463   7.9672   7.9996   8.0200   8.0525   8.0780   8.1161
     8.1417   8.1749   8.1871   8.2324   8.2515   8.2771   8.3109   8.3415
     8.3653   8.4049   8.4286   8.4865   8.4901   8.5038   8.5235   8.5392
     8.5536   8.5683   8.5916   8.6050   8.6454   8.6670   8.6749   8.6882
     8.7240   8.7408   8.8027   8.8052   8.8518   8.8681   8.9142

     the Fermi energy is     1.5812 ev

!    total energy              =   -7398.02840057 Ry
     estimated scf accuracy    <       0.00000086 Ry
     smearing contrib. (-TS)   =      -0.01554431 Ry
     internal energy E=F+TS    =   -7398.01285626 Ry

     The total energy is F=E-TS. E is the sum of the following terms:
     one-electron contribution =  -91614.44526324 Ry
     hartree contribution      =   46455.54805644 Ry
     xc contribution           =   -2260.28013598 Ry
     ewald contribution        =   40022.99658865 Ry
     Dispersion Correction     =      -1.83214167 Ry
     electric field correction =       0.00003955 Ry

     total magnetization       =    80.29 Bohr mag/cell
     absolute magnetization    =    81.82 Bohr mag/cell

     convergence has been achieved in  64 iterations

     negative rho (up, down):  9.300E-04 5.484E-04

     Forces acting on atoms (cartesian axes, Ry/au):

     atom    1 type  2   force =     0.00015493   -0.00020320   -0.00006334
     atom    2 type  1   force =    -0.00037146    0.00008784   -0.00019337
     atom    3 type  1   force =    -0.00009166   -0.00068043   -0.00033682
     atom    4 type  1   force =    -0.00019777    0.00036916    0.00015257
     atom    5 type  1   force =     0.00004643    0.00030395    0.00007379
     atom    6 type  1   force =    -0.00014050   -0.00006990    0.00004999
     atom    7 type  1   force =    -0.00177891    0.00225225    0.00213282
     atom    8 type  1   force =    -0.00000993   -0.00039571    0.00026184
     atom    9 type  1   force =    -0.00038782    0.00061735   -0.00020631
     atom   10 type  1   force =    -0.00005888    0.00001997   -0.00037245
     atom   11 type  1   force =    -0.00045992   -0.00044751   -0.00003142
     atom   12 type  1   force =     0.00051061    0.00024856   -0.00052247
     atom   13 type  3   force =    -0.00012140    0.00015700    0.00008318
     atom   14 type  3   force =    -0.00026580   -0.00002790    0.00008737
     atom   15 type  3   force =     0.00011921    0.00007558    0.00007799
     atom   16 type  3   force =     0.00076077    0.00009246    0.00006377
     atom   17 type  4   force =     0.00000379   -0.00030277    0.00008308
     atom   18 type  4   force =     0.00015349    0.00018731   -0.00052795
     atom   19 type  4   force =    -0.00021835    0.00029645    0.00021827
     atom   20 type  4   force =    -0.00010384    0.00002025    0.00043674
     atom   21 type  4   force =    -0.00012677    0.00029352   -0.00012527
     atom   22 type  4   force =    -0.00006656   -0.00011489   -0.00024178
     atom   23 type  4   force =     0.00005229    0.00075161   -0.00008043
     atom   24 type  4   force =     0.00042574    0.00003190    0.00014741
     atom   25 type  4   force =     0.00020552   -0.00005473   -0.00005834
     atom   26 type  4   force =    -0.00008376   -0.00002558    0.00007545
     atom   27 type  4   force =     0.00016501   -0.00004481   -0.00013522
     atom   28 type  4   force =    -0.00025730    0.00010584    0.00019865
     atom   29 type  4   force =     0.00008795   -0.00022113    0.00029036
     atom   30 type  4   force =    -0.00025564   -0.00048898   -0.00030991
     atom   31 type  4   force =    -0.00011356    0.00031900   -0.00017844
     atom   32 type  4   force =     0.00007544    0.00039734    0.00016853
     atom   33 type  3   force =    -0.00001806    0.00008057   -0.00020859
     atom   34 type  3   force =     0.00031670    0.00005895   -0.00013818
     atom   35 type  3   force =     0.00028893    0.00004549   -0.00016202
     atom   36 type  3   force =    -0.00062183    0.00007241    0.00015699
     atom   37 type  4   force =    -0.00001137   -0.00019792    0.00049523
     atom   38 type  4   force =    -0.00007146    0.00057715   -0.00019458
     atom   39 type  4   force =    -0.00012877    0.00005793    0.00086422
     atom   40 type  4   force =     0.00042758   -0.00007316   -0.00000072
     atom   41 type  4   force =    -0.00039471   -0.00007673   -0.00020661
     atom   42 type  4   force =    -0.00042166   -0.00019284   -0.00020638
     atom   43 type  4   force =    -0.00035352   -0.00009082   -0.00003063
     atom   44 type  4   force =     0.00022159    0.00007509   -0.00044606
     atom   45 type  4   force =     0.00025319    0.00015386   -0.00037557
     atom   46 type  4   force =    -0.00003626   -0.00088415   -0.00019635
     atom   47 type  4   force =    -0.00033199    0.00016056   -0.00004098
     atom   48 type  4   force =     0.00013999    0.00015667    0.00010481
     atom   49 type  4   force =     0.00020817    0.00047651    0.00019139
     atom   50 type  4   force =     0.00016240   -0.00046478    0.00006536
     atom   51 type  4   force =    -0.00008794    0.00015464    0.00014361
     atom   52 type  4   force =     0.00006667   -0.00000289   -0.00008403
     atom   53 type  2   force =     0.00240324   -0.00378831    0.00588905
     atom   54 type  1   force =     0.00507007   -0.00224515    0.00371167
     atom   55 type  1   force =     0.00755837   -0.00387943    0.00199000
     atom   56 type  1   force =    -0.00195996    0.01032275    0.00585919
     atom   57 type  1   force =    -0.00010894    0.02314050    0.01469301
     atom   58 type  1   force =     0.00206910   -0.00332475   -0.00183514
     atom   59 type  1   force =     0.00046687   -0.00716035    0.00398209
     atom   60 type  1   force =    -0.00522712   -0.00200413    0.00462968
     atom   61 type  1   force =    -0.00187871   -0.00157240    0.00324338
     atom   62 type  1   force =    -0.00432206    0.00829374    0.00588112
     atom   63 type  1   force =    -0.01105621    0.02593717    0.01844400
     atom   64 type  1   force =    -0.00198260    0.00114739    0.00117890
     atom   65 type  3   force =     0.04623209   -0.11373405   -0.01061263
     atom   66 type  3   force =    -0.00036500   -0.00161333    0.00368244
     atom   67 type  3   force =    -0.03980422    0.12603638    0.01455972
     atom   68 type  3   force =     0.06271897   -0.00164759   -0.00314459
     atom   69 type  4   force =     0.01389230   -0.01843329    0.00389479
     atom   70 type  4   force =    -0.00106451    0.00285294   -0.00135540
     atom   71 type  4   force =    -0.00151892    0.00337354   -0.00555310
     atom   72 type  4   force =     0.00406859    0.00184241   -0.00079439
     atom   73 type  4   force =     0.00098230   -0.01152014    0.00268668
     atom   74 type  4   force =     0.00113024   -0.00010031   -0.00051624
     atom   75 type  4   force =     0.00069402    0.01365233    0.00526411
     atom   76 type  4   force =     0.00830539    0.00523140    0.00920090
     atom   77 type  4   force =     0.00708858   -0.00265855    0.00153975
     atom   78 type  4   force =     0.04444896   -0.14256097   -0.00534690
     atom   79 type  4   force =     0.00180509    0.00190600    0.00140227
     atom   80 type  4   force =     0.00015837    0.00228991   -0.00163774
     atom   81 type  4   force =     0.06800733    0.00087038   -0.00658004
     atom   82 type  4   force =     0.00028295    0.00074892   -0.00113678
     atom   83 type  4   force =    -0.03914434    0.13479988    0.00264908
     atom   84 type  4   force =    -0.00298781   -0.01099744   -0.00411116
     atom   85 type  3   force =     0.04005910   -0.12015397   -0.01803245
     atom   86 type  3   force =    -0.06377389   -0.00050782    0.00776420
     atom   87 type  3   force =    -0.04506776    0.12374326    0.01949712
     atom   88 type  3   force =    -0.00165992    0.00016766    0.00277402
     atom   89 type  4   force =     0.00899566   -0.01535046    0.00402645
     atom   90 type  4   force =    -0.00468149    0.00120941   -0.00007708
     atom   91 type  4   force =    -0.00883242    0.00841510   -0.00647594
     atom   92 type  4   force =     0.00003080    0.00014253   -0.00067708
     atom   93 type  4   force =    -0.00170355   -0.00833381    0.00736675
     atom   94 type  4   force =    -0.00415965    0.00102833   -0.00060023
     atom   95 type  4   force =    -0.00515983    0.01354931    0.00759345
     atom   96 type  4   force =     0.00410282    0.00518313    0.00959728
     atom   97 type  4   force =    -0.00003399    0.00031417    0.00064449
     atom   98 type  4   force =     0.04038735   -0.14113789   -0.00538322
     atom   99 type  4   force =    -0.06664772    0.00000401    0.00632250
     atom  100 type  4   force =    -0.00213572    0.00353095   -0.00252405
     atom  101 type  4   force =     0.00014155    0.00080026   -0.00086196
     atom  102 type  4   force =    -0.00620350    0.00425448   -0.00135794
     atom  103 type  4   force =    -0.04029652    0.13344137    0.00428238
     atom  104 type  4   force =    -0.00701961   -0.00989277   -0.00527683
     atom  105 type  2   force =     0.00416957   -0.00656677   -0.01829351
     atom  106 type  1   force =     0.02816339    0.01426799    0.01146358
     atom  107 type  1   force =     0.00869862   -0.00614371   -0.01421061
     atom  108 type  1   force =    -0.02836267    0.02167142    0.01851077
     atom  109 type  1   force =     0.00501587    0.01622933    0.00922716
     atom  110 type  1   force =    -0.00251438   -0.00886755   -0.00701240
     atom  111 type  1   force =    -0.00087438   -0.00950000   -0.01165423
     atom  112 type  1   force =     0.02912167    0.01749194    0.01115490
     atom  113 type  1   force =    -0.00067959   -0.00499305   -0.01405060
     atom  114 type  1   force =    -0.02963029    0.02074096    0.01833511
     atom  115 type  1   force =    -0.00715738    0.01858691    0.01192320
     atom  116 type  1   force =    -0.00557872   -0.00442232   -0.00316385
     atom  117 type  3   force =     0.01426693   -0.17390361   -0.10876186
     atom  118 type  3   force =     0.00516856   -0.00849815   -0.01242512
     atom  119 type  3   force =    -0.04467155    0.12499179   -0.00170440
     atom  120 type  3   force =     0.09507699   -0.04104562   -0.07966875
     atom  121 type  4   force =     0.00617445   -0.01702827    0.03712719
     atom  122 type  4   force =    -0.00345004    0.00366617    0.00450370
     atom  123 type  4   force =    -0.00092862    0.00249159   -0.00280593
     atom  124 type  4   force =     0.00845485    0.00224393    0.02679715
     atom  125 type  4   force =     0.00995036   -0.01679044    0.01625488
     atom  126 type  4   force =    -0.00751414    0.00095799   -0.00326140
     atom  127 type  4   force =     0.00394323    0.00962588    0.00030012
     atom  128 type  4   force =    -0.00067319   -0.00097620    0.03051782
     atom  129 type  4   force =    -0.00776784    0.02532485    0.00123341
     atom  130 type  4   force =     0.04337173   -0.14588639   -0.00198324
     atom  131 type  4   force =    -0.01718723   -0.00043346    0.00289426
     atom  132 type  4   force =     0.00350410    0.00266361    0.00194221
     atom  133 type  4   force =     0.06965605    0.00368355   -0.00196387
     atom  134 type  4   force =     0.00099934    0.00375395    0.00264741
     atom  135 type  4   force =    -0.02741860    0.17204163    0.00612362
     atom  136 type  4   force =     0.01937618   -0.00863129    0.00404836
     atom  137 type  3   force =     0.00910894   -0.16688927   -0.09418622
     atom  138 type  3   force =    -0.06470896   -0.00205593   -0.00475379
     atom  139 type  3   force =    -0.04871916    0.11826309    0.00171976
     atom  140 type  3   force =     0.03144320   -0.04324963   -0.07363881
     atom  141 type  4   force =     0.00469867   -0.01323050    0.03194912
     atom  142 type  4   force =    -0.00538853   -0.00041448    0.00434994
     atom  143 type  4   force =    -0.00826297    0.00802291   -0.00347697
     atom  144 type  4   force =     0.00379694    0.00145036    0.02738546
     atom  145 type  4   force =     0.00695256   -0.01289291    0.03267679
     atom  146 type  4   force =    -0.00871291   -0.00183359   -0.00319497
     atom  147 type  4   force =     0.00027959    0.00984471    0.00249014
     atom  148 type  4   force =    -0.00797205    0.00134626    0.02943958
     atom  149 type  4   force =    -0.01328942    0.02924277    0.00056290
     atom  150 type  4   force =     0.03975475   -0.13821237   -0.00148066
     atom  151 type  4   force =    -0.08592924   -0.00177069    0.00919028
     atom  152 type  4   force =     0.00132187    0.00390416    0.00136150
     atom  153 type  4   force =    -0.00364594    0.00083971    0.00290524
     atom  154 type  4   force =    -0.00584977    0.00609142    0.00124006
     atom  155 type  4   force =    -0.02783334    0.16624461    0.00491112
     atom  156 type  4   force =     0.01034623   -0.00972725   -0.00133680
     atom  157 type  4   force =     0.00730056    0.00269371   -0.00483885
     atom  158 type  5   force =    -0.00495744   -0.00366285    0.00137129

     Total force =     0.671018     Total SCF correction =     0.004458
 
     init_run     :      7.52s CPU      8.24s WALL (       1 calls)
     electrons    :    901.70s CPU    948.40s WALL (       1 calls)
     forces       :      3.89s CPU      4.34s WALL (       1 calls)
     force_london :      0.11s CPU      0.11s WALL (       1 calls)

     Called by init_run:
     wfcinit      :      4.47s CPU      4.67s WALL (       1 calls)
     potinit      :      0.54s CPU      0.75s WALL (       1 calls)
     hinit0       :      1.29s CPU      1.37s WALL (       1 calls)

     Called by electrons:
     c_bands      :    723.12s CPU    747.12s WALL (      64 calls)
     sum_band     :    116.02s CPU    128.37s WALL (      64 calls)
     v_of_rho     :     12.48s CPU     13.47s WALL (      65 calls)
     newd         :     33.53s CPU     43.01s WALL (      65 calls)
     mix_rho      :     16.16s CPU     16.27s WALL (      64 calls)
     energy_londo :      0.09s CPU      0.09s WALL (       1 calls)

     Called by c_bands:
     init_us_2    :      2.17s CPU      2.23s WALL (     260 calls)
     init_us_2:cp :      2.17s CPU      2.22s WALL (     260 calls)
     regterg      :    707.02s CPU    730.78s WALL (     129 calls)

     Called by *egterg:
     rdiaghg      :    235.94s CPU    246.87s WALL (     548 calls)
     h_psi        :    265.56s CPU    271.45s WALL (     550 calls)
     s_psi        :     54.17s CPU     54.23s WALL (     550 calls)
     g_psi        :      0.38s CPU      0.39s WALL (     419 calls)

     Called by h_psi:
     h_psi:calbec :     67.79s CPU     72.94s WALL (     550 calls)
     vloc_psi     :    143.26s CPU    143.89s WALL (     550 calls)
     add_vuspsi   :     53.91s CPU     54.00s WALL (     550 calls)

     General routines
     calbec       :    100.67s CPU    108.13s WALL (     686 calls)
     fft          :     11.19s CPU     12.50s WALL (    1183 calls)
     ffts         :      9.62s CPU      9.64s WALL (    7053 calls)
     fftw         :    161.06s CPU    161.72s WALL (  217116 calls)
     interpolate  :      1.04s CPU      1.13s WALL (     130 calls)
 
     Parallel routines
 
     PWSCF        :  15m15.24s CPU  16m 3.40s WALL

 
   This run was terminated on:   1:19:12  20Nov2025            

=------------------------------------------------------------------------------=
   JOB DONE.
=------------------------------------------------------------------------------=
