
     Program PWSCF v.7.2 starts on 20Nov2025 at  1:40:11 

     This program is part of the open-source Quantum ESPRESSO suite
     for quantum simulation of materials; please cite
         "P. Giannozzi et al., J. Phys.:Condens. Matter 21 395502 (2009);
         "P. Giannozzi et al., J. Phys.:Condens. Matter 29 465901 (2017);
         "P. Giannozzi et al., J. Chem. Phys. 152 154105 (2020);
          URL http://www.quantum-espresso.org", 
     in publications or presentations arising from this work. More details at
     http://www.quantum-espresso.org/quote

     Parallel version (MPI), running on    64 processors

     MPI processes distributed on     4 nodes
     386298 MiB available memory on the printing compute node when the environment starts
 
     Reading input from PWINPUT_atm158_xp

     Current dimensions of program PWSCF are:
     Max number of different atomic species (ntypx) = 10
     Max number of k-points (npk) =  40000
     Max angular momentum in pseudopotentials (lmaxx) =  4
     Presently no symmetry can be used with electric field

     file Ni.pbe-n-rrkjus_psl.1.0.0.UPF: wavefunction(s)  3D renormalized
     file Mn.pbe-spn-rrkjus_psl.0.3.1.UPF: wavefunction(s)  3D renormalized
     file O.pbe-rrkjus.UPF: wavefunction(s)  2S renormalized
     file H.pbe-rrkjus.UPF: wavefunction(s)  1S renormalized

     gamma-point specific algorithms are used
 
     R & G space division:  proc/nbgrp/npool/nimage =      64
     Subspace diagonalization in iterative solution of the eigenvalue problem:
     one sub-group per band group will be used
     custom distributed-memory algorithm (size of sub-group:  6*  6 procs)

 
     Parallelization info
     --------------------
     sticks:   dense  smooth     PW     G-vecs:    dense   smooth      PW
     Min         208      82     20                59912    15118    1876
     Max         210      84     22                59974    15196    1926
     Sum       13399    5355   1345              3836275   970529  121367
 
     Using Slab Decomposition
 


     bravais-lattice index     =            0
     lattice parameter (alat)  =      17.7004  a.u.
     unit-cell volume          =   20319.7251 (a.u.)^3
     number of atoms/cell      =          158
     number of atomic types    =            5
     number of electrons       =      1078.00
     number of Kohn-Sham states=          647
     kinetic-energy cutoff     =      50.0000  Ry
     charge density cutoff     =     500.0000  Ry
     scf convergence threshold =      1.0E-06
     mixing beta               =       0.5000
     number of iterations used =            8  local-TF  mixing
     Exchange-correlation=  SLA  PW   PBE  PBE
                           (   1   4   3   4   0   0   0)

     celldm(1)=  17.700384  celldm(2)=   0.000000  celldm(3)=   0.000000
     celldm(4)=   0.000000  celldm(5)=   0.000000  celldm(6)=   0.000000

     crystal axes: (cart. coord. in units of alat)
               a(1) = (   1.000000   0.000000   0.000000 )  
               a(2) = (   0.000000   1.075730   0.000000 )  
               a(3) = (   0.000000   0.000000   3.406172 )  

     reciprocal axes: (cart. coord. in units 2 pi/alat)
               b(1) = (  1.000000  0.000000  0.000000 )  
               b(2) = (  0.000000  0.929602  0.000000 )  
               b(3) = (  0.000000  0.000000  0.293585 )  


     PseudoPot. # 1 for Ni read from file:
     ~/PSEUDO/Ni.pbe-n-rrkjus_psl.1.0.0.UPF
     MD5 check sum: Not computed, couldn't open file
     Pseudo is Ultrasoft + core correction, Zval = 10.0
     Generated using "atomic" code by A. Dal Corso  v.5.1.2
     Using radial grid of 1195 points,  6 beta functions with: 
                l(1) =   0
                l(2) =   0
                l(3) =   1
                l(4) =   1
                l(5) =   2
                l(6) =   2
     Q(r) pseudized with 0 coefficients 


     PseudoPot. # 2 for Mn read from file:
     ~/PSEUDO/Mn.pbe-spn-rrkjus_psl.0.3.1.UPF
     MD5 check sum: Not computed, couldn't open file
     Pseudo is Ultrasoft + core correction, Zval = 15.0
     Generated using &quot;atomic&quot; code by A. Dal Corso  v.6.2.2
     Using radial grid of 1187 points,  6 beta functions with: 
                l(1) =   0
                l(2) =   0
                l(3) =   1
                l(4) =   1
                l(5) =   2
                l(6) =   2
     Q(r) pseudized with 0 coefficients 


     PseudoPot. # 3 for P  read from file:
     ~/PSEUDO/P.pbe-n-rrkjus_psl.1.0.0.UPF
     MD5 check sum: Not computed, couldn't open file
     Pseudo is Ultrasoft + core correction, Zval =  5.0
     Generated using "atomic" code by A. Dal Corso  v.5.1
     Using radial grid of 1147 points,  6 beta functions with: 
                l(1) =   0
                l(2) =   0
                l(3) =   1
                l(4) =   1
                l(5) =   2
                l(6) =   2
     Q(r) pseudized with 0 coefficients 


     PseudoPot. # 4 for O  read from file:
     ~/PSEUDO/O.pbe-rrkjus.UPF
     MD5 check sum: Not computed, couldn't open file
     Pseudo is Ultrasoft, Zval =  6.0
     Generated by new atomic code, or converted to UPF format
     Using radial grid of 1269 points,  4 beta functions with: 
                l(1) =   0
                l(2) =   0
                l(3) =   1
                l(4) =   1
     Q(r) pseudized with 0 coefficients 


     PseudoPot. # 5 for H  read from file:
     ~/PSEUDO/H.pbe-rrkjus.UPF
     MD5 check sum: Not computed, couldn't open file
     Pseudo is Ultrasoft, Zval =  1.0
     Generated by new atomic code, or converted to UPF format
     Using radial grid of 1061 points,  2 beta functions with: 
                l(1) =   0
                l(2) =   0
     Q(r) pseudized with 0 coefficients 


     atomic species   valence    mass     pseudopotential
     Ni               10.00    58.69300     Ni( 1.00)
     Mn               15.00    54.93800     Mn( 1.00)
     P                 5.00    30.97300     P ( 1.00)
     O                 6.00    15.99900     O ( 1.00)
     H                 1.00     1.00790     H ( 1.00)

     Starting magnetic structure 
     atomic species   magnetization
     Ni              1.000
     Mn              1.000
     P               1.000
     O               1.000
     H               0.000

     No symmetry found



   Cartesian axes

     site n.     atom                  positions (alat units)
         1        Mn     tau(   1) = (   0.2487148   0.8375267   1.6951957  )
         2        Ni     tau(   2) = (   0.4985680   0.7741854   1.3708613  )
         3        Ni     tau(   3) = (  -0.0011545   0.3006174   1.6748188  )
         4        Ni     tau(   4) = (   0.2613034   0.2387656   1.3682654  )
         5        Ni     tau(   5) = (   0.9963341   1.0779630   1.5338071  )
         6        Ni     tau(   6) = (   0.2553410   0.5376272   1.5302552  )
         7        Ni     tau(   7) = (   0.7421076   0.8435707   1.7073254  )
         8        Ni     tau(   8) = (   0.9925505   0.7752294   1.3710528  )
         9        Ni     tau(   9) = (   0.5021333   0.2954136   1.6750756  )
        10        Ni     tau(  10) = (   0.7611689   0.2373559   1.3675061  )
        11        Ni     tau(  11) = (   0.5009702   1.0742604   1.5366496  )
        12        Ni     tau(  12) = (   0.7544547   0.5384375   1.5322894  )
        13        P      tau(  13) = (   0.2115511   0.9728651   1.3803029  )
        14        P      tau(  14) = (   0.4665848   0.6401311   1.6901980  )
        15        P      tau(  15) = (   0.2857882   0.1150193   1.6956783  )
        16        P      tau(  16) = (   0.0437806   0.4336934   1.3698950  )
        17        O      tau(  17) = (   0.1341895   0.9017796   1.5160649  )
        18        O      tau(  18) = (   0.3918354   0.7064542   1.5480543  )
        19        O      tau(  19) = (   0.3659047   0.1699051   1.5489901  )
        20        O      tau(  20) = (   0.1220478   0.3634760   1.5065536  )
        21        O      tau(  21) = (   0.1491769   0.8830546   1.2562069  )
        22        O      tau(  22) = (   0.4014483   0.7325987   1.8096174  )
        23        O      tau(  23) = (   0.3477141   0.2121598   1.8095684  )
        24        O      tau(  24) = (   0.1043448   0.3449385   1.2442231  )
        25        O      tau(  25) = (   0.1038610   0.5888479   1.3734716  )
        26        O      tau(  26) = (   0.3384087   1.0313531   1.6992469  )
        27        O      tau(  27) = (   0.3808703   0.4260931   1.3818057  )
        28        O      tau(  28) = (   0.1211112   0.1186251   1.6801879  )
        29        O      tau(  29) = (   0.1290557   0.6512937   1.6784404  )
        30        O      tau(  30) = (   0.4077914   0.4842311   1.6878311  )
        31        O      tau(  31) = (   0.1525182   0.0517135   1.3798448  )
        32        O      tau(  32) = (   0.3752655   0.9631458   1.3897289  )
        33        P      tau(  33) = (   0.7115935   0.9699435   1.3754512  )
        34        P      tau(  34) = (   0.9627941   0.6488001   1.6882550  )
        35        P      tau(  35) = (   0.7877941   0.1135143   1.6933997  )
        36        P      tau(  36) = (   0.5450057   0.4319961   1.3698026  )
        37        O      tau(  37) = (   0.6347424   0.8975550   1.5107968  )
        38        O      tau(  38) = (   0.8874360   0.7086109   1.5448689  )
        39        O      tau(  39) = (   0.8663690   0.1747348   1.5464995  )
        40        O      tau(  40) = (   0.6223636   0.3611942   1.5061123  )
        41        O      tau(  41) = (   0.6513775   0.8826145   1.2479475  )
        42        O      tau(  42) = (   0.9079471   0.7471932   1.8059270  )
        43        O      tau(  43) = (   0.8460393   0.2141480   1.8067812  )
        44        O      tau(  44) = (   0.6057326   0.3434800   1.2439494  )
        45        O      tau(  45) = (   0.6051788   0.5869386   1.3743458  )
        46        O      tau(  46) = (   0.8485507   1.0338148   1.6901252  )
        47        O      tau(  47) = (   0.8800306   0.4271144   1.3821281  )
        48        O      tau(  48) = (   0.6230808   0.1160198   1.6767091  )
        49        O      tau(  49) = (   0.6309458   0.6452848   1.6833570  )
        50        O      tau(  50) = (   0.9073287   0.4911282   1.6902526  )
        51        O      tau(  51) = (   0.6516592   0.0493454   1.3784195  )
        52        O      tau(  52) = (   0.8758524   0.9648084   1.3850114  )
        53        Mn     tau(  53) = (   0.2404744   0.8246335   1.0701417  )
        54        Ni     tau(  54) = (   0.4968126   0.7601755   0.7454373  )
        55        Ni     tau(  55) = (   0.0066150   0.2811828   1.0628866  )
        56        Ni     tau(  56) = (   0.2585722   0.2230943   0.7421070  )
        57        Ni     tau(  57) = (   0.9987350   1.0571496   0.9014992  )
        58        Ni     tau(  58) = (   0.2517397   0.5205596   0.9040596  )
        59        Ni     tau(  59) = (   0.7451645   0.8212628   1.0648168  )
        60        Ni     tau(  60) = (   0.9939181   0.7613889   0.7462324  )
        61        Ni     tau(  61) = (   0.5111533   0.2799173   1.0618053  )
        62        Ni     tau(  62) = (   0.7606326   0.2194352   0.7418547  )
        63        Ni     tau(  63) = (   0.5024065   1.0563218   0.8999416  )
        64        Ni     tau(  64) = (   0.7529977   0.5192985   0.9024691  )
        65        P      tau(  65) = (   0.2092944   0.9606182   0.7524883  )
        66        P      tau(  66) = (   0.4655727   0.6234620   1.0595283  )
        67        P      tau(  67) = (   0.2910699   0.0902448   1.0573821  )
        68        P      tau(  68) = (   0.0396216   0.4163480   0.7471080  )
        69        O      tau(  69) = (   0.1294378   0.8888345   0.8859300  )
        70        O      tau(  70) = (   0.3874505   0.6929859   0.9232915  )
        71        O      tau(  71) = (   0.3702540   0.1589885   0.9209891  )
        72        O      tau(  72) = (   0.1184398   0.3458043   0.8831565  )
        73        O      tau(  73) = (   0.1451572   0.8725966   0.6282341  )
        74        O      tau(  74) = (   0.4048762   0.7120670   1.1852426  )
        75        O      tau(  75) = (   0.3523506   0.1775664   1.1834175  )
        76        O      tau(  76) = (   0.1017610   0.3285569   0.6213347  )
        77        O      tau(  77) = (   0.0975396   0.5724373   0.7511996  )
        78        O      tau(  78) = (   0.3483552   1.0190030   1.0599597  )
        79        O      tau(  79) = (   0.3784305   0.4100203   0.7560991  )
        80        O      tau(  80) = (   0.1268237   0.0943029   1.0477175  )
        81        O      tau(  81) = (   0.1212267   0.6299255   1.0507023  )
        82        O      tau(  82) = (   0.4053315   0.4684472   1.0569297  )
        83        O      tau(  83) = (   0.1536621   0.0322003   0.7496532  )
        84        O      tau(  84) = (   0.3732349   0.9506802   0.7613277  )
        85        P      tau(  85) = (   0.7119823   0.9571059   0.7496908  )
        86        P      tau(  86) = (   0.9615208   0.6238477   1.0606987  )
        87        P      tau(  87) = (   0.7927710   0.0845145   1.0577754  )
        88        P      tau(  88) = (   0.5426404   0.4144760   0.7459181  )
        89        O      tau(  89) = (   0.6326879   0.8866267   0.8856678  )
        90        O      tau(  90) = (   0.8842163   0.6958291   0.9244764  )
        91        O      tau(  91) = (   0.8716178   0.1552836   0.9216415  )
        92        O      tau(  92) = (   0.6212010   0.3433751   0.8818834  )
        93        O      tau(  93) = (   0.6507714   0.8687427   0.6238197  )
        94        O      tau(  94) = (   0.9014054   0.7139543   1.1859242  )
        95        O      tau(  95) = (   0.8548963   0.1722994   1.1834447  )
        96        O      tau(  96) = (   0.6044469   0.3253792   0.6209553  )
        97        O      tau(  97) = (   0.6024424   0.5698225   0.7490903  )
        98        O      tau(  98) = (   0.8498940   1.0129567   1.0594762  )
        99        O      tau(  99) = (   0.8798395   0.4080910   0.7564148  )
       100        O      tau( 100) = (   0.6286921   0.0909721   1.0472573  )
       101        O      tau( 101) = (   0.6294973   0.6302838   1.0497366  )
       102        O      tau( 102) = (   0.9024339   0.4685397   1.0573501  )
       103        O      tau( 103) = (   0.6547812   0.0286072   0.7473283  )
       104        O      tau( 104) = (   0.8760507   0.9507690   0.7605412  )
       105        Mn     tau( 105) = (   0.2404744   0.8121420   0.4502541  )
       106        Ni     tau( 106) = (   0.4968126   0.7476840   0.1255496  )
       107        Ni     tau( 107) = (   0.0066150   0.2686914   0.4429989  )
       108        Ni     tau( 108) = (   0.2585722   0.2106028   0.1222194  )
       109        Ni     tau( 109) = (   0.9987350   1.0446581   0.2816116  )
       110        Ni     tau( 110) = (   0.2517397   0.5080681   0.2841720  )
       111        Ni     tau( 111) = (   0.7451645   0.8087713   0.4449291  )
       112        Ni     tau( 112) = (   0.9939181   0.7488974   0.1263448  )
       113        Ni     tau( 113) = (   0.5111533   0.2674258   0.4419177  )
       114        Ni     tau( 114) = (   0.7606326   0.2069438   0.1219670  )
       115        Ni     tau( 115) = (   0.5024065   1.0438304   0.2800540  )
       116        Ni     tau( 116) = (   0.7529977   0.5068070   0.2825815  )
       117        P      tau( 117) = (   0.2092944   0.9481267   0.1326007  )
       118        P      tau( 118) = (   0.4655727   0.6109705   0.4396407  )
       119        P      tau( 119) = (   0.2910699   0.0777534   0.4374945  )
       120        P      tau( 120) = (   0.0396216   0.4038566   0.1272204  )
       121        O      tau( 121) = (   0.1294378   0.8763430   0.2660424  )
       122        O      tau( 122) = (   0.3874505   0.6804944   0.3034039  )
       123        O      tau( 123) = (   0.3702540   0.1464970   0.3011014  )
       124        O      tau( 124) = (   0.1184398   0.3333129   0.2632689  )
       125        O      tau( 125) = (   0.1451572   0.8601051   0.0083464  )
       126        O      tau( 126) = (   0.4048762   0.6995756   0.5653550  )
       127        O      tau( 127) = (   0.3523506   0.1650749   0.5635298  )
       128        O      tau( 128) = (   0.1017610   0.3160655   0.0014470  )
       129        O      tau( 129) = (   0.0975396   0.5599458   0.1313120  )
       130        O      tau( 130) = (   0.3483552   1.0065115   0.4400720  )
       131        O      tau( 131) = (   0.3784305   0.3975288   0.1362114  )
       132        O      tau( 132) = (   0.1268237   0.0818115   0.4278298  )
       133        O      tau( 133) = (   0.1212267   0.6174340   0.4308146  )
       134        O      tau( 134) = (   0.4053315   0.4559557   0.4370420  )
       135        O      tau( 135) = (   0.1536621   0.0197088   0.1297656  )
       136        O      tau( 136) = (   0.3732349   0.9381887   0.1414400  )
       137        P      tau( 137) = (   0.7119823   0.9446144   0.1298032  )
       138        P      tau( 138) = (   0.9615208   0.6113562   0.4408111  )
       139        P      tau( 139) = (   0.7927710   0.0720230   0.4378878  )
       140        P      tau( 140) = (   0.5426404   0.4019845   0.1260304  )
       141        O      tau( 141) = (   0.6326879   0.8741353   0.2657802  )
       142        O      tau( 142) = (   0.8842163   0.6833376   0.3045887  )
       143        O      tau( 143) = (   0.8716178   0.1427921   0.3017538  )
       144        O      tau( 144) = (   0.6212010   0.3308836   0.2619957  )
       145        O      tau( 145) = (   0.6507714   0.8562512   0.0039320  )
       146        O      tau( 146) = (   0.9014054   0.7014628   0.5660366  )
       147        O      tau( 147) = (   0.8548963   0.1598079   0.5635571  )
       148        O      tau( 148) = (   0.6044469   0.3128877   0.0010676  )
       149        O      tau( 149) = (   0.6024424   0.5573310   0.1292027  )
       150        O      tau( 150) = (   0.8498940   1.0004653   0.4395886  )
       151        O      tau( 151) = (   0.8798395   0.3955995   0.1365272  )
       152        O      tau( 152) = (   0.6286921   0.0784807   0.4273696  )
       153        O      tau( 153) = (   0.6294973   0.6177923   0.4298489  )
       154        O      tau( 154) = (   0.9024339   0.4560482   0.4374624  )
       155        O      tau( 155) = (   0.6547812   0.0161158   0.1274406  )
       156        O      tau( 156) = (   0.8760507   0.9382775   0.1406535  )
       157        O      tau( 157) = (   0.6290941   0.9242713   1.8436369  )
       158        H      tau( 158) = (   0.5534613   0.8599107   1.8761737  )

     -------------------------------------------------
     Parameters for Dispersion (Grimme-D2) Correction:
     -------------------------------------------------
       atom      VdW radius       C_6     

        Ni         2.952        374.666
        Mn         2.952        374.666
        P          3.222        271.980
        O          2.536         24.284
        H          1.892          4.857

     number of k points=     1  Gaussian smearing, width (Ry)=  0.0100
                       cart. coord. in units 2pi/alat
        k(    1) = (   0.0000000   0.0000000   0.0000000), wk =   1.0000000

     Dense  grid:  1918138 G-vectors     FFT dimensions: ( 125, 135, 432)

     Smooth grid:   485265 G-vectors     FFT dimensions: (  80,  90, 288)

     Estimated max dynamical RAM per process >     320.12 MB

     Estimated total dynamical RAM >      20.01 GB
     Generating pointlists ...
     new r_m :   0.0803 (alat units)  1.4208 (a.u.) for type    1
     new r_m :   0.0869 (alat units)  1.5388 (a.u.) for type    2
     new r_m :   0.0650 (alat units)  1.1499 (a.u.) for type    3
     new r_m :   0.0431 (alat units)  0.7630 (a.u.) for type    4
     new r_m :   0.0431 (alat units)  0.7630 (a.u.) for type    5

     Initial potential from superposition of free atoms

     starting charge    1077.8900, renormalised to    1078.0000

     negative rho (up, down):  1.227E-03 4.520E-04
 
     Adding external electric field

     Computed dipole along edir(3) : 
        Dipole                1.6379 Ry au,          4.1630 Debye
        Dipole field          0.0010 Ry au, 
 
        Potential amp.       -0.1099 Ry
        Total length         54.2615 bohr
 
 
     Adding external electric field

     Computed dipole along edir(3) : 
        Dipole                1.6379 Ry au,          4.1630 Debye
        Dipole field          0.0010 Ry au, 
 
        Potential amp.       -0.1099 Ry
        Total length         54.2615 bohr
 
     Starting wfcs are  812 randomized atomic wfcs

     total cpu time spent up to now is       10.3 secs

     Self-consistent Calculation

     iteration #  1     ecut=    50.00 Ry     beta= 0.50
     Davidson diagonalization with overlap
     ethr =  1.00E-02,  avg # of iterations =  6.0

     negative rho (up, down):  2.347E+00 6.727E-06
 
     Adding external electric field

     Computed dipole along edir(3) : 
        Dipole              -24.1086 Ry au,        -61.2779 Debye
        Dipole field         -0.0149 Ry au, 
 
        Potential amp.        1.6180 Ry
        Total length         54.2615 bohr
 
 
     Adding external electric field

     Computed dipole along edir(3) : 
        Dipole              -24.1086 Ry au,        -61.2779 Debye
        Dipole field         -0.0149 Ry au, 
 
        Potential amp.        1.6180 Ry
        Total length         54.2615 bohr
 

     total cpu time spent up to now is       37.3 secs

     total energy              =   -7201.79664411 Ry
     estimated scf accuracy    <     731.56478657 Ry

     total magnetization       =   216.00 Bohr mag/cell
     absolute magnetization    =   298.12 Bohr mag/cell

     iteration #  2     ecut=    50.00 Ry     beta= 0.50
     Davidson diagonalization with overlap
     ethr =  1.00E-02,  avg # of iterations =  6.5

     negative rho (up, down):  2.363E+00 8.131E-06
 
     Adding external electric field

     Computed dipole along edir(3) : 
        Dipole               -0.3055 Ry au,         -0.7766 Debye
        Dipole field         -0.0002 Ry au, 
 
        Potential amp.        0.0205 Ry
        Total length         54.2615 bohr
 
 
     Adding external electric field

     Computed dipole along edir(3) : 
        Dipole               -0.3055 Ry au,         -0.7766 Debye
        Dipole field         -0.0002 Ry au, 
 
        Potential amp.        0.0205 Ry
        Total length         54.2615 bohr
 

     total cpu time spent up to now is       64.6 secs

     total energy              =   -7298.70203981 Ry
     estimated scf accuracy    <    8352.70786241 Ry

     total magnetization       =   117.56 Bohr mag/cell
     absolute magnetization    =   160.24 Bohr mag/cell

     iteration #  3     ecut=    50.00 Ry     beta= 0.50
     Davidson diagonalization with overlap
     ethr =  1.00E-02,  avg # of iterations =  5.0

     negative rho (up, down):  1.737E+00 1.865E-05
 
     Adding external electric field

     Computed dipole along edir(3) : 
        Dipole               -2.5601 Ry au,         -6.5072 Debye
        Dipole field         -0.0016 Ry au, 
 
        Potential amp.        0.1718 Ry
        Total length         54.2615 bohr
 
 
     Adding external electric field

     Computed dipole along edir(3) : 
        Dipole               -2.5601 Ry au,         -6.5072 Debye
        Dipole field         -0.0016 Ry au, 
 
        Potential amp.        0.1718 Ry
        Total length         54.2615 bohr
 

     total cpu time spent up to now is       81.5 secs

     total energy              =   -7362.92885330 Ry
     estimated scf accuracy    <     689.29929420 Ry

     total magnetization       =   126.25 Bohr mag/cell
     absolute magnetization    =   165.90 Bohr mag/cell

     iteration #  4     ecut=    50.00 Ry     beta= 0.50
     Davidson diagonalization with overlap
     ethr =  1.00E-02,  avg # of iterations =  2.0

     negative rho (up, down):  1.286E+00 3.760E-05
 
     Adding external electric field

     Computed dipole along edir(3) : 
        Dipole               -2.9225 Ry au,         -7.4284 Debye
        Dipole field         -0.0018 Ry au, 
 
        Potential amp.        0.1961 Ry
        Total length         54.2615 bohr
 
 
     Adding external electric field

     Computed dipole along edir(3) : 
        Dipole               -2.9225 Ry au,         -7.4284 Debye
        Dipole field         -0.0018 Ry au, 
 
        Potential amp.        0.1961 Ry
        Total length         54.2615 bohr
 

     total cpu time spent up to now is       94.9 secs

     total energy              =   -7377.87068109 Ry
     estimated scf accuracy    <     140.96227174 Ry

     total magnetization       =    84.80 Bohr mag/cell
     absolute magnetization    =   130.91 Bohr mag/cell

     iteration #  5     ecut=    50.00 Ry     beta= 0.50
     Davidson diagonalization with overlap
     ethr =  1.00E-02,  avg # of iterations =  1.0

     negative rho (up, down):  6.085E-01 0.000E+00
 
     Adding external electric field

     Computed dipole along edir(3) : 
        Dipole               -3.1484 Ry au,         -8.0023 Debye
        Dipole field         -0.0019 Ry au, 
 
        Potential amp.        0.2113 Ry
        Total length         54.2615 bohr
 
 
     Adding external electric field

     Computed dipole along edir(3) : 
        Dipole               -3.1484 Ry au,         -8.0023 Debye
        Dipole field         -0.0019 Ry au, 
 
        Potential amp.        0.2113 Ry
        Total length         54.2615 bohr
 

     total cpu time spent up to now is      106.3 secs

     total energy              =   -7388.79333900 Ry
     estimated scf accuracy    <      76.20932060 Ry

     total magnetization       =    82.04 Bohr mag/cell
     absolute magnetization    =   120.79 Bohr mag/cell

     iteration #  6     ecut=    50.00 Ry     beta= 0.50
     Davidson diagonalization with overlap
     ethr =  7.07E-03,  avg # of iterations =  1.0

     negative rho (up, down):  4.625E-02 4.984E-04
 
     Adding external electric field

     Computed dipole along edir(3) : 
        Dipole               -3.6321 Ry au,         -9.2320 Debye
        Dipole field         -0.0022 Ry au, 
 
        Potential amp.        0.2438 Ry
        Total length         54.2615 bohr
 
 
     Adding external electric field

     Computed dipole along edir(3) : 
        Dipole               -3.6321 Ry au,         -9.2320 Debye
        Dipole field         -0.0022 Ry au, 
 
        Potential amp.        0.2438 Ry
        Total length         54.2615 bohr
 

     total cpu time spent up to now is      118.1 secs

     total energy              =   -7394.77030287 Ry
     estimated scf accuracy    <      28.33101139 Ry

     total magnetization       =    81.99 Bohr mag/cell
     absolute magnetization    =   109.15 Bohr mag/cell

     iteration #  7     ecut=    50.00 Ry     beta= 0.50
     Davidson diagonalization with overlap
     ethr =  2.63E-03,  avg # of iterations =  2.0

     negative rho (up, down):  4.689E-05 1.516E-02
 
     Adding external electric field

     Computed dipole along edir(3) : 
        Dipole               -3.8711 Ry au,         -9.8394 Debye
        Dipole field         -0.0024 Ry au, 
 
        Potential amp.        0.2598 Ry
        Total length         54.2615 bohr
 
 
     Adding external electric field

     Computed dipole along edir(3) : 
        Dipole               -3.8711 Ry au,         -9.8394 Debye
        Dipole field         -0.0024 Ry au, 
 
        Potential amp.        0.2598 Ry
        Total length         54.2615 bohr
 

     total cpu time spent up to now is      131.2 secs

     total energy              =   -7396.61426864 Ry
     estimated scf accuracy    <      60.29720226 Ry

     total magnetization       =    78.69 Bohr mag/cell
     absolute magnetization    =    93.37 Bohr mag/cell

     iteration #  8     ecut=    50.00 Ry     beta= 0.50
     Davidson diagonalization with overlap
     ethr =  2.63E-03,  avg # of iterations =  1.0

     negative rho (up, down):  2.239E-05 1.683E-02
 
     Adding external electric field

     Computed dipole along edir(3) : 
        Dipole               -3.8497 Ry au,         -9.7850 Debye
        Dipole field         -0.0024 Ry au, 
 
        Potential amp.        0.2584 Ry
        Total length         54.2615 bohr
 
 
     Adding external electric field

     Computed dipole along edir(3) : 
        Dipole               -3.8497 Ry au,         -9.7850 Debye
        Dipole field         -0.0024 Ry au, 
 
        Potential amp.        0.2584 Ry
        Total length         54.2615 bohr
 

     total cpu time spent up to now is      142.6 secs

     total energy              =   -7397.73923458 Ry
     estimated scf accuracy    <      23.48806461 Ry

     total magnetization       =    75.46 Bohr mag/cell
     absolute magnetization    =    84.53 Bohr mag/cell

     iteration #  9     ecut=    50.00 Ry     beta= 0.50
     Davidson diagonalization with overlap
     ethr =  2.18E-03,  avg # of iterations =  1.5

     negative rho (up, down):  1.295E-05 1.146E-02
 
     Adding external electric field

     Computed dipole along edir(3) : 
        Dipole               -3.9127 Ry au,         -9.9452 Debye
        Dipole field         -0.0024 Ry au, 
 
        Potential amp.        0.2626 Ry
        Total length         54.2615 bohr
 
 
     Adding external electric field

     Computed dipole along edir(3) : 
        Dipole               -3.9127 Ry au,         -9.9452 Debye
        Dipole field         -0.0024 Ry au, 
 
        Potential amp.        0.2626 Ry
        Total length         54.2615 bohr
 

     total cpu time spent up to now is      155.1 secs

     total energy              =   -7397.92163852 Ry
     estimated scf accuracy    <       4.12710145 Ry

     total magnetization       =    79.24 Bohr mag/cell
     absolute magnetization    =    87.03 Bohr mag/cell

     iteration # 10     ecut=    50.00 Ry     beta= 0.50
     Davidson diagonalization with overlap
     ethr =  3.83E-04,  avg # of iterations = 11.5

     negative rho (up, down):  1.037E-04 2.583E-02
 
     Adding external electric field

     Computed dipole along edir(3) : 
        Dipole               -3.8919 Ry au,         -9.8923 Debye
        Dipole field         -0.0024 Ry au, 
 
        Potential amp.        0.2612 Ry
        Total length         54.2615 bohr
 
 
     Adding external electric field

     Computed dipole along edir(3) : 
        Dipole               -3.8919 Ry au,         -9.8923 Debye
        Dipole field         -0.0024 Ry au, 
 
        Potential amp.        0.2612 Ry
        Total length         54.2615 bohr
 

     total cpu time spent up to now is      176.8 secs

     total energy              =   -7398.03661483 Ry
     estimated scf accuracy    <      12.16214789 Ry

     total magnetization       =    78.63 Bohr mag/cell
     absolute magnetization    =    85.22 Bohr mag/cell

     iteration # 11     ecut=    50.00 Ry     beta= 0.50
     Davidson diagonalization with overlap
     ethr =  3.83E-04,  avg # of iterations =  1.5

     negative rho (up, down):  1.533E-08 8.707E-03
 
     Adding external electric field

     Computed dipole along edir(3) : 
        Dipole               -3.6596 Ry au,         -9.3018 Debye
        Dipole field         -0.0023 Ry au, 
 
        Potential amp.        0.2456 Ry
        Total length         54.2615 bohr
 
 
     Adding external electric field

     Computed dipole along edir(3) : 
        Dipole               -3.6596 Ry au,         -9.3018 Debye
        Dipole field         -0.0023 Ry au, 
 
        Potential amp.        0.2456 Ry
        Total length         54.2615 bohr
 

     total cpu time spent up to now is      188.9 secs

     total energy              =   -7398.08090916 Ry
     estimated scf accuracy    <       4.53521893 Ry

     total magnetization       =    78.23 Bohr mag/cell
     absolute magnetization    =    82.82 Bohr mag/cell

     iteration # 12     ecut=    50.00 Ry     beta= 0.50
     Davidson diagonalization with overlap
     ethr =  3.83E-04,  avg # of iterations =  1.5

     negative rho (up, down):  0.000E+00 6.246E-03
 
     Adding external electric field

     Computed dipole along edir(3) : 
        Dipole               -3.4603 Ry au,         -8.7953 Debye
        Dipole field         -0.0021 Ry au, 
 
        Potential amp.        0.2322 Ry
        Total length         54.2615 bohr
 
 
     Adding external electric field

     Computed dipole along edir(3) : 
        Dipole               -3.4603 Ry au,         -8.7953 Debye
        Dipole field         -0.0021 Ry au, 
 
        Potential amp.        0.2322 Ry
        Total length         54.2615 bohr
 

     total cpu time spent up to now is      200.4 secs

     total energy              =   -7398.06050572 Ry
     estimated scf accuracy    <      16.96520239 Ry

     total magnetization       =    76.72 Bohr mag/cell
     absolute magnetization    =    80.35 Bohr mag/cell

     iteration # 13     ecut=    50.00 Ry     beta= 0.50
     Davidson diagonalization with overlap
     ethr =  3.83E-04,  avg # of iterations =  1.5

     negative rho (up, down):  4.400E-06 1.041E-03
 
     Adding external electric field

     Computed dipole along edir(3) : 
        Dipole               -3.4552 Ry au,         -8.7822 Debye
        Dipole field         -0.0021 Ry au, 
 
        Potential amp.        0.2319 Ry
        Total length         54.2615 bohr
 
 
     Adding external electric field

     Computed dipole along edir(3) : 
        Dipole               -3.4552 Ry au,         -8.7822 Debye
        Dipole field         -0.0021 Ry au, 
 
        Potential amp.        0.2319 Ry
        Total length         54.2615 bohr
 

     total cpu time spent up to now is      211.9 secs

     total energy              =   -7398.11541377 Ry
     estimated scf accuracy    <      18.47559005 Ry

     total magnetization       =    76.44 Bohr mag/cell
     absolute magnetization    =    79.54 Bohr mag/cell

     iteration # 14     ecut=    50.00 Ry     beta= 0.50
     Davidson diagonalization with overlap
     ethr =  3.83E-04,  avg # of iterations =  1.5

     negative rho (up, down):  8.784E-06 1.062E-04
 
     Adding external electric field

     Computed dipole along edir(3) : 
        Dipole               -3.2758 Ry au,         -8.3262 Debye
        Dipole field         -0.0020 Ry au, 
 
        Potential amp.        0.2199 Ry
        Total length         54.2615 bohr
 
 
     Adding external electric field

     Computed dipole along edir(3) : 
        Dipole               -3.2758 Ry au,         -8.3262 Debye
        Dipole field         -0.0020 Ry au, 
 
        Potential amp.        0.2199 Ry
        Total length         54.2615 bohr
 

     total cpu time spent up to now is      223.9 secs

     total energy              =   -7398.02960297 Ry
     estimated scf accuracy    <      20.67908754 Ry

     total magnetization       =    77.45 Bohr mag/cell
     absolute magnetization    =    80.83 Bohr mag/cell

     iteration # 15     ecut=    50.00 Ry     beta= 0.50
     Davidson diagonalization with overlap
     ethr =  3.83E-04,  avg # of iterations =  1.5

     negative rho (up, down):  2.490E-06 2.678E-03
 
     Adding external electric field

     Computed dipole along edir(3) : 
        Dipole               -3.1047 Ry au,         -7.8914 Debye
        Dipole field         -0.0019 Ry au, 
 
        Potential amp.        0.2084 Ry
        Total length         54.2615 bohr
 
 
     Adding external electric field

     Computed dipole along edir(3) : 
        Dipole               -3.1047 Ry au,         -7.8914 Debye
        Dipole field         -0.0019 Ry au, 
 
        Potential amp.        0.2084 Ry
        Total length         54.2615 bohr
 

     total cpu time spent up to now is      235.5 secs

     total energy              =   -7398.10143436 Ry
     estimated scf accuracy    <      13.07121319 Ry

     total magnetization       =    76.38 Bohr mag/cell
     absolute magnetization    =    79.59 Bohr mag/cell

     iteration # 16     ecut=    50.00 Ry     beta= 0.50
     Davidson diagonalization with overlap
     ethr =  3.83E-04,  avg # of iterations =  1.5

     negative rho (up, down):  4.437E-06 2.553E-03
 
     Adding external electric field

     Computed dipole along edir(3) : 
        Dipole               -3.5772 Ry au,         -9.0923 Debye
        Dipole field         -0.0022 Ry au, 
 
        Potential amp.        0.2401 Ry
        Total length         54.2615 bohr
 
 
     Adding external electric field

     Computed dipole along edir(3) : 
        Dipole               -3.5772 Ry au,         -9.0923 Debye
        Dipole field         -0.0022 Ry au, 
 
        Potential amp.        0.2401 Ry
        Total length         54.2615 bohr
 

     total cpu time spent up to now is      247.5 secs

     total energy              =   -7397.98605613 Ry
     estimated scf accuracy    <      18.05921820 Ry

     total magnetization       =    76.70 Bohr mag/cell
     absolute magnetization    =    78.94 Bohr mag/cell

     iteration # 17     ecut=    50.00 Ry     beta= 0.50
     Davidson diagonalization with overlap
     ethr =  3.83E-04,  avg # of iterations =  2.0

     negative rho (up, down):  3.370E-05 1.833E-03
 
     Adding external electric field

     Computed dipole along edir(3) : 
        Dipole               -3.5096 Ry au,         -8.9206 Debye
        Dipole field         -0.0022 Ry au, 
 
        Potential amp.        0.2355 Ry
        Total length         54.2615 bohr
 
 
     Adding external electric field

     Computed dipole along edir(3) : 
        Dipole               -3.5096 Ry au,         -8.9206 Debye
        Dipole field         -0.0022 Ry au, 
 
        Potential amp.        0.2355 Ry
        Total length         54.2615 bohr
 

     total cpu time spent up to now is      260.2 secs

     total energy              =   -7398.10720968 Ry
     estimated scf accuracy    <      30.67962401 Ry

     total magnetization       =    77.77 Bohr mag/cell
     absolute magnetization    =    81.91 Bohr mag/cell

     iteration # 18     ecut=    50.00 Ry     beta= 0.50
     Davidson diagonalization with overlap
     ethr =  3.83E-04,  avg # of iterations =  1.0

     negative rho (up, down):  3.812E-05 4.508E-03
 
     Adding external electric field

     Computed dipole along edir(3) : 
        Dipole               -3.4930 Ry au,         -8.8782 Debye
        Dipole field         -0.0022 Ry au, 
 
        Potential amp.        0.2344 Ry
        Total length         54.2615 bohr
 
 
     Adding external electric field

     Computed dipole along edir(3) : 
        Dipole               -3.4930 Ry au,         -8.8782 Debye
        Dipole field         -0.0022 Ry au, 
 
        Potential amp.        0.2344 Ry
        Total length         54.2615 bohr
 

     total cpu time spent up to now is      270.9 secs

     total energy              =   -7398.07705517 Ry
     estimated scf accuracy    <      10.61731851 Ry

     total magnetization       =    75.93 Bohr mag/cell
     absolute magnetization    =    80.53 Bohr mag/cell

     iteration # 19     ecut=    50.00 Ry     beta= 0.50
     Davidson diagonalization with overlap
     ethr =  3.83E-04,  avg # of iterations =  1.0

     negative rho (up, down):  2.012E-04 6.067E-03
 
     Adding external electric field

     Computed dipole along edir(3) : 
        Dipole               -3.7648 Ry au,         -9.5691 Debye
        Dipole field         -0.0023 Ry au, 
 
        Potential amp.        0.2527 Ry
        Total length         54.2615 bohr
 
 
     Adding external electric field

     Computed dipole along edir(3) : 
        Dipole               -3.7648 Ry au,         -9.5691 Debye
        Dipole field         -0.0023 Ry au, 
 
        Potential amp.        0.2527 Ry
        Total length         54.2615 bohr
 

     total cpu time spent up to now is      281.7 secs

     total energy              =   -7398.20084025 Ry
     estimated scf accuracy    <      27.49502798 Ry

     total magnetization       =    76.58 Bohr mag/cell
     absolute magnetization    =    79.60 Bohr mag/cell

     iteration # 20     ecut=    50.00 Ry     beta= 0.50
     Davidson diagonalization with overlap
     ethr =  3.83E-04,  avg # of iterations =  1.0

     negative rho (up, down):  8.287E-05 2.894E-04
 
     Adding external electric field

     Computed dipole along edir(3) : 
        Dipole               -3.6225 Ry au,         -9.2076 Debye
        Dipole field         -0.0022 Ry au, 
 
        Potential amp.        0.2431 Ry
        Total length         54.2615 bohr
 
 
     Adding external electric field

     Computed dipole along edir(3) : 
        Dipole               -3.6225 Ry au,         -9.2076 Debye
        Dipole field         -0.0022 Ry au, 
 
        Potential amp.        0.2431 Ry
        Total length         54.2615 bohr
 

     total cpu time spent up to now is      292.7 secs

     total energy              =   -7398.07769865 Ry
     estimated scf accuracy    <      21.20432063 Ry

     total magnetization       =    77.67 Bohr mag/cell
     absolute magnetization    =    81.11 Bohr mag/cell

     iteration # 21     ecut=    50.00 Ry     beta= 0.50
     Davidson diagonalization with overlap
     ethr =  3.83E-04,  avg # of iterations =  2.5

     negative rho (up, down):  1.358E-04 9.113E-05
 
     Adding external electric field

     Computed dipole along edir(3) : 
        Dipole               -3.4207 Ry au,         -8.6945 Debye
        Dipole field         -0.0021 Ry au, 
 
        Potential amp.        0.2296 Ry
        Total length         54.2615 bohr
 
 
     Adding external electric field

     Computed dipole along edir(3) : 
        Dipole               -3.4207 Ry au,         -8.6945 Debye
        Dipole field         -0.0021 Ry au, 
 
        Potential amp.        0.2296 Ry
        Total length         54.2615 bohr
 

     total cpu time spent up to now is      305.3 secs

     total energy              =   -7396.46821433 Ry
     estimated scf accuracy    <      47.48393821 Ry

     total magnetization       =    75.55 Bohr mag/cell
     absolute magnetization    =    79.01 Bohr mag/cell

     iteration # 22     ecut=    50.00 Ry     beta= 0.50
     Davidson diagonalization with overlap
     ethr =  3.83E-04,  avg # of iterations =  2.0

     negative rho (up, down):  2.733E-05 2.411E-05
 
     Adding external electric field

     Computed dipole along edir(3) : 
        Dipole               -3.3778 Ry au,         -8.5856 Debye
        Dipole field         -0.0021 Ry au, 
 
        Potential amp.        0.2267 Ry
        Total length         54.2615 bohr
 
 
     Adding external electric field

     Computed dipole along edir(3) : 
        Dipole               -3.3778 Ry au,         -8.5856 Debye
        Dipole field         -0.0021 Ry au, 
 
        Potential amp.        0.2267 Ry
        Total length         54.2615 bohr
 

     total cpu time spent up to now is      317.6 secs

     total energy              =   -7398.31923832 Ry
     estimated scf accuracy    <      22.60569387 Ry

     total magnetization       =    76.76 Bohr mag/cell
     absolute magnetization    =    80.07 Bohr mag/cell

     iteration # 23     ecut=    50.00 Ry     beta= 0.50
     Davidson diagonalization with overlap
     ethr =  3.83E-04,  avg # of iterations =  1.0

     negative rho (up, down):  1.430E-06 8.937E-07
 
     Adding external electric field

     Computed dipole along edir(3) : 
        Dipole               -3.1834 Ry au,         -8.0913 Debye
        Dipole field         -0.0020 Ry au, 
 
        Potential amp.        0.2136 Ry
        Total length         54.2615 bohr
 
 
     Adding external electric field

     Computed dipole along edir(3) : 
        Dipole               -3.1834 Ry au,         -8.0913 Debye
        Dipole field         -0.0020 Ry au, 
 
        Potential amp.        0.2136 Ry
        Total length         54.2615 bohr
 

     total cpu time spent up to now is      328.5 secs

     total energy              =   -7398.13789380 Ry
     estimated scf accuracy    <      45.25687437 Ry

     total magnetization       =    75.52 Bohr mag/cell
     absolute magnetization    =    78.61 Bohr mag/cell

     iteration # 24     ecut=    50.00 Ry     beta= 0.50
     Davidson diagonalization with overlap
     ethr =  3.83E-04,  avg # of iterations =  1.5

     negative rho (up, down):  3.282E-06 6.778E-06
 
     Adding external electric field

     Computed dipole along edir(3) : 
        Dipole               -3.2997 Ry au,         -8.3869 Debye
        Dipole field         -0.0020 Ry au, 
 
        Potential amp.        0.2215 Ry
        Total length         54.2615 bohr
 
 
     Adding external electric field

     Computed dipole along edir(3) : 
        Dipole               -3.2997 Ry au,         -8.3869 Debye
        Dipole field         -0.0020 Ry au, 
 
        Potential amp.        0.2215 Ry
        Total length         54.2615 bohr
 

     total cpu time spent up to now is      340.0 secs

     total energy              =   -7397.83052742 Ry
     estimated scf accuracy    <      26.10681894 Ry

     total magnetization       =    78.40 Bohr mag/cell
     absolute magnetization    =    81.34 Bohr mag/cell

     iteration # 25     ecut=    50.00 Ry     beta= 0.50
     Davidson diagonalization with overlap
     ethr =  3.83E-04,  avg # of iterations =  2.0

     negative rho (up, down):  1.076E-06 3.485E-07
 
     Adding external electric field

     Computed dipole along edir(3) : 
        Dipole               -3.1764 Ry au,         -8.0735 Debye
        Dipole field         -0.0020 Ry au, 
 
        Potential amp.        0.2132 Ry
        Total length         54.2615 bohr
 
 
     Adding external electric field

     Computed dipole along edir(3) : 
        Dipole               -3.1764 Ry au,         -8.0735 Debye
        Dipole field         -0.0020 Ry au, 
 
        Potential amp.        0.2132 Ry
        Total length         54.2615 bohr
 

     total cpu time spent up to now is      352.6 secs

     total energy              =   -7398.11333896 Ry
     estimated scf accuracy    <      23.27707672 Ry

     total magnetization       =    77.04 Bohr mag/cell
     absolute magnetization    =    79.99 Bohr mag/cell

     iteration # 26     ecut=    50.00 Ry     beta= 0.50
     Davidson diagonalization with overlap
     ethr =  3.83E-04,  avg # of iterations =  1.0

     negative rho (up, down):  2.109E-07 9.579E-05
 
     Adding external electric field

     Computed dipole along edir(3) : 
        Dipole               -3.1221 Ry au,         -7.9357 Debye
        Dipole field         -0.0019 Ry au, 
 
        Potential amp.        0.2095 Ry
        Total length         54.2615 bohr
 
 
     Adding external electric field

     Computed dipole along edir(3) : 
        Dipole               -3.1221 Ry au,         -7.9357 Debye
        Dipole field         -0.0019 Ry au, 
 
        Potential amp.        0.2095 Ry
        Total length         54.2615 bohr
 

     total cpu time spent up to now is      363.7 secs

     total energy              =   -7398.06828162 Ry
     estimated scf accuracy    <      21.04876151 Ry

     total magnetization       =    76.76 Bohr mag/cell
     absolute magnetization    =    79.68 Bohr mag/cell

     iteration # 27     ecut=    50.00 Ry     beta= 0.50
     Davidson diagonalization with overlap
     ethr =  3.83E-04,  avg # of iterations =  1.5

     negative rho (up, down):  1.789E-06 1.907E-03
 
     Adding external electric field

     Computed dipole along edir(3) : 
        Dipole               -2.6316 Ry au,         -6.6888 Debye
        Dipole field         -0.0016 Ry au, 
 
        Potential amp.        0.1766 Ry
        Total length         54.2615 bohr
 
 
     Adding external electric field

     Computed dipole along edir(3) : 
        Dipole               -2.6316 Ry au,         -6.6888 Debye
        Dipole field         -0.0016 Ry au, 
 
        Potential amp.        0.1766 Ry
        Total length         54.2615 bohr
 

     total cpu time spent up to now is      375.5 secs

     total energy              =   -7397.53268583 Ry
     estimated scf accuracy    <      47.25417654 Ry

     total magnetization       =    72.01 Bohr mag/cell
     absolute magnetization    =    75.88 Bohr mag/cell

     iteration # 28     ecut=    50.00 Ry     beta= 0.50
     Davidson diagonalization with overlap
     ethr =  3.83E-04,  avg # of iterations =  2.0
 
     Adding external electric field

     Computed dipole along edir(3) : 
        Dipole               -2.3660 Ry au,         -6.0137 Debye
        Dipole field         -0.0015 Ry au, 
 
        Potential amp.        0.1588 Ry
        Total length         54.2615 bohr
 
 
     Adding external electric field

     Computed dipole along edir(3) : 
        Dipole               -2.3660 Ry au,         -6.0137 Debye
        Dipole field         -0.0015 Ry au, 
 
        Potential amp.        0.1588 Ry
        Total length         54.2615 bohr
 

     total cpu time spent up to now is      387.8 secs

     total energy              =   -7397.21210427 Ry
     estimated scf accuracy    <      36.16984660 Ry

     total magnetization       =    63.23 Bohr mag/cell
     absolute magnetization    =    66.69 Bohr mag/cell

     iteration # 29     ecut=    50.00 Ry     beta= 0.50
     Davidson diagonalization with overlap
     ethr =  3.83E-04,  avg # of iterations =  2.0
 
     Adding external electric field

     Computed dipole along edir(3) : 
        Dipole               -2.6489 Ry au,         -6.7328 Debye
        Dipole field         -0.0016 Ry au, 
 
        Potential amp.        0.1778 Ry
        Total length         54.2615 bohr
 
 
     Adding external electric field

     Computed dipole along edir(3) : 
        Dipole               -2.6489 Ry au,         -6.7328 Debye
        Dipole field         -0.0016 Ry au, 
 
        Potential amp.        0.1778 Ry
        Total length         54.2615 bohr
 

     total cpu time spent up to now is      400.3 secs

     total energy              =   -7397.69650281 Ry
     estimated scf accuracy    <       8.68615860 Ry

     total magnetization       =    73.54 Bohr mag/cell
     absolute magnetization    =    75.48 Bohr mag/cell

     iteration # 30     ecut=    50.00 Ry     beta= 0.50
     Davidson diagonalization with overlap
     ethr =  3.83E-04,  avg # of iterations =  2.0
 
     Adding external electric field

     Computed dipole along edir(3) : 
        Dipole               -2.2043 Ry au,         -5.6027 Debye
        Dipole field         -0.0014 Ry au, 
 
        Potential amp.        0.1479 Ry
        Total length         54.2615 bohr
 
 
     Adding external electric field

     Computed dipole along edir(3) : 
        Dipole               -2.2043 Ry au,         -5.6027 Debye
        Dipole field         -0.0014 Ry au, 
 
        Potential amp.        0.1479 Ry
        Total length         54.2615 bohr
 

     total cpu time spent up to now is      412.8 secs

     total energy              =   -7397.79067581 Ry
     estimated scf accuracy    <       3.53126798 Ry

     total magnetization       =    76.45 Bohr mag/cell
     absolute magnetization    =    78.37 Bohr mag/cell

     iteration # 31     ecut=    50.00 Ry     beta= 0.50
     Davidson diagonalization with overlap
     ethr =  3.28E-04,  avg # of iterations =  2.0
 
     Adding external electric field

     Computed dipole along edir(3) : 
        Dipole               -2.3169 Ry au,         -5.8889 Debye
        Dipole field         -0.0014 Ry au, 
 
        Potential amp.        0.1555 Ry
        Total length         54.2615 bohr
 
 
     Adding external electric field

     Computed dipole along edir(3) : 
        Dipole               -2.3169 Ry au,         -5.8889 Debye
        Dipole field         -0.0014 Ry au, 
 
        Potential amp.        0.1555 Ry
        Total length         54.2615 bohr
 

     total cpu time spent up to now is      425.1 secs

     total energy              =   -7397.03346305 Ry
     estimated scf accuracy    <      68.72031047 Ry

     total magnetization       =    71.69 Bohr mag/cell
     absolute magnetization    =    73.60 Bohr mag/cell

     iteration # 32     ecut=    50.00 Ry     beta= 0.50
     Davidson diagonalization with overlap
     ethr =  3.28E-04,  avg # of iterations =  2.0
 
     Adding external electric field

     Computed dipole along edir(3) : 
        Dipole               -2.3045 Ry au,         -5.8574 Debye
        Dipole field         -0.0014 Ry au, 
 
        Potential amp.        0.1547 Ry
        Total length         54.2615 bohr
 
 
     Adding external electric field

     Computed dipole along edir(3) : 
        Dipole               -2.3045 Ry au,         -5.8574 Debye
        Dipole field         -0.0014 Ry au, 
 
        Potential amp.        0.1547 Ry
        Total length         54.2615 bohr
 

     total cpu time spent up to now is      437.0 secs

     total energy              =   -7397.94215064 Ry
     estimated scf accuracy    <       4.07086571 Ry

     total magnetization       =    78.85 Bohr mag/cell
     absolute magnetization    =    80.46 Bohr mag/cell

     iteration # 33     ecut=    50.00 Ry     beta= 0.50
     Davidson diagonalization with overlap
     ethr =  3.28E-04,  avg # of iterations =  1.5
 
     Adding external electric field

     Computed dipole along edir(3) : 
        Dipole               -2.0958 Ry au,         -5.3270 Debye
        Dipole field         -0.0013 Ry au, 
 
        Potential amp.        0.1407 Ry
        Total length         54.2615 bohr
 
 
     Adding external electric field

     Computed dipole along edir(3) : 
        Dipole               -2.0958 Ry au,         -5.3270 Debye
        Dipole field         -0.0013 Ry au, 
 
        Potential amp.        0.1407 Ry
        Total length         54.2615 bohr
 

     total cpu time spent up to now is      448.6 secs

     total energy              =   -7398.02599628 Ry
     estimated scf accuracy    <       1.23879589 Ry

     total magnetization       =    78.46 Bohr mag/cell
     absolute magnetization    =    80.08 Bohr mag/cell

     iteration # 34     ecut=    50.00 Ry     beta= 0.50
     Davidson diagonalization with overlap
     c_bands:  4 eigenvalues not converged
     ethr =  1.15E-04,  avg # of iterations = 11.0
 
     Adding external electric field

     Computed dipole along edir(3) : 
        Dipole               -1.9949 Ry au,         -5.0706 Debye
        Dipole field         -0.0012 Ry au, 
 
        Potential amp.        0.1339 Ry
        Total length         54.2615 bohr
 
 
     Adding external electric field

     Computed dipole along edir(3) : 
        Dipole               -1.9949 Ry au,         -5.0706 Debye
        Dipole field         -0.0012 Ry au, 
 
        Potential amp.        0.1339 Ry
        Total length         54.2615 bohr
 

     total cpu time spent up to now is      467.4 secs

     total energy              =   -7398.03448210 Ry
     estimated scf accuracy    <       0.43780628 Ry

     total magnetization       =    78.83 Bohr mag/cell
     absolute magnetization    =    80.38 Bohr mag/cell

     iteration # 35     ecut=    50.00 Ry     beta= 0.50
     Davidson diagonalization with overlap
     ethr =  4.06E-05,  avg # of iterations = 14.0
 
     Adding external electric field

     Computed dipole along edir(3) : 
        Dipole               -1.8848 Ry au,         -4.7907 Debye
        Dipole field         -0.0012 Ry au, 
 
        Potential amp.        0.1265 Ry
        Total length         54.2615 bohr
 
 
     Adding external electric field

     Computed dipole along edir(3) : 
        Dipole               -1.8848 Ry au,         -4.7907 Debye
        Dipole field         -0.0012 Ry au, 
 
        Potential amp.        0.1265 Ry
        Total length         54.2615 bohr
 

     total cpu time spent up to now is      491.9 secs

     total energy              =   -7398.04947492 Ry
     estimated scf accuracy    <       0.29670332 Ry

     total magnetization       =    79.97 Bohr mag/cell
     absolute magnetization    =    81.48 Bohr mag/cell

     iteration # 36     ecut=    50.00 Ry     beta= 0.50
     Davidson diagonalization with overlap
     ethr =  2.75E-05,  avg # of iterations =  1.5
 
     Adding external electric field

     Computed dipole along edir(3) : 
        Dipole               -1.8924 Ry au,         -4.8099 Debye
        Dipole field         -0.0012 Ry au, 
 
        Potential amp.        0.1270 Ry
        Total length         54.2615 bohr
 
 
     Adding external electric field

     Computed dipole along edir(3) : 
        Dipole               -1.8924 Ry au,         -4.8099 Debye
        Dipole field         -0.0012 Ry au, 
 
        Potential amp.        0.1270 Ry
        Total length         54.2615 bohr
 

     total cpu time spent up to now is      503.4 secs

     total energy              =   -7398.05271150 Ry
     estimated scf accuracy    <       0.54341614 Ry

     total magnetization       =    79.89 Bohr mag/cell
     absolute magnetization    =    81.43 Bohr mag/cell

     iteration # 37     ecut=    50.00 Ry     beta= 0.50
     Davidson diagonalization with overlap
     ethr =  2.75E-05,  avg # of iterations =  1.5
 
     Adding external electric field

     Computed dipole along edir(3) : 
        Dipole               -1.8340 Ry au,         -4.6615 Debye
        Dipole field         -0.0011 Ry au, 
 
        Potential amp.        0.1231 Ry
        Total length         54.2615 bohr
 
 
     Adding external electric field

     Computed dipole along edir(3) : 
        Dipole               -1.8340 Ry au,         -4.6615 Debye
        Dipole field         -0.0011 Ry au, 
 
        Potential amp.        0.1231 Ry
        Total length         54.2615 bohr
 

     total cpu time spent up to now is      514.9 secs

     total energy              =   -7398.05965828 Ry
     estimated scf accuracy    <       0.39619662 Ry

     total magnetization       =    80.26 Bohr mag/cell
     absolute magnetization    =    81.79 Bohr mag/cell

     iteration # 38     ecut=    50.00 Ry     beta= 0.50
     Davidson diagonalization with overlap
     ethr =  2.75E-05,  avg # of iterations =  2.0
 
     Adding external electric field

     Computed dipole along edir(3) : 
        Dipole               -1.7041 Ry au,         -4.3313 Debye
        Dipole field         -0.0011 Ry au, 
 
        Potential amp.        0.1144 Ry
        Total length         54.2615 bohr
 
 
     Adding external electric field

     Computed dipole along edir(3) : 
        Dipole               -1.7041 Ry au,         -4.3313 Debye
        Dipole field         -0.0011 Ry au, 
 
        Potential amp.        0.1144 Ry
        Total length         54.2615 bohr
 

     total cpu time spent up to now is      527.3 secs

     total energy              =   -7398.06656172 Ry
     estimated scf accuracy    <       0.31930785 Ry

     total magnetization       =    80.38 Bohr mag/cell
     absolute magnetization    =    81.92 Bohr mag/cell

     iteration # 39     ecut=    50.00 Ry     beta= 0.50
     Davidson diagonalization with overlap
     ethr =  2.75E-05,  avg # of iterations =  1.5

     negative rho (up, down):  0.000E+00 2.156E-03
 
     Adding external electric field

     Computed dipole along edir(3) : 
        Dipole               -1.3605 Ry au,         -3.4579 Debye
        Dipole field         -0.0008 Ry au, 
 
        Potential amp.        0.0913 Ry
        Total length         54.2615 bohr
 
 
     Adding external electric field

     Computed dipole along edir(3) : 
        Dipole               -1.3605 Ry au,         -3.4579 Debye
        Dipole field         -0.0008 Ry au, 
 
        Potential amp.        0.0913 Ry
        Total length         54.2615 bohr
 

     total cpu time spent up to now is      538.7 secs

     total energy              =   -7398.05946191 Ry
     estimated scf accuracy    <       0.28439959 Ry

     total magnetization       =    80.42 Bohr mag/cell
     absolute magnetization    =    81.99 Bohr mag/cell

     iteration # 40     ecut=    50.00 Ry     beta= 0.50
     Davidson diagonalization with overlap
     ethr =  2.64E-05,  avg # of iterations =  2.0
 
     Adding external electric field

     Computed dipole along edir(3) : 
        Dipole               -1.5369 Ry au,         -3.9064 Debye
        Dipole field         -0.0010 Ry au, 
 
        Potential amp.        0.1031 Ry
        Total length         54.2615 bohr
 
 
     Adding external electric field

     Computed dipole along edir(3) : 
        Dipole               -1.5369 Ry au,         -3.9064 Debye
        Dipole field         -0.0010 Ry au, 
 
        Potential amp.        0.1031 Ry
        Total length         54.2615 bohr
 

     total cpu time spent up to now is      551.2 secs

     total energy              =   -7398.05717835 Ry
     estimated scf accuracy    <       1.61023305 Ry

     total magnetization       =    80.46 Bohr mag/cell
     absolute magnetization    =    82.05 Bohr mag/cell

     iteration # 41     ecut=    50.00 Ry     beta= 0.50
     Davidson diagonalization with overlap
     ethr =  2.64E-05,  avg # of iterations =  1.0
 
     Adding external electric field

     Computed dipole along edir(3) : 
        Dipole               -1.4818 Ry au,         -3.7664 Debye
        Dipole field         -0.0009 Ry au, 
 
        Potential amp.        0.0995 Ry
        Total length         54.2615 bohr
 
 
     Adding external electric field

     Computed dipole along edir(3) : 
        Dipole               -1.4818 Ry au,         -3.7664 Debye
        Dipole field         -0.0009 Ry au, 
 
        Potential amp.        0.0995 Ry
        Total length         54.2615 bohr
 

     total cpu time spent up to now is      561.9 secs

     total energy              =   -7398.06646783 Ry
     estimated scf accuracy    <       0.41278544 Ry

     total magnetization       =    80.11 Bohr mag/cell
     absolute magnetization    =    81.70 Bohr mag/cell

     iteration # 42     ecut=    50.00 Ry     beta= 0.50
     Davidson diagonalization with overlap
     ethr =  2.64E-05,  avg # of iterations =  1.0

     negative rho (up, down):  0.000E+00 1.298E-02
 
     Adding external electric field

     Computed dipole along edir(3) : 
        Dipole               -1.2572 Ry au,         -3.1955 Debye
        Dipole field         -0.0008 Ry au, 
 
        Potential amp.        0.0844 Ry
        Total length         54.2615 bohr
 
 
     Adding external electric field

     Computed dipole along edir(3) : 
        Dipole               -1.2572 Ry au,         -3.1955 Debye
        Dipole field         -0.0008 Ry au, 
 
        Potential amp.        0.0844 Ry
        Total length         54.2615 bohr
 

     total cpu time spent up to now is      572.6 secs

     total energy              =   -7398.06093529 Ry
     estimated scf accuracy    <       0.48477571 Ry

     total magnetization       =    80.41 Bohr mag/cell
     absolute magnetization    =    81.98 Bohr mag/cell

     iteration # 43     ecut=    50.00 Ry     beta= 0.50
     Davidson diagonalization with overlap
     ethr =  2.64E-05,  avg # of iterations =  2.0

     negative rho (up, down):  0.000E+00 6.514E-03
 
     Adding external electric field

     Computed dipole along edir(3) : 
        Dipole               -1.3329 Ry au,         -3.3880 Debye
        Dipole field         -0.0008 Ry au, 
 
        Potential amp.        0.0895 Ry
        Total length         54.2615 bohr
 
 
     Adding external electric field

     Computed dipole along edir(3) : 
        Dipole               -1.3329 Ry au,         -3.3880 Debye
        Dipole field         -0.0008 Ry au, 
 
        Potential amp.        0.0895 Ry
        Total length         54.2615 bohr
 

     total cpu time spent up to now is      585.1 secs

     total energy              =   -7398.07060895 Ry
     estimated scf accuracy    <       2.23538917 Ry

     total magnetization       =    80.20 Bohr mag/cell
     absolute magnetization    =    81.80 Bohr mag/cell

     iteration # 44     ecut=    50.00 Ry     beta= 0.50
     Davidson diagonalization with overlap
     ethr =  2.64E-05,  avg # of iterations =  1.0

     negative rho (up, down):  0.000E+00 5.051E-04
 
     Adding external electric field

     Computed dipole along edir(3) : 
        Dipole               -1.4244 Ry au,         -3.6206 Debye
        Dipole field         -0.0009 Ry au, 
 
        Potential amp.        0.0956 Ry
        Total length         54.2615 bohr
 
 
     Adding external electric field

     Computed dipole along edir(3) : 
        Dipole               -1.4244 Ry au,         -3.6206 Debye
        Dipole field         -0.0009 Ry au, 
 
        Potential amp.        0.0956 Ry
        Total length         54.2615 bohr
 

     total cpu time spent up to now is      596.0 secs

     total energy              =   -7398.06754273 Ry
     estimated scf accuracy    <       1.62961172 Ry

     total magnetization       =    80.19 Bohr mag/cell
     absolute magnetization    =    81.78 Bohr mag/cell

     iteration # 45     ecut=    50.00 Ry     beta= 0.50
     Davidson diagonalization with overlap
     ethr =  2.64E-05,  avg # of iterations =  1.0
 
     Adding external electric field

     Computed dipole along edir(3) : 
        Dipole               -1.4965 Ry au,         -3.8037 Debye
        Dipole field         -0.0009 Ry au, 
 
        Potential amp.        0.1004 Ry
        Total length         54.2615 bohr
 
 
     Adding external electric field

     Computed dipole along edir(3) : 
        Dipole               -1.4965 Ry au,         -3.8037 Debye
        Dipole field         -0.0009 Ry au, 
 
        Potential amp.        0.1004 Ry
        Total length         54.2615 bohr
 

     total cpu time spent up to now is      607.0 secs

     total energy              =   -7398.07173965 Ry
     estimated scf accuracy    <       1.11143057 Ry

     total magnetization       =    79.94 Bohr mag/cell
     absolute magnetization    =    81.52 Bohr mag/cell

     iteration # 46     ecut=    50.00 Ry     beta= 0.50
     Davidson diagonalization with overlap
     ethr =  2.64E-05,  avg # of iterations =  1.5
 
     Adding external electric field

     Computed dipole along edir(3) : 
        Dipole               -1.4791 Ry au,         -3.7596 Debye
        Dipole field         -0.0009 Ry au, 
 
        Potential amp.        0.0993 Ry
        Total length         54.2615 bohr
 
 
     Adding external electric field

     Computed dipole along edir(3) : 
        Dipole               -1.4791 Ry au,         -3.7596 Debye
        Dipole field         -0.0009 Ry au, 
 
        Potential amp.        0.0993 Ry
        Total length         54.2615 bohr
 

     total cpu time spent up to now is      618.6 secs

     total energy              =   -7398.06902113 Ry
     estimated scf accuracy    <       1.11138946 Ry

     total magnetization       =    79.92 Bohr mag/cell
     absolute magnetization    =    81.49 Bohr mag/cell

     iteration # 47     ecut=    50.00 Ry     beta= 0.50
     Davidson diagonalization with overlap
     ethr =  2.64E-05,  avg # of iterations =  1.0
 
     Adding external electric field

     Computed dipole along edir(3) : 
        Dipole               -1.5582 Ry au,         -3.9605 Debye
        Dipole field         -0.0010 Ry au, 
 
        Potential amp.        0.1046 Ry
        Total length         54.2615 bohr
 
 
     Adding external electric field

     Computed dipole along edir(3) : 
        Dipole               -1.5582 Ry au,         -3.9605 Debye
        Dipole field         -0.0010 Ry au, 
 
        Potential amp.        0.1046 Ry
        Total length         54.2615 bohr
 

     total cpu time spent up to now is      629.7 secs

     total energy              =   -7398.07266352 Ry
     estimated scf accuracy    <       1.19381885 Ry

     total magnetization       =    79.47 Bohr mag/cell
     absolute magnetization    =    81.04 Bohr mag/cell

     iteration # 48     ecut=    50.00 Ry     beta= 0.50
     Davidson diagonalization with overlap
     ethr =  2.64E-05,  avg # of iterations =  1.0
 
     Adding external electric field

     Computed dipole along edir(3) : 
        Dipole               -1.5611 Ry au,         -3.9679 Debye
        Dipole field         -0.0010 Ry au, 
 
        Potential amp.        0.1048 Ry
        Total length         54.2615 bohr
 
 
     Adding external electric field

     Computed dipole along edir(3) : 
        Dipole               -1.5611 Ry au,         -3.9679 Debye
        Dipole field         -0.0010 Ry au, 
 
        Potential amp.        0.1048 Ry
        Total length         54.2615 bohr
 

     total cpu time spent up to now is      640.4 secs

     total energy              =   -7398.06472999 Ry
     estimated scf accuracy    <       1.09208037 Ry

     total magnetization       =    79.44 Bohr mag/cell
     absolute magnetization    =    81.01 Bohr mag/cell

     iteration # 49     ecut=    50.00 Ry     beta= 0.50
     Davidson diagonalization with overlap
     ethr =  2.64E-05,  avg # of iterations =  1.0
 
     Adding external electric field

     Computed dipole along edir(3) : 
        Dipole               -1.5441 Ry au,         -3.9248 Debye
        Dipole field         -0.0010 Ry au, 
 
        Potential amp.        0.1036 Ry
        Total length         54.2615 bohr
 
 
     Adding external electric field

     Computed dipole along edir(3) : 
        Dipole               -1.5441 Ry au,         -3.9248 Debye
        Dipole field         -0.0010 Ry au, 
 
        Potential amp.        0.1036 Ry
        Total length         54.2615 bohr
 

     total cpu time spent up to now is      651.3 secs

     total energy              =   -7398.04563764 Ry
     estimated scf accuracy    <       0.50356887 Ry

     total magnetization       =    80.25 Bohr mag/cell
     absolute magnetization    =    81.80 Bohr mag/cell

     iteration # 50     ecut=    50.00 Ry     beta= 0.50
     Davidson diagonalization with overlap
     ethr =  2.64E-05,  avg # of iterations =  2.0
 
     Adding external electric field

     Computed dipole along edir(3) : 
        Dipole               -1.4842 Ry au,         -3.7725 Debye
        Dipole field         -0.0009 Ry au, 
 
        Potential amp.        0.0996 Ry
        Total length         54.2615 bohr
 
 
     Adding external electric field

     Computed dipole along edir(3) : 
        Dipole               -1.4842 Ry au,         -3.7725 Debye
        Dipole field         -0.0009 Ry au, 
 
        Potential amp.        0.0996 Ry
        Total length         54.2615 bohr
 

     total cpu time spent up to now is      666.9 secs

     total energy              =   -7398.03598239 Ry
     estimated scf accuracy    <       1.71851979 Ry

     total magnetization       =    81.23 Bohr mag/cell
     absolute magnetization    =    82.78 Bohr mag/cell

     iteration # 51     ecut=    50.00 Ry     beta= 0.50
     Davidson diagonalization with overlap
     ethr =  2.64E-05,  avg # of iterations =  2.0

     negative rho (up, down):  0.000E+00 2.020E-02
 
     Adding external electric field

     Computed dipole along edir(3) : 
        Dipole               -1.4463 Ry au,         -3.6762 Debye
        Dipole field         -0.0009 Ry au, 
 
        Potential amp.        0.0971 Ry
        Total length         54.2615 bohr
 
 
     Adding external electric field

     Computed dipole along edir(3) : 
        Dipole               -1.4463 Ry au,         -3.6762 Debye
        Dipole field         -0.0009 Ry au, 
 
        Potential amp.        0.0971 Ry
        Total length         54.2615 bohr
 

     total cpu time spent up to now is      679.0 secs

     total energy              =   -7397.98565717 Ry
     estimated scf accuracy    <       2.08102669 Ry

     total magnetization       =    81.15 Bohr mag/cell
     absolute magnetization    =    82.75 Bohr mag/cell

     iteration # 52     ecut=    50.00 Ry     beta= 0.50
     Davidson diagonalization with overlap
     ethr =  2.64E-05,  avg # of iterations =  2.0
 
     Adding external electric field

     Computed dipole along edir(3) : 
        Dipole               -1.4921 Ry au,         -3.7925 Debye
        Dipole field         -0.0009 Ry au, 
 
        Potential amp.        0.1001 Ry
        Total length         54.2615 bohr
 
 
     Adding external electric field

     Computed dipole along edir(3) : 
        Dipole               -1.4921 Ry au,         -3.7925 Debye
        Dipole field         -0.0009 Ry au, 
 
        Potential amp.        0.1001 Ry
        Total length         54.2615 bohr
 

     total cpu time spent up to now is      691.1 secs

     total energy              =   -7398.04611892 Ry
     estimated scf accuracy    <       2.61341095 Ry

     total magnetization       =    81.30 Bohr mag/cell
     absolute magnetization    =    82.92 Bohr mag/cell

     iteration # 53     ecut=    50.00 Ry     beta= 0.50
     Davidson diagonalization with overlap
     ethr =  2.64E-05,  avg # of iterations =  2.0

     negative rho (up, down):  0.000E+00 8.867E-03
 
     Adding external electric field

     Computed dipole along edir(3) : 
        Dipole               -1.4845 Ry au,         -3.7733 Debye
        Dipole field         -0.0009 Ry au, 
 
        Potential amp.        0.0996 Ry
        Total length         54.2615 bohr
 
 
     Adding external electric field

     Computed dipole along edir(3) : 
        Dipole               -1.4845 Ry au,         -3.7733 Debye
        Dipole field         -0.0009 Ry au, 
 
        Potential amp.        0.0996 Ry
        Total length         54.2615 bohr
 

     total cpu time spent up to now is      703.6 secs

     total energy              =   -7397.99689196 Ry
     estimated scf accuracy    <       2.10804061 Ry

     total magnetization       =    81.00 Bohr mag/cell
     absolute magnetization    =    82.60 Bohr mag/cell

     iteration # 54     ecut=    50.00 Ry     beta= 0.50
     Davidson diagonalization with overlap
     ethr =  2.64E-05,  avg # of iterations =  1.5
 
     Adding external electric field

     Computed dipole along edir(3) : 
        Dipole               -1.5646 Ry au,         -3.9769 Debye
        Dipole field         -0.0010 Ry au, 
 
        Potential amp.        0.1050 Ry
        Total length         54.2615 bohr
 
 
     Adding external electric field

     Computed dipole along edir(3) : 
        Dipole               -1.5646 Ry au,         -3.9769 Debye
        Dipole field         -0.0010 Ry au, 
 
        Potential amp.        0.1050 Ry
        Total length         54.2615 bohr
 

     total cpu time spent up to now is      715.3 secs

     total energy              =   -7398.05634459 Ry
     estimated scf accuracy    <       2.29087807 Ry

     total magnetization       =    81.22 Bohr mag/cell
     absolute magnetization    =    82.84 Bohr mag/cell

     iteration # 55     ecut=    50.00 Ry     beta= 0.50
     Davidson diagonalization with overlap
     ethr =  2.64E-05,  avg # of iterations =  2.0
 
     Adding external electric field

     Computed dipole along edir(3) : 
        Dipole               -1.5790 Ry au,         -4.0134 Debye
        Dipole field         -0.0010 Ry au, 
 
        Potential amp.        0.1060 Ry
        Total length         54.2615 bohr
 
 
     Adding external electric field

     Computed dipole along edir(3) : 
        Dipole               -1.5790 Ry au,         -4.0134 Debye
        Dipole field         -0.0010 Ry au, 
 
        Potential amp.        0.1060 Ry
        Total length         54.2615 bohr
 

     total cpu time spent up to now is      727.7 secs

     total energy              =   -7398.06346540 Ry
     estimated scf accuracy    <       1.25018398 Ry

     total magnetization       =    80.12 Bohr mag/cell
     absolute magnetization    =    81.69 Bohr mag/cell

     iteration # 56     ecut=    50.00 Ry     beta= 0.50
     Davidson diagonalization with overlap
     ethr =  2.64E-05,  avg # of iterations =  1.0
 
     Adding external electric field

     Computed dipole along edir(3) : 
        Dipole               -1.3308 Ry au,         -3.3826 Debye
        Dipole field         -0.0008 Ry au, 
 
        Potential amp.        0.0893 Ry
        Total length         54.2615 bohr
 
 
     Adding external electric field

     Computed dipole along edir(3) : 
        Dipole               -1.3308 Ry au,         -3.3826 Debye
        Dipole field         -0.0008 Ry au, 
 
        Potential amp.        0.0893 Ry
        Total length         54.2615 bohr
 

     total cpu time spent up to now is      738.5 secs

     total energy              =   -7398.07849626 Ry
     estimated scf accuracy    <       1.78031099 Ry

     total magnetization       =    81.12 Bohr mag/cell
     absolute magnetization    =    82.66 Bohr mag/cell

     iteration # 57     ecut=    50.00 Ry     beta= 0.50
     Davidson diagonalization with overlap
     ethr =  2.64E-05,  avg # of iterations =  2.0

     negative rho (up, down):  0.000E+00 1.025E-03
 
     Adding external electric field

     Computed dipole along edir(3) : 
        Dipole               -1.1841 Ry au,         -3.0098 Debye
        Dipole field         -0.0007 Ry au, 
 
        Potential amp.        0.0795 Ry
        Total length         54.2615 bohr
 
 
     Adding external electric field

     Computed dipole along edir(3) : 
        Dipole               -1.1841 Ry au,         -3.0098 Debye
        Dipole field         -0.0007 Ry au, 
 
        Potential amp.        0.0795 Ry
        Total length         54.2615 bohr
 

     total cpu time spent up to now is      750.6 secs

     total energy              =   -7398.04530128 Ry
     estimated scf accuracy    <       2.39009691 Ry

     total magnetization       =    79.79 Bohr mag/cell
     absolute magnetization    =    81.38 Bohr mag/cell

     iteration # 58     ecut=    50.00 Ry     beta= 0.50
     Davidson diagonalization with overlap
     ethr =  2.64E-05,  avg # of iterations =  2.0

     negative rho (up, down):  0.000E+00 2.060E-02
 
     Adding external electric field

     Computed dipole along edir(3) : 
        Dipole               -1.6137 Ry au,         -4.1016 Debye
        Dipole field         -0.0010 Ry au, 
 
        Potential amp.        0.1083 Ry
        Total length         54.2615 bohr
 
 
     Adding external electric field

     Computed dipole along edir(3) : 
        Dipole               -1.6137 Ry au,         -4.1016 Debye
        Dipole field         -0.0010 Ry au, 
 
        Potential amp.        0.1083 Ry
        Total length         54.2615 bohr
 

     total cpu time spent up to now is      762.6 secs

     total energy              =   -7397.61198142 Ry
     estimated scf accuracy    <       5.90124986 Ry

     total magnetization       =    78.06 Bohr mag/cell
     absolute magnetization    =    80.16 Bohr mag/cell

     iteration # 59     ecut=    50.00 Ry     beta= 0.50
     Davidson diagonalization with overlap
     ethr =  2.64E-05,  avg # of iterations =  2.5

     negative rho (up, down):  0.000E+00 1.002E-01
 
     Adding external electric field

     Computed dipole along edir(3) : 
        Dipole               -1.6746 Ry au,         -4.2564 Debye
        Dipole field         -0.0010 Ry au, 
 
        Potential amp.        0.1124 Ry
        Total length         54.2615 bohr
 
 
     Adding external electric field

     Computed dipole along edir(3) : 
        Dipole               -1.6746 Ry au,         -4.2564 Debye
        Dipole field         -0.0010 Ry au, 
 
[...]
    -5.9520  -5.9431  -5.9227  -5.9170  -5.9020  -5.8543  -5.8202  -5.8034
    -5.7783  -5.7617  -5.7429  -5.7385  -5.7097  -5.6903  -5.6722  -5.6557
    -5.6446  -5.6121  -5.6068  -5.5943  -5.5924  -5.5718  -5.5179  -5.4847
    -5.4555  -5.4266  -5.3991  -5.3792  -5.3640  -5.3547  -5.3279  -5.2553
    -5.2248  -5.2047  -5.1901  -5.1186  -5.1087  -5.0893  -5.0370  -5.0200
    -5.0110  -4.9585  -4.9247  -4.9041  -4.8821  -4.8567  -4.8448  -4.7947
    -4.7837  -4.7426  -4.7060  -4.6812  -4.6564  -4.6291  -4.5515  -4.5387
    -4.4961  -4.4847  -4.4546  -4.4379  -4.4160  -4.3864  -4.3518  -4.3395
    -4.3220  -4.2777  -4.2196  -4.1826  -4.1390  -4.1232  -4.1087  -4.1010
    -4.0504  -4.0099  -3.9934  -3.9790  -3.9480  -3.9183  -3.9017  -3.8741
    -3.8503  -3.8463  -3.7906  -3.7878  -3.7583  -3.7233  -3.7067  -3.6938
    -3.6797  -3.6547  -3.6410  -3.6320  -3.6226  -3.6039  -3.5695  -3.5286
    -3.5085  -3.5033  -3.4852  -3.4780  -3.4701  -3.4622  -3.4328  -3.4259
    -3.4190  -3.3790  -3.3564  -3.3276  -3.3131  -3.2942  -3.2514  -3.2438
    -3.2305  -3.2012  -3.1652  -3.1650  -3.1520  -3.1318  -3.1236  -3.1106
    -3.0806  -3.0754  -3.0362  -3.0013  -2.9918  -2.9783  -2.9626  -2.9224
    -2.9041  -2.8960  -2.8837  -2.8374  -2.8272  -2.8128  -2.7908  -2.7783
    -2.7619  -2.7556  -2.7441  -2.7336  -2.7237  -2.7218  -2.7106  -2.6833
    -2.6632  -2.6458  -2.6357  -2.6280  -2.6015  -2.5862  -2.5746  -2.5502
    -2.5385  -2.5085  -2.5060  -2.4864  -2.4656  -2.4505  -2.4381  -2.4289
    -2.3952  -2.3828  -2.3713  -2.3539  -2.3265  -2.2941  -2.2831  -2.2566
    -2.2480  -2.2308  -2.2018  -2.1833  -2.1755  -2.1475  -2.1182  -2.1112
    -2.0977  -2.0721  -2.0586  -2.0451  -2.0329  -2.0154  -1.9936  -1.9649
    -1.9542  -1.9394  -1.9364  -1.9276  -1.8935  -1.8851  -1.8696  -1.8510
    -1.8262  -1.7825  -1.7772  -1.7426  -1.7335  -1.7048  -1.6886  -1.6788
    -1.6709  -1.6510  -1.6467  -1.6018  -1.5958  -1.5717  -1.5280  -1.5177
    -1.5039  -1.4963  -1.4678  -1.4446  -1.4367  -1.4188  -1.3998  -1.3881
    -1.3674  -1.3469  -1.3247  -1.2840  -1.2733  -1.2490  -1.2255  -1.2011
    -1.1562  -1.1200  -1.0732  -0.9722  -0.9547  -0.9203  -0.8691  -0.8299
    -0.8118  -0.7468  -0.6473  -0.5210  -0.3787  -0.3247  -0.3082  -0.2038
     0.1299   0.1534   0.1828   0.2206   0.2505   0.2711   0.2728   0.2961
     0.3001   0.3159   0.3365   0.3391   0.3458   0.3669   0.3694   0.3708
     0.3830   0.3860   0.3975   0.4038   0.4166   0.4254   0.4288   0.4384
     0.4436   0.4500   0.4567   0.4586   0.4682   0.4715   0.4783   0.4836
     0.5015   0.5048   0.5097   0.5135   0.5192   0.5218   0.5332   0.5394
     0.5557   0.5575   0.5652   0.5679   0.5763   0.5826   0.5961   0.6018
     0.6050   0.6123   0.6193   0.6239   0.6280   0.6427   0.6566   0.6662
     0.6694   0.6768   0.6858   0.6899   0.6921   0.7030   0.7075   0.7199
     0.7311   0.7390   0.7404   0.7443   0.7546   0.7606   0.7608   0.7677
     0.7739   0.7794   0.8100   0.8158   0.8231   0.8322   0.8450   0.8524
     0.8550   0.8711   0.8752   0.8801   0.8967   0.9003   0.9065   0.9179
     0.9236   0.9305   0.9546   0.9562   0.9890   0.9967   1.0121   1.0261
     1.1359   1.1698   1.6052   1.6927   1.6979   1.7272   1.7309   1.7480
     1.7606   1.8556   1.8810   1.9000   1.9168   1.9615   1.9668   1.9873
     1.9988   2.0209   2.0401   2.0606   2.0723   2.0743   2.0939   2.1321
     2.1562   2.1718   2.1810   2.2100   2.2176   2.2527   2.2559   2.2621
     2.2760   2.2842   2.3063   2.3159   2.3248   2.3340   2.3484   2.3556
     2.3707   2.3829   2.3918   2.3942   2.4103   2.4252   2.4446   2.4850
     2.4908   2.5075   2.5151   2.5303   2.5427   2.5471   2.5680   2.5908
     2.5986   2.6085   2.6440   2.6620   2.7008   2.7289   2.7471   2.8080
     2.8264   2.8605   2.8789   2.9238   2.9276   3.3713   3.3999   3.6077
     3.6638   3.8002   3.8625   3.9449   4.0078   4.0274   4.0914   4.6054
     4.6676   4.7756   4.8987   4.9338   4.9594   5.0525   5.4384   6.3407
     6.3649   6.5143   6.6078   6.7280   6.8125   6.8482   6.9015   6.9406
     7.0500   7.0929   7.1341   7.1534   7.3415   7.3919   7.4081   7.4394
     7.5260   7.5888   7.6216   7.7079   7.7483   7.7544   7.8206   7.8500
     7.8884   7.9477   7.9677   8.0012   8.0214   8.0537   8.0799   8.1177
     8.1431   8.1764   8.1887   8.2336   8.2535   8.2788   8.3123   8.3429
     8.3669   8.4056   8.4302   8.4876   8.4912   8.5051   8.5247   8.5404
     8.5542   8.5695   8.5930   8.6061   8.6468   8.6681   8.6764   8.6886
     8.7246   8.7417   8.8037   8.8068   8.8545   8.8771   8.9140

     the Fermi energy is     1.5824 ev

!    total energy              =   -7398.02834060 Ry
     estimated scf accuracy    <       0.00000053 Ry
     smearing contrib. (-TS)   =      -0.01554594 Ry
     internal energy E=F+TS    =   -7398.01279466 Ry

     The total energy is F=E-TS. E is the sum of the following terms:
     one-electron contribution =  -91618.40646836 Ry
     hartree contribution      =   46457.57744904 Ry
     xc contribution           =   -2260.28704724 Ry
     ewald contribution        =   40024.93538834 Ry
     Dispersion Correction     =      -1.83216783 Ry
     electric field correction =       0.00005139 Ry

     total magnetization       =    80.29 Bohr mag/cell
     absolute magnetization    =    81.82 Bohr mag/cell

     convergence has been achieved in 118 iterations

     negative rho (up, down):  9.302E-04 5.485E-04

     Forces acting on atoms (cartesian axes, Ry/au):

     atom    1 type  2   force =     0.00030406   -0.00022940    0.00005481
     atom    2 type  1   force =    -0.00030445    0.00014272    0.00001590
     atom    3 type  1   force =    -0.00002156   -0.00066548   -0.00032918
     atom    4 type  1   force =    -0.00019315    0.00039160    0.00031220
     atom    5 type  1   force =    -0.00006684    0.00027911    0.00016124
     atom    6 type  1   force =    -0.00008659   -0.00007187    0.00009566
     atom    7 type  1   force =     0.00052388    0.00066610   -0.00038704
     atom    8 type  1   force =    -0.00005321   -0.00037173    0.00038651
     atom    9 type  1   force =    -0.00035066    0.00066305   -0.00021357
     atom   10 type  1   force =    -0.00006808    0.00000834   -0.00018432
     atom   11 type  1   force =    -0.00034921   -0.00057212    0.00010400
     atom   12 type  1   force =     0.00044029    0.00033377   -0.00041586
     atom   13 type  3   force =    -0.00008137    0.00017174   -0.00001478
     atom   14 type  3   force =    -0.00046082    0.00017902    0.00016868
     atom   15 type  3   force =     0.00013287   -0.00000504   -0.00006390
     atom   16 type  3   force =     0.00076534    0.00009236   -0.00004247
     atom   17 type  4   force =     0.00009227   -0.00019732   -0.00010342
     atom   18 type  4   force =     0.00024964    0.00006799   -0.00046056
     atom   19 type  4   force =    -0.00029096    0.00023551    0.00036900
     atom   20 type  4   force =    -0.00020520    0.00013126    0.00023206
     atom   21 type  4   force =    -0.00004455    0.00037316   -0.00002290
     atom   22 type  4   force =     0.00002736   -0.00042927   -0.00075484
     atom   23 type  4   force =    -0.00004143    0.00054974   -0.00044768
     atom   24 type  4   force =     0.00034828    0.00011619    0.00026326
     atom   25 type  4   force =     0.00009886   -0.00025437   -0.00005529
     atom   26 type  4   force =    -0.00026172    0.00025192   -0.00003203
     atom   27 type  4   force =     0.00039362   -0.00005917   -0.00015001
     atom   28 type  4   force =     0.00000678    0.00016050    0.00013883
     atom   29 type  4   force =    -0.00022594   -0.00017237    0.00024578
     atom   30 type  4   force =    -0.00009542   -0.00032340   -0.00044299
     atom   31 type  4   force =    -0.00001459    0.00011464   -0.00017314
     atom   32 type  4   force =    -0.00017108    0.00040100    0.00014947
     atom   33 type  3   force =    -0.00007997    0.00004300   -0.00028479
     atom   34 type  3   force =     0.00039950   -0.00006660   -0.00039570
     atom   35 type  3   force =     0.00024491    0.00000549   -0.00035884
     atom   36 type  3   force =    -0.00061711    0.00007548    0.00005353
     atom   37 type  4   force =     0.00011244   -0.00004376   -0.00004751
     atom   38 type  4   force =     0.00002458    0.00048918    0.00003466
     atom   39 type  4   force =    -0.00019083   -0.00001527    0.00100053
     atom   40 type  4   force =     0.00033082    0.00004882   -0.00021784
     atom   41 type  4   force =    -0.00028665    0.00000562   -0.00012109
     atom   42 type  4   force =    -0.00044179   -0.00033910   -0.00068517
     atom   43 type  4   force =    -0.00042762   -0.00030297   -0.00039566
     atom   44 type  4   force =     0.00014157    0.00016030   -0.00032932
     atom   45 type  4   force =     0.00015188   -0.00005910   -0.00036175
     atom   46 type  4   force =     0.00005813   -0.00037619   -0.00042766
     atom   47 type  4   force =    -0.00009245    0.00015716   -0.00004959
     atom   48 type  4   force =     0.00048256    0.00029279    0.00000106
     atom   49 type  4   force =    -0.00007762    0.00033957    0.00007717
     atom   50 type  4   force =     0.00030125   -0.00016541   -0.00002318
     atom   51 type  4   force =     0.00003694   -0.00003191    0.00014457
     atom   52 type  4   force =    -0.00015495   -0.00001538   -0.00008081
     atom   53 type  2   force =     0.00244079   -0.00383842    0.00634271
     atom   54 type  1   force =     0.00513099   -0.00219993    0.00424339
     atom   55 type  1   force =     0.00754946   -0.00386127    0.00232536
     atom   56 type  1   force =    -0.00195466    0.01030703    0.00629216
     atom   57 type  1   force =    -0.00013549    0.02311205    0.01510536
     atom   58 type  1   force =     0.00207283   -0.00328780   -0.00137612
     atom   59 type  1   force =     0.00047263   -0.00718945    0.00431956
     atom   60 type  1   force =    -0.00530107   -0.00201350    0.00514829
     atom   61 type  1   force =    -0.00189105   -0.00153903    0.00359571
     atom   62 type  1   force =    -0.00432133    0.00826632    0.00632345
     atom   63 type  1   force =    -0.01102890    0.02588890    0.01883357
     atom   64 type  1   force =    -0.00197108    0.00122039    0.00164539
     atom   65 type  3   force =     0.04623794   -0.11371341   -0.01072046
     atom   66 type  3   force =    -0.00034977   -0.00161625    0.00358183
     atom   67 type  3   force =    -0.03980862    0.12605887    0.01445416
     atom   68 type  3   force =     0.06271788   -0.00164668   -0.00324255
     atom   69 type  4   force =     0.01389214   -0.01843807    0.00392498
     atom   70 type  4   force =    -0.00106012    0.00285190   -0.00134369
     atom   71 type  4   force =    -0.00151815    0.00337570   -0.00555340
     atom   72 type  4   force =     0.00407785    0.00183896   -0.00078650
     atom   73 type  4   force =     0.00086613   -0.01158249    0.00256061
     atom   74 type  4   force =     0.00119139   -0.00017146   -0.00069017
     atom   75 type  4   force =     0.00062824    0.01358762    0.00512422
     atom   76 type  4   force =     0.00840014    0.00514219    0.00905921
     atom   77 type  4   force =     0.00713294   -0.00257262    0.00153611
     atom   78 type  4   force =     0.04439955   -0.14248595   -0.00537331
     atom   79 type  4   force =     0.00170793    0.00190993    0.00140084
     atom   80 type  4   force =     0.00024141    0.00229756   -0.00165614
     atom   81 type  4   force =     0.06792606    0.00088922   -0.00659747
     atom   82 type  4   force =     0.00032671    0.00083994   -0.00116617
     atom   83 type  4   force =    -0.03919275    0.13492138    0.00263606
     atom   84 type  4   force =    -0.00288228   -0.01098669   -0.00411146
     atom   85 type  3   force =     0.04005978   -0.12014292   -0.01812636
     atom   86 type  3   force =    -0.06379046   -0.00050229    0.00765876
     atom   87 type  3   force =    -0.04506957    0.12374363    0.01939720
     atom   88 type  3   force =    -0.00165639    0.00017174    0.00267788
     atom   89 type  4   force =     0.00900092   -0.01534281    0.00402240
     atom   90 type  4   force =    -0.00467081    0.00119718   -0.00006607
     atom   91 type  4   force =    -0.00882933    0.00841634   -0.00647818
     atom   92 type  4   force =     0.00003903    0.00013827   -0.00066766
     atom   93 type  4   force =    -0.00178532   -0.00839752    0.00723974
     atom   94 type  4   force =    -0.00407756    0.00094984   -0.00075289
     atom   95 type  4   force =    -0.00522847    0.01348612    0.00744843
     atom   96 type  4   force =     0.00419920    0.00509094    0.00945530
     atom   97 type  4   force =     0.00001652    0.00040699    0.00063644
     atom   98 type  4   force =     0.04034275   -0.14102902   -0.00541758
     atom   99 type  4   force =    -0.06675013    0.00000718    0.00631947
     atom  100 type  4   force =    -0.00204989    0.00353663   -0.00254490
     atom  101 type  4   force =     0.00004136    0.00080380   -0.00088759
     atom  102 type  4   force =    -0.00615701    0.00434473   -0.00138724
     atom  103 type  4   force =    -0.04034120    0.13354734    0.00426606
     atom  104 type  4   force =    -0.00693848   -0.00988167   -0.00527901
     atom  105 type  2   force =     0.00413713   -0.00644740   -0.01780134
     atom  106 type  1   force =     0.02833422    0.01432309    0.01148341
     atom  107 type  1   force =     0.00873833   -0.00612785   -0.01389745
     atom  108 type  1   force =    -0.02846547    0.02171674    0.01862536
     atom  109 type  1   force =     0.00495651    0.01620143    0.00941036
     atom  110 type  1   force =    -0.00259815   -0.00893388   -0.00684766
     atom  111 type  1   force =    -0.00089106   -0.00943108   -0.01129544
     atom  112 type  1   force =     0.02908628    0.01748855    0.01113931
     atom  113 type  1   force =    -0.00066667   -0.00501090   -0.01368767
     atom  114 type  1   force =    -0.02964215    0.02076490    0.01840189
     atom  115 type  1   force =    -0.00708934    0.01859060    0.01209800
     atom  116 type  1   force =    -0.00553766   -0.00441681   -0.00303458
     atom  117 type  3   force =     0.01425153   -0.17388539   -0.10886240
     atom  118 type  3   force =     0.00517200   -0.00849320   -0.01251321
     atom  119 type  3   force =    -0.04465771    0.12497406   -0.00178917
     atom  120 type  3   force =     0.09506803   -0.04105363   -0.07976644
     atom  121 type  4   force =     0.00601929   -0.01720656    0.03731161
     atom  122 type  4   force =    -0.00358796    0.00383068    0.00421759
     atom  123 type  4   force =    -0.00077970    0.00266082   -0.00306655
     atom  124 type  4   force =     0.00856435    0.00208923    0.02701023
     atom  125 type  4   force =     0.00981284   -0.01699796    0.01569770
     atom  126 type  4   force =    -0.00760333    0.00106115   -0.00305472
     atom  127 type  4   force =     0.00405386    0.00973052    0.00047825
     atom  128 type  4   force =    -0.00057261   -0.00117018    0.02995630
     atom  129 type  4   force =    -0.00760022    0.02564770    0.00109649
     atom  130 type  4   force =     0.04354445   -0.14615134   -0.00192287
     atom  131 type  4   force =    -0.01759114   -0.00039402    0.00279199
     atom  132 type  4   force =     0.00320091    0.00265642    0.00196905
     atom  133 type  4   force =     0.06998216    0.00364256   -0.00195184
     atom  134 type  4   force =     0.00085748    0.00345732    0.00269665
     atom  135 type  4   force =    -0.02764821    0.17244631    0.00597265
     atom  136 type  4   force =     0.01978424   -0.00861885    0.00392689
     atom  137 type  3   force =     0.00909324   -0.16686926   -0.09428603
     atom  138 type  3   force =    -0.06469309   -0.00206042   -0.00484414
     atom  139 type  3   force =    -0.04871293    0.11825392    0.00163178
     atom  140 type  3   force =     0.03146058   -0.04325158   -0.07373957
     atom  141 type  4   force =     0.00459690   -0.01338613    0.03216333
     atom  142 type  4   force =    -0.00551135   -0.00025965    0.00407363
     atom  143 type  4   force =    -0.00812832    0.00819664   -0.00372320
     atom  144 type  4   force =     0.00393037    0.00128984    0.02760310
     atom  145 type  4   force =     0.00685939   -0.01309704    0.03212177
     atom  146 type  4   force =    -0.00882410   -0.00172768   -0.00300968
     atom  147 type  4   force =     0.00038878    0.00993962    0.00266326
     atom  148 type  4   force =    -0.00784873    0.00114347    0.02887259
     atom  149 type  4   force =    -0.01306765    0.02957921    0.00040974
     atom  150 type  4   force =     0.03989662   -0.13848423   -0.00142298
     atom  151 type  4   force =    -0.08631742   -0.00173922    0.00908500
     atom  152 type  4   force =     0.00103065    0.00388944    0.00139042
     atom  153 type  4   force =    -0.00331944    0.00082024    0.00293391
     atom  154 type  4   force =    -0.00598123    0.00581021    0.00127863
     atom  155 type  4   force =    -0.02804119    0.16662117    0.00475994
     atom  156 type  4   force =     0.01071194   -0.00972348   -0.00144885
     atom  157 type  4   force =     0.01017978    0.00810380   -0.00433728
     atom  158 type  5   force =    -0.01059971   -0.00808123    0.00374650

     Total force =     0.671698     Total SCF correction =     0.003635
 
     init_run     :      7.28s CPU      8.08s WALL (       1 calls)
     electrons    :   1635.07s CPU   1731.62s WALL (       1 calls)
     forces       :      4.15s CPU      4.60s WALL (       1 calls)
     force_london :      0.09s CPU      0.09s WALL (       1 calls)

     Called by init_run:
     wfcinit      :      4.31s CPU      4.56s WALL (       1 calls)
     potinit      :      0.56s CPU      0.76s WALL (       1 calls)
     hinit0       :      1.23s CPU      1.34s WALL (       1 calls)

     Called by electrons:
     c_bands      :   1338.58s CPU   1394.34s WALL (     118 calls)
     sum_band     :    195.95s CPU    217.85s WALL (     118 calls)
     v_of_rho     :     19.82s CPU     20.96s WALL (     119 calls)
     newd         :     55.57s CPU     73.34s WALL (     119 calls)
     mix_rho      :     23.83s CPU     24.00s WALL (     118 calls)
     energy_londo :      0.09s CPU      0.09s WALL (       1 calls)

     Called by c_bands:
     init_us_2    :      3.43s CPU      3.53s WALL (     476 calls)
     init_us_2:cp :      3.43s CPU      3.52s WALL (     476 calls)
     regterg      :   1311.95s CPU   1367.30s WALL (     243 calls)

     Called by *egterg:
     rdiaghg      :    474.78s CPU    504.85s WALL (    1443 calls)
     h_psi        :    455.18s CPU    465.77s WALL (    1445 calls)
     s_psi        :     93.96s CPU     94.00s WALL (    1445 calls)
     g_psi        :      0.67s CPU      0.67s WALL (    1200 calls)

     Called by h_psi:
     h_psi:calbec :    121.78s CPU    130.20s WALL (    1445 calls)
     vloc_psi     :    238.08s CPU    239.21s WALL (    1445 calls)
     add_vuspsi   :     94.27s CPU     95.29s WALL (    1445 calls)

     General routines
     calbec       :    175.91s CPU    188.46s WALL (    1689 calls)
     fft          :     19.38s CPU     20.96s WALL (    2155 calls)
     ffts         :     14.99s CPU     15.05s WALL (   11711 calls)
     fftw         :    270.77s CPU    272.04s WALL (  406842 calls)
     interpolate  :      1.69s CPU      1.82s WALL (     238 calls)
 
     Parallel routines
 
     PWSCF        :  27m28.56s CPU  29m 6.64s WALL

 
   This run was terminated on:   2: 9:17  20Nov2025            

=------------------------------------------------------------------------------=
   JOB DONE.
=------------------------------------------------------------------------------=
