
     Program PWSCF v.7.2 starts on 20Nov2025 at  2:36:39 

     This program is part of the open-source Quantum ESPRESSO suite
     for quantum simulation of materials; please cite
         "P. Giannozzi et al., J. Phys.:Condens. Matter 21 395502 (2009);
         "P. Giannozzi et al., J. Phys.:Condens. Matter 29 465901 (2017);
         "P. Giannozzi et al., J. Chem. Phys. 152 154105 (2020);
          URL http://www.quantum-espresso.org", 
     in publications or presentations arising from this work. More details at
     http://www.quantum-espresso.org/quote

     Parallel version (MPI), running on    64 processors

     MPI processes distributed on     4 nodes
     386384 MiB available memory on the printing compute node when the environment starts
 
     Reading input from PWINPUT_atm158_ym

     Current dimensions of program PWSCF are:
     Max number of different atomic species (ntypx) = 10
     Max number of k-points (npk) =  40000
     Max angular momentum in pseudopotentials (lmaxx) =  4
     Presently no symmetry can be used with electric field

     file Ni.pbe-n-rrkjus_psl.1.0.0.UPF: wavefunction(s)  3D renormalized
     file Mn.pbe-spn-rrkjus_psl.0.3.1.UPF: wavefunction(s)  3D renormalized
     file O.pbe-rrkjus.UPF: wavefunction(s)  2S renormalized
     file H.pbe-rrkjus.UPF: wavefunction(s)  1S renormalized

     gamma-point specific algorithms are used
 
     R & G space division:  proc/nbgrp/npool/nimage =      64
     Subspace diagonalization in iterative solution of the eigenvalue problem:
     one sub-group per band group will be used
     custom distributed-memory algorithm (size of sub-group:  6*  6 procs)

 
     Parallelization info
     --------------------
     sticks:   dense  smooth     PW     G-vecs:    dense   smooth      PW
     Min         208      82     20                59912    15118    1876
     Max         210      84     22                59974    15196    1926
     Sum       13399    5355   1345              3836275   970529  121367
 
     Using Slab Decomposition
 


     bravais-lattice index     =            0
     lattice parameter (alat)  =      17.7004  a.u.
     unit-cell volume          =   20319.7251 (a.u.)^3
     number of atoms/cell      =          158
     number of atomic types    =            5
     number of electrons       =      1078.00
     number of Kohn-Sham states=          647
     kinetic-energy cutoff     =      50.0000  Ry
     charge density cutoff     =     500.0000  Ry
     scf convergence threshold =      1.0E-06
     mixing beta               =       0.5000
     number of iterations used =            8  local-TF  mixing
     Exchange-correlation=  SLA  PW   PBE  PBE
                           (   1   4   3   4   0   0   0)

     celldm(1)=  17.700384  celldm(2)=   0.000000  celldm(3)=   0.000000
     celldm(4)=   0.000000  celldm(5)=   0.000000  celldm(6)=   0.000000

     crystal axes: (cart. coord. in units of alat)
               a(1) = (   1.000000   0.000000   0.000000 )  
               a(2) = (   0.000000   1.075730   0.000000 )  
               a(3) = (   0.000000   0.000000   3.406172 )  

     reciprocal axes: (cart. coord. in units 2 pi/alat)
               b(1) = (  1.000000  0.000000  0.000000 )  
               b(2) = (  0.000000  0.929602  0.000000 )  
               b(3) = (  0.000000  0.000000  0.293585 )  


     PseudoPot. # 1 for Ni read from file:
     ~/PSEUDO/Ni.pbe-n-rrkjus_psl.1.0.0.UPF
     MD5 check sum: Not computed, couldn't open file
     Pseudo is Ultrasoft + core correction, Zval = 10.0
     Generated using "atomic" code by A. Dal Corso  v.5.1.2
     Using radial grid of 1195 points,  6 beta functions with: 
                l(1) =   0
                l(2) =   0
                l(3) =   1
                l(4) =   1
                l(5) =   2
                l(6) =   2
     Q(r) pseudized with 0 coefficients 


     PseudoPot. # 2 for Mn read from file:
     ~/PSEUDO/Mn.pbe-spn-rrkjus_psl.0.3.1.UPF
     MD5 check sum: Not computed, couldn't open file
     Pseudo is Ultrasoft + core correction, Zval = 15.0
     Generated using &quot;atomic&quot; code by A. Dal Corso  v.6.2.2
     Using radial grid of 1187 points,  6 beta functions with: 
                l(1) =   0
                l(2) =   0
                l(3) =   1
                l(4) =   1
                l(5) =   2
                l(6) =   2
     Q(r) pseudized with 0 coefficients 


     PseudoPot. # 3 for P  read from file:
     ~/PSEUDO/P.pbe-n-rrkjus_psl.1.0.0.UPF
     MD5 check sum: Not computed, couldn't open file
     Pseudo is Ultrasoft + core correction, Zval =  5.0
     Generated using "atomic" code by A. Dal Corso  v.5.1
     Using radial grid of 1147 points,  6 beta functions with: 
                l(1) =   0
                l(2) =   0
                l(3) =   1
                l(4) =   1
                l(5) =   2
                l(6) =   2
     Q(r) pseudized with 0 coefficients 


     PseudoPot. # 4 for O  read from file:
     ~/PSEUDO/O.pbe-rrkjus.UPF
     MD5 check sum: Not computed, couldn't open file
     Pseudo is Ultrasoft, Zval =  6.0
     Generated by new atomic code, or converted to UPF format
     Using radial grid of 1269 points,  4 beta functions with: 
                l(1) =   0
                l(2) =   0
                l(3) =   1
                l(4) =   1
     Q(r) pseudized with 0 coefficients 


     PseudoPot. # 5 for H  read from file:
     ~/PSEUDO/H.pbe-rrkjus.UPF
     MD5 check sum: Not computed, couldn't open file
     Pseudo is Ultrasoft, Zval =  1.0
     Generated by new atomic code, or converted to UPF format
     Using radial grid of 1061 points,  2 beta functions with: 
                l(1) =   0
                l(2) =   0
     Q(r) pseudized with 0 coefficients 


     atomic species   valence    mass     pseudopotential
     Ni               10.00    58.69300     Ni( 1.00)
     Mn               15.00    54.93800     Mn( 1.00)
     P                 5.00    30.97300     P ( 1.00)
     O                 6.00    15.99900     O ( 1.00)
     H                 1.00     1.00790     H ( 1.00)

     Starting magnetic structure 
     atomic species   magnetization
     Ni              1.000
     Mn              1.000
     P               1.000
     O               1.000
     H               0.000

     No symmetry found



   Cartesian axes

     site n.     atom                  positions (alat units)
         1        Mn     tau(   1) = (   0.2487148   0.8375267   1.6951957  )
         2        Ni     tau(   2) = (   0.4985680   0.7741854   1.3708613  )
         3        Ni     tau(   3) = (  -0.0011545   0.3006174   1.6748188  )
         4        Ni     tau(   4) = (   0.2613034   0.2387656   1.3682654  )
         5        Ni     tau(   5) = (   0.9963341   1.0779630   1.5338071  )
         6        Ni     tau(   6) = (   0.2553410   0.5376272   1.5302552  )
         7        Ni     tau(   7) = (   0.7421076   0.8435707   1.7073254  )
         8        Ni     tau(   8) = (   0.9925505   0.7752294   1.3710528  )
         9        Ni     tau(   9) = (   0.5021333   0.2954136   1.6750756  )
        10        Ni     tau(  10) = (   0.7611689   0.2373559   1.3675061  )
        11        Ni     tau(  11) = (   0.5009702   1.0742604   1.5366496  )
        12        Ni     tau(  12) = (   0.7544547   0.5384375   1.5322894  )
        13        P      tau(  13) = (   0.2115511   0.9728651   1.3803029  )
        14        P      tau(  14) = (   0.4665848   0.6401311   1.6901980  )
        15        P      tau(  15) = (   0.2857882   0.1150193   1.6956783  )
        16        P      tau(  16) = (   0.0437806   0.4336934   1.3698950  )
        17        O      tau(  17) = (   0.1341895   0.9017796   1.5160649  )
        18        O      tau(  18) = (   0.3918354   0.7064542   1.5480543  )
        19        O      tau(  19) = (   0.3659047   0.1699051   1.5489901  )
        20        O      tau(  20) = (   0.1220478   0.3634760   1.5065536  )
        21        O      tau(  21) = (   0.1491769   0.8830546   1.2562069  )
        22        O      tau(  22) = (   0.4014483   0.7325987   1.8096174  )
        23        O      tau(  23) = (   0.3477141   0.2121598   1.8095684  )
        24        O      tau(  24) = (   0.1043448   0.3449385   1.2442231  )
        25        O      tau(  25) = (   0.1038610   0.5888479   1.3734716  )
        26        O      tau(  26) = (   0.3384087   1.0313531   1.6992469  )
        27        O      tau(  27) = (   0.3808703   0.4260931   1.3818057  )
        28        O      tau(  28) = (   0.1211112   0.1186251   1.6801879  )
        29        O      tau(  29) = (   0.1290557   0.6512937   1.6784404  )
        30        O      tau(  30) = (   0.4077914   0.4842311   1.6878311  )
        31        O      tau(  31) = (   0.1525182   0.0517135   1.3798448  )
        32        O      tau(  32) = (   0.3752655   0.9631458   1.3897289  )
        33        P      tau(  33) = (   0.7115935   0.9699435   1.3754512  )
        34        P      tau(  34) = (   0.9627941   0.6488001   1.6882550  )
        35        P      tau(  35) = (   0.7877941   0.1135143   1.6933997  )
        36        P      tau(  36) = (   0.5450057   0.4319961   1.3698026  )
        37        O      tau(  37) = (   0.6347424   0.8975550   1.5107968  )
        38        O      tau(  38) = (   0.8874360   0.7086109   1.5448689  )
        39        O      tau(  39) = (   0.8663690   0.1747348   1.5464995  )
        40        O      tau(  40) = (   0.6223636   0.3611942   1.5061123  )
        41        O      tau(  41) = (   0.6513775   0.8826145   1.2479475  )
        42        O      tau(  42) = (   0.9079471   0.7471932   1.8059270  )
        43        O      tau(  43) = (   0.8460393   0.2141480   1.8067812  )
        44        O      tau(  44) = (   0.6057326   0.3434800   1.2439494  )
        45        O      tau(  45) = (   0.6051788   0.5869386   1.3743458  )
        46        O      tau(  46) = (   0.8485507   1.0338148   1.6901252  )
        47        O      tau(  47) = (   0.8800306   0.4271144   1.3821281  )
        48        O      tau(  48) = (   0.6230808   0.1160198   1.6767091  )
        49        O      tau(  49) = (   0.6309458   0.6452848   1.6833570  )
        50        O      tau(  50) = (   0.9073287   0.4911282   1.6902526  )
        51        O      tau(  51) = (   0.6516592   0.0493454   1.3784195  )
        52        O      tau(  52) = (   0.8758524   0.9648084   1.3850114  )
        53        Mn     tau(  53) = (   0.2404744   0.8246335   1.0701417  )
        54        Ni     tau(  54) = (   0.4968126   0.7601755   0.7454373  )
        55        Ni     tau(  55) = (   0.0066150   0.2811828   1.0628866  )
        56        Ni     tau(  56) = (   0.2585722   0.2230943   0.7421070  )
        57        Ni     tau(  57) = (   0.9987350   1.0571496   0.9014992  )
        58        Ni     tau(  58) = (   0.2517397   0.5205596   0.9040596  )
        59        Ni     tau(  59) = (   0.7451645   0.8212628   1.0648168  )
        60        Ni     tau(  60) = (   0.9939181   0.7613889   0.7462324  )
        61        Ni     tau(  61) = (   0.5111533   0.2799173   1.0618053  )
        62        Ni     tau(  62) = (   0.7606326   0.2194352   0.7418547  )
        63        Ni     tau(  63) = (   0.5024065   1.0563218   0.8999416  )
        64        Ni     tau(  64) = (   0.7529977   0.5192985   0.9024691  )
        65        P      tau(  65) = (   0.2092944   0.9606182   0.7524883  )
        66        P      tau(  66) = (   0.4655727   0.6234620   1.0595283  )
        67        P      tau(  67) = (   0.2910699   0.0902448   1.0573821  )
        68        P      tau(  68) = (   0.0396216   0.4163480   0.7471080  )
        69        O      tau(  69) = (   0.1294378   0.8888345   0.8859300  )
        70        O      tau(  70) = (   0.3874505   0.6929859   0.9232915  )
        71        O      tau(  71) = (   0.3702540   0.1589885   0.9209891  )
        72        O      tau(  72) = (   0.1184398   0.3458043   0.8831565  )
        73        O      tau(  73) = (   0.1451572   0.8725966   0.6282341  )
        74        O      tau(  74) = (   0.4048762   0.7120670   1.1852426  )
        75        O      tau(  75) = (   0.3523506   0.1775664   1.1834175  )
        76        O      tau(  76) = (   0.1017610   0.3285569   0.6213347  )
        77        O      tau(  77) = (   0.0975396   0.5724373   0.7511996  )
        78        O      tau(  78) = (   0.3483552   1.0190030   1.0599597  )
        79        O      tau(  79) = (   0.3784305   0.4100203   0.7560991  )
        80        O      tau(  80) = (   0.1268237   0.0943029   1.0477175  )
        81        O      tau(  81) = (   0.1212267   0.6299255   1.0507023  )
        82        O      tau(  82) = (   0.4053315   0.4684472   1.0569297  )
        83        O      tau(  83) = (   0.1536621   0.0322003   0.7496532  )
        84        O      tau(  84) = (   0.3732349   0.9506802   0.7613277  )
        85        P      tau(  85) = (   0.7119823   0.9571059   0.7496908  )
        86        P      tau(  86) = (   0.9615208   0.6238477   1.0606987  )
        87        P      tau(  87) = (   0.7927710   0.0845145   1.0577754  )
        88        P      tau(  88) = (   0.5426404   0.4144760   0.7459181  )
        89        O      tau(  89) = (   0.6326879   0.8866267   0.8856678  )
        90        O      tau(  90) = (   0.8842163   0.6958291   0.9244764  )
        91        O      tau(  91) = (   0.8716178   0.1552836   0.9216415  )
        92        O      tau(  92) = (   0.6212010   0.3433751   0.8818834  )
        93        O      tau(  93) = (   0.6507714   0.8687427   0.6238197  )
        94        O      tau(  94) = (   0.9014054   0.7139543   1.1859242  )
        95        O      tau(  95) = (   0.8548963   0.1722994   1.1834447  )
        96        O      tau(  96) = (   0.6044469   0.3253792   0.6209553  )
        97        O      tau(  97) = (   0.6024424   0.5698225   0.7490903  )
        98        O      tau(  98) = (   0.8498940   1.0129567   1.0594762  )
        99        O      tau(  99) = (   0.8798395   0.4080910   0.7564148  )
       100        O      tau( 100) = (   0.6286921   0.0909721   1.0472573  )
       101        O      tau( 101) = (   0.6294973   0.6302838   1.0497366  )
       102        O      tau( 102) = (   0.9024339   0.4685397   1.0573501  )
       103        O      tau( 103) = (   0.6547812   0.0286072   0.7473283  )
       104        O      tau( 104) = (   0.8760507   0.9507690   0.7605412  )
       105        Mn     tau( 105) = (   0.2404744   0.8121420   0.4502541  )
       106        Ni     tau( 106) = (   0.4968126   0.7476840   0.1255496  )
       107        Ni     tau( 107) = (   0.0066150   0.2686914   0.4429989  )
       108        Ni     tau( 108) = (   0.2585722   0.2106028   0.1222194  )
       109        Ni     tau( 109) = (   0.9987350   1.0446581   0.2816116  )
       110        Ni     tau( 110) = (   0.2517397   0.5080681   0.2841720  )
       111        Ni     tau( 111) = (   0.7451645   0.8087713   0.4449291  )
       112        Ni     tau( 112) = (   0.9939181   0.7488974   0.1263448  )
       113        Ni     tau( 113) = (   0.5111533   0.2674258   0.4419177  )
       114        Ni     tau( 114) = (   0.7606326   0.2069438   0.1219670  )
       115        Ni     tau( 115) = (   0.5024065   1.0438304   0.2800540  )
       116        Ni     tau( 116) = (   0.7529977   0.5068070   0.2825815  )
       117        P      tau( 117) = (   0.2092944   0.9481267   0.1326007  )
       118        P      tau( 118) = (   0.4655727   0.6109705   0.4396407  )
       119        P      tau( 119) = (   0.2910699   0.0777534   0.4374945  )
       120        P      tau( 120) = (   0.0396216   0.4038566   0.1272204  )
       121        O      tau( 121) = (   0.1294378   0.8763430   0.2660424  )
       122        O      tau( 122) = (   0.3874505   0.6804944   0.3034039  )
       123        O      tau( 123) = (   0.3702540   0.1464970   0.3011014  )
       124        O      tau( 124) = (   0.1184398   0.3333129   0.2632689  )
       125        O      tau( 125) = (   0.1451572   0.8601051   0.0083464  )
       126        O      tau( 126) = (   0.4048762   0.6995756   0.5653550  )
       127        O      tau( 127) = (   0.3523506   0.1650749   0.5635298  )
       128        O      tau( 128) = (   0.1017610   0.3160655   0.0014470  )
       129        O      tau( 129) = (   0.0975396   0.5599458   0.1313120  )
       130        O      tau( 130) = (   0.3483552   1.0065115   0.4400720  )
       131        O      tau( 131) = (   0.3784305   0.3975288   0.1362114  )
       132        O      tau( 132) = (   0.1268237   0.0818115   0.4278298  )
       133        O      tau( 133) = (   0.1212267   0.6174340   0.4308146  )
       134        O      tau( 134) = (   0.4053315   0.4559557   0.4370420  )
       135        O      tau( 135) = (   0.1536621   0.0197088   0.1297656  )
       136        O      tau( 136) = (   0.3732349   0.9381887   0.1414400  )
       137        P      tau( 137) = (   0.7119823   0.9446144   0.1298032  )
       138        P      tau( 138) = (   0.9615208   0.6113562   0.4408111  )
       139        P      tau( 139) = (   0.7927710   0.0720230   0.4378878  )
       140        P      tau( 140) = (   0.5426404   0.4019845   0.1260304  )
       141        O      tau( 141) = (   0.6326879   0.8741353   0.2657802  )
       142        O      tau( 142) = (   0.8842163   0.6833376   0.3045887  )
       143        O      tau( 143) = (   0.8716178   0.1427921   0.3017538  )
       144        O      tau( 144) = (   0.6212010   0.3308836   0.2619957  )
       145        O      tau( 145) = (   0.6507714   0.8562512   0.0039320  )
       146        O      tau( 146) = (   0.9014054   0.7014628   0.5660366  )
       147        O      tau( 147) = (   0.8548963   0.1598079   0.5635571  )
       148        O      tau( 148) = (   0.6044469   0.3128877   0.0010676  )
       149        O      tau( 149) = (   0.6024424   0.5573310   0.1292027  )
       150        O      tau( 150) = (   0.8498940   1.0004653   0.4395886  )
       151        O      tau( 151) = (   0.8798395   0.3955995   0.1365272  )
       152        O      tau( 152) = (   0.6286921   0.0784807   0.4273696  )
       153        O      tau( 153) = (   0.6294973   0.6177923   0.4298489  )
       154        O      tau( 154) = (   0.9024339   0.4560482   0.4374624  )
       155        O      tau( 155) = (   0.6547812   0.0161158   0.1274406  )
       156        O      tau( 156) = (   0.8760507   0.9382775   0.1406535  )
       157        O      tau( 157) = (   0.6290941   0.9242713   1.8436369  )
       158        H      tau( 158) = (   0.5523937   0.8588431   1.8761737  )

     -------------------------------------------------
     Parameters for Dispersion (Grimme-D2) Correction:
     -------------------------------------------------
       atom      VdW radius       C_6     

        Ni         2.952        374.666
        Mn         2.952        374.666
        P          3.222        271.980
        O          2.536         24.284
        H          1.892          4.857

     number of k points=     1  Gaussian smearing, width (Ry)=  0.0100
                       cart. coord. in units 2pi/alat
        k(    1) = (   0.0000000   0.0000000   0.0000000), wk =   1.0000000

     Dense  grid:  1918138 G-vectors     FFT dimensions: ( 125, 135, 432)

     Smooth grid:   485265 G-vectors     FFT dimensions: (  80,  90, 288)

     Estimated max dynamical RAM per process >     320.12 MB

     Estimated total dynamical RAM >      20.01 GB
     Generating pointlists ...
     new r_m :   0.0803 (alat units)  1.4208 (a.u.) for type    1
     new r_m :   0.0869 (alat units)  1.5388 (a.u.) for type    2
     new r_m :   0.0650 (alat units)  1.1499 (a.u.) for type    3
     new r_m :   0.0437 (alat units)  0.7735 (a.u.) for type    4
     new r_m :   0.0437 (alat units)  0.7735 (a.u.) for type    5

     Initial potential from superposition of free atoms

     starting charge    1077.8900, renormalised to    1078.0000

     negative rho (up, down):  1.227E-03 4.531E-04
 
     Adding external electric field

     Computed dipole along edir(3) : 
        Dipole                1.6379 Ry au,          4.1630 Debye
        Dipole field          0.0010 Ry au, 
 
        Potential amp.       -0.1099 Ry
        Total length         54.2615 bohr
 
 
     Adding external electric field

     Computed dipole along edir(3) : 
        Dipole                1.6379 Ry au,          4.1630 Debye
        Dipole field          0.0010 Ry au, 
 
        Potential amp.       -0.1099 Ry
        Total length         54.2615 bohr
 
     Starting wfcs are  812 randomized atomic wfcs

     total cpu time spent up to now is       10.1 secs

     Self-consistent Calculation

     iteration #  1     ecut=    50.00 Ry     beta= 0.50
     Davidson diagonalization with overlap
     ethr =  1.00E-02,  avg # of iterations =  6.0

     negative rho (up, down):  2.381E+00 1.006E-05
 
     Adding external electric field

     Computed dipole along edir(3) : 
        Dipole              -23.5445 Ry au,        -59.8442 Debye
        Dipole field         -0.0146 Ry au, 
 
        Potential amp.        1.5802 Ry
        Total length         54.2615 bohr
 
 
     Adding external electric field

     Computed dipole along edir(3) : 
        Dipole              -23.5445 Ry au,        -59.8442 Debye
        Dipole field         -0.0146 Ry au, 
 
        Potential amp.        1.5802 Ry
        Total length         54.2615 bohr
 

     total cpu time spent up to now is       35.7 secs

     total energy              =   -7204.96693938 Ry
     estimated scf accuracy    <     731.45100125 Ry

     total magnetization       =   216.00 Bohr mag/cell
     absolute magnetization    =   298.18 Bohr mag/cell

     iteration #  2     ecut=    50.00 Ry     beta= 0.50
     Davidson diagonalization with overlap
     ethr =  1.00E-02,  avg # of iterations =  7.0

     negative rho (up, down):  2.324E+00 1.684E-05
 
     Adding external electric field

     Computed dipole along edir(3) : 
        Dipole               -0.3420 Ry au,         -0.8692 Debye
        Dipole field         -0.0002 Ry au, 
 
        Potential amp.        0.0230 Ry
        Total length         54.2615 bohr
 
 
     Adding external electric field

     Computed dipole along edir(3) : 
        Dipole               -0.3420 Ry au,         -0.8692 Debye
        Dipole field         -0.0002 Ry au, 
 
        Potential amp.        0.0230 Ry
        Total length         54.2615 bohr
 

     total cpu time spent up to now is       61.1 secs

     total energy              =   -7300.80873350 Ry
     estimated scf accuracy    <    7904.26318796 Ry

     total magnetization       =   121.03 Bohr mag/cell
     absolute magnetization    =   162.10 Bohr mag/cell

     iteration #  3     ecut=    50.00 Ry     beta= 0.50
     Davidson diagonalization with overlap
     ethr =  1.00E-02,  avg # of iterations =  4.5

     negative rho (up, down):  1.677E+00 6.383E-05
 
     Adding external electric field

     Computed dipole along edir(3) : 
        Dipole               -2.4206 Ry au,         -6.1525 Debye
        Dipole field         -0.0015 Ry au, 
 
        Potential amp.        0.1625 Ry
        Total length         54.2615 bohr
 
 
     Adding external electric field

     Computed dipole along edir(3) : 
        Dipole               -2.4206 Ry au,         -6.1525 Debye
        Dipole field         -0.0015 Ry au, 
 
        Potential amp.        0.1625 Ry
        Total length         54.2615 bohr
 

     total cpu time spent up to now is       77.7 secs

     total energy              =   -7363.50348079 Ry
     estimated scf accuracy    <     747.10883945 Ry

     total magnetization       =   123.31 Bohr mag/cell
     absolute magnetization    =   165.06 Bohr mag/cell

     iteration #  4     ecut=    50.00 Ry     beta= 0.50
     Davidson diagonalization with overlap
     ethr =  1.00E-02,  avg # of iterations =  2.0

     negative rho (up, down):  1.287E+00 9.453E-05
 
     Adding external electric field

     Computed dipole along edir(3) : 
        Dipole               -2.7294 Ry au,         -6.9375 Debye
        Dipole field         -0.0017 Ry au, 
 
        Potential amp.        0.1832 Ry
        Total length         54.2615 bohr
 
 
     Adding external electric field

     Computed dipole along edir(3) : 
        Dipole               -2.7294 Ry au,         -6.9375 Debye
        Dipole field         -0.0017 Ry au, 
 
        Potential amp.        0.1832 Ry
        Total length         54.2615 bohr
 

     total cpu time spent up to now is       90.5 secs

     total energy              =   -7377.42450298 Ry
     estimated scf accuracy    <     128.29168087 Ry

     total magnetization       =    84.40 Bohr mag/cell
     absolute magnetization    =   131.25 Bohr mag/cell

     iteration #  5     ecut=    50.00 Ry     beta= 0.50
     Davidson diagonalization with overlap
     ethr =  1.00E-02,  avg # of iterations =  1.0

     negative rho (up, down):  6.373E-01 5.982E-08
 
     Adding external electric field

     Computed dipole along edir(3) : 
        Dipole               -3.0397 Ry au,         -7.7262 Debye
        Dipole field         -0.0019 Ry au, 
 
        Potential amp.        0.2040 Ry
        Total length         54.2615 bohr
 
 
     Adding external electric field

     Computed dipole along edir(3) : 
        Dipole               -3.0397 Ry au,         -7.7262 Debye
        Dipole field         -0.0019 Ry au, 
 
        Potential amp.        0.2040 Ry
        Total length         54.2615 bohr
 

     total cpu time spent up to now is      101.8 secs

     total energy              =   -7388.38407199 Ry
     estimated scf accuracy    <      88.19430491 Ry

     total magnetization       =    82.13 Bohr mag/cell
     absolute magnetization    =   121.75 Bohr mag/cell

     iteration #  6     ecut=    50.00 Ry     beta= 0.50
     Davidson diagonalization with overlap
     ethr =  8.18E-03,  avg # of iterations =  1.0

     negative rho (up, down):  1.126E-01 2.184E-04
 
     Adding external electric field

     Computed dipole along edir(3) : 
        Dipole               -3.2286 Ry au,         -8.2063 Debye
        Dipole field         -0.0020 Ry au, 
 
        Potential amp.        0.2167 Ry
        Total length         54.2615 bohr
 
 
     Adding external electric field

     Computed dipole along edir(3) : 
        Dipole               -3.2286 Ry au,         -8.2063 Debye
        Dipole field         -0.0020 Ry au, 
 
        Potential amp.        0.2167 Ry
        Total length         54.2615 bohr
 

     total cpu time spent up to now is      112.8 secs

     total energy              =   -7393.73213211 Ry
     estimated scf accuracy    <      46.46562616 Ry

     total magnetization       =    82.00 Bohr mag/cell
     absolute magnetization    =   110.35 Bohr mag/cell

     iteration #  7     ecut=    50.00 Ry     beta= 0.50
     Davidson diagonalization with overlap
     ethr =  4.31E-03,  avg # of iterations =  1.5

     negative rho (up, down):  6.538E-04 4.425E-03
 
     Adding external electric field

     Computed dipole along edir(3) : 
        Dipole               -3.6709 Ry au,         -9.3305 Debye
        Dipole field         -0.0023 Ry au, 
 
        Potential amp.        0.2464 Ry
        Total length         54.2615 bohr
 
 
     Adding external electric field

     Computed dipole along edir(3) : 
        Dipole               -3.6709 Ry au,         -9.3305 Debye
        Dipole field         -0.0023 Ry au, 
 
        Potential amp.        0.2464 Ry
        Total length         54.2615 bohr
 

     total cpu time spent up to now is      124.7 secs

     total energy              =   -7396.92649041 Ry
     estimated scf accuracy    <      42.82899001 Ry

     total magnetization       =    79.98 Bohr mag/cell
     absolute magnetization    =    96.68 Bohr mag/cell

     iteration #  8     ecut=    50.00 Ry     beta= 0.50
     Davidson diagonalization with overlap
     ethr =  3.97E-03,  avg # of iterations =  1.0

     negative rho (up, down):  1.958E-04 7.411E-03
 
     Adding external electric field

     Computed dipole along edir(3) : 
        Dipole               -3.7286 Ry au,         -9.4772 Debye
        Dipole field         -0.0023 Ry au, 
 
        Potential amp.        0.2502 Ry
        Total length         54.2615 bohr
 
 
     Adding external electric field

     Computed dipole along edir(3) : 
        Dipole               -3.7286 Ry au,         -9.4772 Debye
        Dipole field         -0.0023 Ry au, 
 
        Potential amp.        0.2502 Ry
        Total length         54.2615 bohr
 

     total cpu time spent up to now is      135.6 secs

     total energy              =   -7397.34315642 Ry
     estimated scf accuracy    <      37.81067281 Ry

     total magnetization       =    74.86 Bohr mag/cell
     absolute magnetization    =    85.49 Bohr mag/cell

     iteration #  9     ecut=    50.00 Ry     beta= 0.50
     Davidson diagonalization with overlap
     ethr =  3.51E-03,  avg # of iterations =  1.5

     negative rho (up, down):  1.252E-04 7.743E-03
 
     Adding external electric field

     Computed dipole along edir(3) : 
        Dipole               -3.7434 Ry au,         -9.5147 Debye
        Dipole field         -0.0023 Ry au, 
 
        Potential amp.        0.2512 Ry
        Total length         54.2615 bohr
 
 
     Adding external electric field

     Computed dipole along edir(3) : 
        Dipole               -3.7434 Ry au,         -9.5147 Debye
        Dipole field         -0.0023 Ry au, 
 
        Potential amp.        0.2512 Ry
        Total length         54.2615 bohr
 

     total cpu time spent up to now is      147.0 secs

     total energy              =   -7397.83410813 Ry
     estimated scf accuracy    <       8.80670128 Ry

     total magnetization       =    78.46 Bohr mag/cell
     absolute magnetization    =    87.05 Bohr mag/cell

     iteration # 10     ecut=    50.00 Ry     beta= 0.50
     Davidson diagonalization with overlap
     ethr =  8.17E-04,  avg # of iterations =  6.0

     negative rho (up, down):  3.754E-04 1.897E-02
 
     Adding external electric field

     Computed dipole along edir(3) : 
        Dipole               -3.7315 Ry au,         -9.4846 Debye
        Dipole field         -0.0023 Ry au, 
 
        Potential amp.        0.2504 Ry
        Total length         54.2615 bohr
 
 
     Adding external electric field

     Computed dipole along edir(3) : 
        Dipole               -3.7315 Ry au,         -9.4846 Debye
        Dipole field         -0.0023 Ry au, 
 
        Potential amp.        0.2504 Ry
        Total length         54.2615 bohr
 

     total cpu time spent up to now is      163.4 secs

     total energy              =   -7397.90989013 Ry
     estimated scf accuracy    <      15.11962465 Ry

     total magnetization       =    79.07 Bohr mag/cell
     absolute magnetization    =    86.13 Bohr mag/cell

     iteration # 11     ecut=    50.00 Ry     beta= 0.50
     Davidson diagonalization with overlap
     ethr =  8.17E-04,  avg # of iterations =  1.5

     negative rho (up, down):  1.165E-07 2.159E-03
 
     Adding external electric field

     Computed dipole along edir(3) : 
        Dipole               -3.5446 Ry au,         -9.0096 Debye
        Dipole field         -0.0022 Ry au, 
 
        Potential amp.        0.2379 Ry
        Total length         54.2615 bohr
 
 
     Adding external electric field

     Computed dipole along edir(3) : 
        Dipole               -3.5446 Ry au,         -9.0096 Debye
        Dipole field         -0.0022 Ry au, 
 
        Potential amp.        0.2379 Ry
        Total length         54.2615 bohr
 

     total cpu time spent up to now is      174.6 secs

     total energy              =   -7397.93358639 Ry
     estimated scf accuracy    <      21.54630987 Ry

     total magnetization       =    78.45 Bohr mag/cell
     absolute magnetization    =    83.87 Bohr mag/cell

     iteration # 12     ecut=    50.00 Ry     beta= 0.50
     Davidson diagonalization with overlap
     ethr =  8.17E-04,  avg # of iterations =  1.5

     negative rho (up, down):  7.246E-09 8.178E-04
 
     Adding external electric field

     Computed dipole along edir(3) : 
        Dipole               -3.4147 Ry au,         -8.6794 Debye
        Dipole field         -0.0021 Ry au, 
 
        Potential amp.        0.2292 Ry
        Total length         54.2615 bohr
 
 
     Adding external electric field

     Computed dipole along edir(3) : 
        Dipole               -3.4147 Ry au,         -8.6794 Debye
        Dipole field         -0.0021 Ry au, 
 
        Potential amp.        0.2292 Ry
        Total length         54.2615 bohr
 

     total cpu time spent up to now is      186.3 secs

     total energy              =   -7398.05689423 Ry
     estimated scf accuracy    <       8.55992403 Ry

     total magnetization       =    75.93 Bohr mag/cell
     absolute magnetization    =    80.90 Bohr mag/cell

     iteration # 13     ecut=    50.00 Ry     beta= 0.50
     Davidson diagonalization with overlap
     ethr =  7.94E-04,  avg # of iterations =  1.5
 
     Adding external electric field

     Computed dipole along edir(3) : 
        Dipole               -3.1731 Ry au,         -8.0653 Debye
        Dipole field         -0.0020 Ry au, 
 
        Potential amp.        0.2130 Ry
        Total length         54.2615 bohr
 
 
     Adding external electric field

     Computed dipole along edir(3) : 
        Dipole               -3.1731 Ry au,         -8.0653 Debye
        Dipole field         -0.0020 Ry au, 
 
        Potential amp.        0.2130 Ry
        Total length         54.2615 bohr
 

     total cpu time spent up to now is      197.7 secs

     total energy              =   -7398.03878999 Ry
     estimated scf accuracy    <      20.04952088 Ry

     total magnetization       =    75.58 Bohr mag/cell
     absolute magnetization    =    79.86 Bohr mag/cell

     iteration # 14     ecut=    50.00 Ry     beta= 0.50
     Davidson diagonalization with overlap
     ethr =  7.94E-04,  avg # of iterations =  1.5
 
     Adding external electric field

     Computed dipole along edir(3) : 
        Dipole               -3.0534 Ry au,         -7.7610 Debye
        Dipole field         -0.0019 Ry au, 
 
        Potential amp.        0.2049 Ry
        Total length         54.2615 bohr
 
 
     Adding external electric field

     Computed dipole along edir(3) : 
        Dipole               -3.0534 Ry au,         -7.7610 Debye
        Dipole field         -0.0019 Ry au, 
 
        Potential amp.        0.2049 Ry
        Total length         54.2615 bohr
 

     total cpu time spent up to now is      209.0 secs

     total energy              =   -7397.83450383 Ry
     estimated scf accuracy    <      30.51369459 Ry

     total magnetization       =    76.52 Bohr mag/cell
     absolute magnetization    =    80.97 Bohr mag/cell

     iteration # 15     ecut=    50.00 Ry     beta= 0.50
     Davidson diagonalization with overlap
     ethr =  7.94E-04,  avg # of iterations =  1.0

     negative rho (up, down):  4.326E-06 4.603E-04
 
     Adding external electric field

     Computed dipole along edir(3) : 
        Dipole               -2.7901 Ry au,         -7.0917 Debye
        Dipole field         -0.0017 Ry au, 
 
        Potential amp.        0.1873 Ry
        Total length         54.2615 bohr
 
 
     Adding external electric field

     Computed dipole along edir(3) : 
        Dipole               -2.7901 Ry au,         -7.0917 Debye
        Dipole field         -0.0017 Ry au, 
 
        Potential amp.        0.1873 Ry
        Total length         54.2615 bohr
 

     total cpu time spent up to now is      219.5 secs

     total energy              =   -7398.14418762 Ry
     estimated scf accuracy    <      21.83563391 Ry

     total magnetization       =    76.96 Bohr mag/cell
     absolute magnetization    =    81.25 Bohr mag/cell

     iteration # 16     ecut=    50.00 Ry     beta= 0.50
     Davidson diagonalization with overlap
     ethr =  7.94E-04,  avg # of iterations =  1.5
 
     Adding external electric field

     Computed dipole along edir(3) : 
        Dipole               -2.8440 Ry au,         -7.2288 Debye
        Dipole field         -0.0018 Ry au, 
 
        Potential amp.        0.1909 Ry
        Total length         54.2615 bohr
 
 
     Adding external electric field

     Computed dipole along edir(3) : 
        Dipole               -2.8440 Ry au,         -7.2288 Debye
        Dipole field         -0.0018 Ry au, 
 
        Potential amp.        0.1909 Ry
        Total length         54.2615 bohr
 

     total cpu time spent up to now is      230.6 secs

     total energy              =   -7397.72534521 Ry
     estimated scf accuracy    <      11.90129511 Ry

     total magnetization       =    75.24 Bohr mag/cell
     absolute magnetization    =    78.02 Bohr mag/cell

     iteration # 17     ecut=    50.00 Ry     beta= 0.50
     Davidson diagonalization with overlap
     ethr =  7.94E-04,  avg # of iterations =  1.5

     negative rho (up, down):  2.748E-07 7.500E-09
 
     Adding external electric field

     Computed dipole along edir(3) : 
        Dipole               -2.7151 Ry au,         -6.9012 Debye
        Dipole field         -0.0017 Ry au, 
 
        Potential amp.        0.1822 Ry
        Total length         54.2615 bohr
 
 
     Adding external electric field

     Computed dipole along edir(3) : 
        Dipole               -2.7151 Ry au,         -6.9012 Debye
        Dipole field         -0.0017 Ry au, 
 
        Potential amp.        0.1822 Ry
        Total length         54.2615 bohr
 

     total cpu time spent up to now is      242.1 secs

     total energy              =   -7397.94972374 Ry
     estimated scf accuracy    <      10.17563192 Ry

     total magnetization       =    76.18 Bohr mag/cell
     absolute magnetization    =    79.40 Bohr mag/cell

     iteration # 18     ecut=    50.00 Ry     beta= 0.50
     Davidson diagonalization with overlap
     ethr =  7.94E-04,  avg # of iterations =  1.0

     negative rho (up, down):  8.895E-06 1.366E-04
 
     Adding external electric field

     Computed dipole along edir(3) : 
        Dipole               -2.3001 Ry au,         -5.8463 Debye
        Dipole field         -0.0014 Ry au, 
 
        Potential amp.        0.1544 Ry
        Total length         54.2615 bohr
 
 
     Adding external electric field

     Computed dipole along edir(3) : 
        Dipole               -2.3001 Ry au,         -5.8463 Debye
        Dipole field         -0.0014 Ry au, 
 
        Potential amp.        0.1544 Ry
        Total length         54.2615 bohr
 

     total cpu time spent up to now is      253.1 secs

     total energy              =   -7398.04395813 Ry
     estimated scf accuracy    <      12.15765271 Ry

     total magnetization       =    77.44 Bohr mag/cell
     absolute magnetization    =    80.38 Bohr mag/cell

     iteration # 19     ecut=    50.00 Ry     beta= 0.50
     Davidson diagonalization with overlap
     ethr =  7.94E-04,  avg # of iterations =  1.0
 
     Adding external electric field

     Computed dipole along edir(3) : 
        Dipole               -2.3858 Ry au,         -6.0642 Debye
        Dipole field         -0.0015 Ry au, 
 
        Potential amp.        0.1601 Ry
        Total length         54.2615 bohr
 
 
     Adding external electric field

     Computed dipole along edir(3) : 
        Dipole               -2.3858 Ry au,         -6.0642 Debye
        Dipole field         -0.0015 Ry au, 
 
        Potential amp.        0.1601 Ry
        Total length         54.2615 bohr
 

     total cpu time spent up to now is      263.6 secs

     total energy              =   -7398.04614095 Ry
     estimated scf accuracy    <       4.80949759 Ry

     total magnetization       =    76.43 Bohr mag/cell
     absolute magnetization    =    78.33 Bohr mag/cell

     iteration # 20     ecut=    50.00 Ry     beta= 0.50
     Davidson diagonalization with overlap
     ethr =  4.46E-04,  avg # of iterations =  1.5

     negative rho (up, down):  5.957E-08 9.845E-08
 
     Adding external electric field

     Computed dipole along edir(3) : 
        Dipole               -2.2617 Ry au,         -5.7486 Debye
        Dipole field         -0.0014 Ry au, 
 
        Potential amp.        0.1518 Ry
        Total length         54.2615 bohr
 
 
     Adding external electric field

     Computed dipole along edir(3) : 
        Dipole               -2.2617 Ry au,         -5.7486 Debye
        Dipole field         -0.0014 Ry au, 
 
        Potential amp.        0.1518 Ry
        Total length         54.2615 bohr
 

     total cpu time spent up to now is      274.8 secs

     total energy              =   -7398.03973870 Ry
     estimated scf accuracy    <       5.62017834 Ry

     total magnetization       =    76.67 Bohr mag/cell
     absolute magnetization    =    78.45 Bohr mag/cell

     iteration # 21     ecut=    50.00 Ry     beta= 0.50
     Davidson diagonalization with overlap
     ethr =  4.46E-04,  avg # of iterations =  1.0

     negative rho (up, down):  8.898E-07 1.332E-06
 
     Adding external electric field

     Computed dipole along edir(3) : 
        Dipole               -1.8540 Ry au,         -4.7124 Debye
        Dipole field         -0.0011 Ry au, 
 
        Potential amp.        0.1244 Ry
        Total length         54.2615 bohr
 
 
     Adding external electric field

     Computed dipole along edir(3) : 
        Dipole               -1.8540 Ry au,         -4.7124 Debye
        Dipole field         -0.0011 Ry au, 
 
        Potential amp.        0.1244 Ry
        Total length         54.2615 bohr
 

     total cpu time spent up to now is      285.4 secs

     total energy              =   -7397.98366321 Ry
     estimated scf accuracy    <       3.42041818 Ry

     total magnetization       =    76.90 Bohr mag/cell
     absolute magnetization    =    78.51 Bohr mag/cell

     iteration # 22     ecut=    50.00 Ry     beta= 0.50
     Davidson diagonalization with overlap
     ethr =  3.17E-04,  avg # of iterations =  1.5

     negative rho (up, down):  8.527E-08 2.166E-07
 
     Adding external electric field

     Computed dipole along edir(3) : 
        Dipole               -1.7993 Ry au,         -4.5734 Debye
        Dipole field         -0.0011 Ry au, 
 
        Potential amp.        0.1208 Ry
        Total length         54.2615 bohr
 
 
     Adding external electric field

     Computed dipole along edir(3) : 
        Dipole               -1.7993 Ry au,         -4.5734 Debye
        Dipole field         -0.0011 Ry au, 
 
        Potential amp.        0.1208 Ry
        Total length         54.2615 bohr
 

     total cpu time spent up to now is      297.1 secs

     total energy              =   -7397.98017428 Ry
     estimated scf accuracy    <       2.27857039 Ry

     total magnetization       =    76.46 Bohr mag/cell
     absolute magnetization    =    77.76 Bohr mag/cell

     iteration # 23     ecut=    50.00 Ry     beta= 0.50
     Davidson diagonalization with overlap
     ethr =  2.11E-04,  avg # of iterations =  2.0
 
     Adding external electric field

     Computed dipole along edir(3) : 
        Dipole               -1.4853 Ry au,         -3.7753 Debye
        Dipole field         -0.0009 Ry au, 
 
        Potential amp.        0.0997 Ry
        Total length         54.2615 bohr
 
 
     Adding external electric field

     Computed dipole along edir(3) : 
        Dipole               -1.4853 Ry au,         -3.7753 Debye
        Dipole field         -0.0009 Ry au, 
 
        Potential amp.        0.0997 Ry
        Total length         54.2615 bohr
 

     total cpu time spent up to now is      309.1 secs

     total energy              =   -7397.94862217 Ry
     estimated scf accuracy    <       0.89344870 Ry

     total magnetization       =    78.09 Bohr mag/cell
     absolute magnetization    =    79.28 Bohr mag/cell

     iteration # 24     ecut=    50.00 Ry     beta= 0.50
     Davidson diagonalization with overlap
     ethr =  8.29E-05,  avg # of iterations = 10.0
 
     Adding external electric field

     Computed dipole along edir(3) : 
        Dipole               -1.5402 Ry au,         -3.9149 Debye
        Dipole field         -0.0010 Ry au, 
 
        Potential amp.        0.1034 Ry
        Total length         54.2615 bohr
 
 
     Adding external electric field

     Computed dipole along edir(3) : 
        Dipole               -1.5402 Ry au,         -3.9149 Debye
        Dipole field         -0.0010 Ry au, 
 
        Potential amp.        0.1034 Ry
        Total length         54.2615 bohr
 

     total cpu time spent up to now is      329.7 secs

     total energy              =   -7397.95325778 Ry
     estimated scf accuracy    <       2.76731336 Ry

     total magnetization       =    76.33 Bohr mag/cell
     absolute magnetization    =    77.66 Bohr mag/cell

     iteration # 25     ecut=    50.00 Ry     beta= 0.50
     Davidson diagonalization with overlap
     ethr =  8.29E-05,  avg # of iterations = 11.5
 
     Adding external electric field

     Computed dipole along edir(3) : 
        Dipole               -1.4534 Ry au,         -3.6943 Debye
        Dipole field         -0.0009 Ry au, 
 
        Potential amp.        0.0975 Ry
        Total length         54.2615 bohr
 
 
     Adding external electric field

     Computed dipole along edir(3) : 
        Dipole               -1.4534 Ry au,         -3.6943 Debye
        Dipole field         -0.0009 Ry au, 
 
        Potential amp.        0.0975 Ry
        Total length         54.2615 bohr
 

     total cpu time spent up to now is      351.8 secs

     total energy              =   -7398.01384693 Ry
     estimated scf accuracy    <       0.40280654 Ry

     total magnetization       =    78.93 Bohr mag/cell
     absolute magnetization    =    80.15 Bohr mag/cell

     iteration # 26     ecut=    50.00 Ry     beta= 0.50
     Davidson diagonalization with overlap
     ethr =  3.74E-05,  avg # of iterations =  1.5
 
     Adding external electric field

     Computed dipole along edir(3) : 
        Dipole               -1.4088 Ry au,         -3.5808 Debye
        Dipole field         -0.0009 Ry au, 
 
        Potential amp.        0.0946 Ry
        Total length         54.2615 bohr
 
 
     Adding external electric field

     Computed dipole along edir(3) : 
        Dipole               -1.4088 Ry au,         -3.5808 Debye
        Dipole field         -0.0009 Ry au, 
 
        Potential amp.        0.0946 Ry
        Total length         54.2615 bohr
 

     total cpu time spent up to now is      364.0 secs

     total energy              =   -7398.02026359 Ry
     estimated scf accuracy    <       0.46069853 Ry

     total magnetization       =    79.56 Bohr mag/cell
     absolute magnetization    =    80.89 Bohr mag/cell

     iteration # 27     ecut=    50.00 Ry     beta= 0.50
     Davidson diagonalization with overlap
     ethr =  3.74E-05,  avg # of iterations =  1.0
 
     Adding external electric field

     Computed dipole along edir(3) : 
        Dipole               -1.3601 Ry au,         -3.4570 Debye
        Dipole field         -0.0008 Ry au, 
 
        Potential amp.        0.0913 Ry
        Total length         54.2615 bohr
 
 
     Adding external electric field

     Computed dipole along edir(3) : 
        Dipole               -1.3601 Ry au,         -3.4570 Debye
        Dipole field         -0.0008 Ry au, 
 
        Potential amp.        0.0913 Ry
        Total length         54.2615 bohr
 

     total cpu time spent up to now is      374.5 secs

     total energy              =   -7398.03307258 Ry
     estimated scf accuracy    <       0.29398444 Ry

     total magnetization       =    80.34 Bohr mag/cell
     absolute magnetization    =    81.67 Bohr mag/cell

     iteration # 28     ecut=    50.00 Ry     beta= 0.50
     Davidson diagonalization with overlap
     ethr =  2.73E-05,  avg # of iterations =  1.5
 
     Adding external electric field

     Computed dipole along edir(3) : 
        Dipole               -1.3356 Ry au,         -3.3948 Debye
        Dipole field         -0.0008 Ry au, 
 
        Potential amp.        0.0896 Ry
        Total length         54.2615 bohr
 
 
     Adding external electric field

     Computed dipole along edir(3) : 
        Dipole               -1.3356 Ry au,         -3.3948 Debye
        Dipole field         -0.0008 Ry au, 
 
        Potential amp.        0.0896 Ry
        Total length         54.2615 bohr
 

     total cpu time spent up to now is      385.9 secs

     total energy              =   -7398.04356800 Ry
     estimated scf accuracy    <       0.25510528 Ry

     total magnetization       =    80.38 Bohr mag/cell
     absolute magnetization    =    81.80 Bohr mag/cell

     iteration # 29     ecut=    50.00 Ry     beta= 0.50
     Davidson diagonalization with overlap
     ethr =  2.37E-05,  avg # of iterations =  1.0
 
     Adding external electric field

     Computed dipole along edir(3) : 
        Dipole               -1.2748 Ry au,         -3.2403 Debye
        Dipole field         -0.0008 Ry au, 
 
        Potential amp.        0.0856 Ry
        Total length         54.2615 bohr
 
 
     Adding external electric field

     Computed dipole along edir(3) : 
        Dipole               -1.2748 Ry au,         -3.2403 Debye
        Dipole field         -0.0008 Ry au, 
 
        Potential amp.        0.0856 Ry
        Total length         54.2615 bohr
 

     total cpu time spent up to now is      396.1 secs

     total energy              =   -7398.05145936 Ry
     estimated scf accuracy    <       0.20626199 Ry

     total magnetization       =    80.38 Bohr mag/cell
     absolute magnetization    =    81.85 Bohr mag/cell

     iteration # 30     ecut=    50.00 Ry     beta= 0.50
     Davidson diagonalization with overlap
     ethr =  1.91E-05,  avg # of iterations =  1.5
 
     Adding external electric field

     Computed dipole along edir(3) : 
        Dipole               -1.1932 Ry au,         -3.0328 Debye
        Dipole field         -0.0007 Ry au, 
 
        Potential amp.        0.0801 Ry
        Total length         54.2615 bohr
 
 
     Adding external electric field

     Computed dipole along edir(3) : 
        Dipole               -1.1932 Ry au,         -3.0328 Debye
        Dipole field         -0.0007 Ry au, 
 
        Potential amp.        0.0801 Ry
        Total length         54.2615 bohr
 

     total cpu time spent up to now is      407.5 secs

     total energy              =   -7398.05319758 Ry
     estimated scf accuracy    <       0.20673550 Ry

     total magnetization       =    80.42 Bohr mag/cell
     absolute magnetization    =    81.96 Bohr mag/cell

     iteration # 31     ecut=    50.00 Ry     beta= 0.50
     Davidson diagonalization with overlap
     ethr =  1.91E-05,  avg # of iterations =  1.5
 
     Adding external electric field

     Computed dipole along edir(3) : 
        Dipole               -1.0801 Ry au,         -2.7452 Debye
        Dipole field         -0.0007 Ry au, 
 
        Potential amp.        0.0725 Ry
        Total length         54.2615 bohr
 
 
     Adding external electric field

     Computed dipole along edir(3) : 
        Dipole               -1.0801 Ry au,         -2.7452 Debye
        Dipole field         -0.0007 Ry au, 
 
        Potential amp.        0.0725 Ry
        Total length         54.2615 bohr
 

     total cpu time spent up to now is      418.5 secs

     total energy              =   -7398.05003389 Ry
     estimated scf accuracy    <       0.16141195 Ry

     total magnetization       =    80.01 Bohr mag/cell
     absolute magnetization    =    81.59 Bohr mag/cell

     iteration # 32     ecut=    50.00 Ry     beta= 0.50
     Davidson diagonalization with overlap
     ethr =  1.50E-05,  avg # of iterations =  1.5

     negative rho (up, down):  0.000E+00 2.775E-04
 
     Adding external electric field

     Computed dipole along edir(3) : 
        Dipole               -0.9393 Ry au,         -2.3873 Debye
        Dipole field         -0.0006 Ry au, 
 
        Potential amp.        0.0630 Ry
        Total length         54.2615 bohr
 
 
     Adding external electric field

     Computed dipole along edir(3) : 
        Dipole               -0.9393 Ry au,         -2.3873 Debye
        Dipole field         -0.0006 Ry au, 
 
        Potential amp.        0.0630 Ry
        Total length         54.2615 bohr
 

     total cpu time spent up to now is      429.6 secs

     total energy              =   -7398.04784148 Ry
     estimated scf accuracy    <       0.17523414 Ry

     total magnetization       =    80.38 Bohr mag/cell
     absolute magnetization    =    81.98 Bohr mag/cell

     iteration # 33     ecut=    50.00 Ry     beta= 0.50
     Davidson diagonalization with overlap
     ethr =  1.50E-05,  avg # of iterations =  1.0
 
     Adding external electric field

     Computed dipole along edir(3) : 
        Dipole               -0.9804 Ry au,         -2.4919 Debye
        Dipole field         -0.0006 Ry au, 
 
        Potential amp.        0.0658 Ry
        Total length         54.2615 bohr
 
 
     Adding external electric field

     Computed dipole along edir(3) : 
        Dipole               -0.9804 Ry au,         -2.4919 Debye
        Dipole field         -0.0006 Ry au, 
 
        Potential amp.        0.0658 Ry
        Total length         54.2615 bohr
 

     total cpu time spent up to now is      440.3 secs

     total energy              =   -7398.05339218 Ry
     estimated scf accuracy    <       0.20322432 Ry

     total magnetization       =    80.51 Bohr mag/cell
     absolute magnetization    =    82.12 Bohr mag/cell

     iteration # 34     ecut=    50.00 Ry     beta= 0.50
     Davidson diagonalization with overlap
     ethr =  1.50E-05,  avg # of iterations =  2.0

     negative rho (up, down):  0.000E+00 1.033E-04
 
     Adding external electric field

     Computed dipole along edir(3) : 
        Dipole               -0.9381 Ry au,         -2.3845 Debye
        Dipole field         -0.0006 Ry au, 
 
        Potential amp.        0.0630 Ry
        Total length         54.2615 bohr
 
 
     Adding external electric field

     Computed dipole along edir(3) : 
        Dipole               -0.9381 Ry au,         -2.3845 Debye
        Dipole field         -0.0006 Ry au, 
 
        Potential amp.        0.0630 Ry
        Total length         54.2615 bohr
 

     total cpu time spent up to now is      452.1 secs

     total energy              =   -7398.05078476 Ry
     estimated scf accuracy    <       0.33099446 Ry

     total magnetization       =    79.90 Bohr mag/cell
     absolute magnetization    =    81.52 Bohr mag/cell

     iteration # 35     ecut=    50.00 Ry     beta= 0.50
     Davidson diagonalization with overlap
     ethr =  1.50E-05,  avg # of iterations =  1.0
 
     Adding external electric field

     Computed dipole along edir(3) : 
        Dipole               -1.1688 Ry au,         -2.9707 Debye
        Dipole field         -0.0007 Ry au, 
 
        Potential amp.        0.0784 Ry
        Total length         54.2615 bohr
 
 
     Adding external electric field

     Computed dipole along edir(3) : 
        Dipole               -1.1688 Ry au,         -2.9707 Debye
        Dipole field         -0.0007 Ry au, 
 
        Potential amp.        0.0784 Ry
        Total length         54.2615 bohr
 

     total cpu time spent up to now is      462.6 secs

     total energy              =   -7398.05415620 Ry
     estimated scf accuracy    <       0.25385910 Ry

     total magnetization       =    80.09 Bohr mag/cell
     absolute magnetization    =    81.74 Bohr mag/cell

     iteration # 36     ecut=    50.00 Ry     beta= 0.50
     Davidson diagonalization with overlap
     ethr =  1.50E-05,  avg # of iterations =  1.5
 
     Adding external electric field

     Computed dipole along edir(3) : 
        Dipole               -1.1971 Ry au,         -3.0428 Debye
        Dipole field         -0.0007 Ry au, 
 
        Potential amp.        0.0803 Ry
        Total length         54.2615 bohr
 
 
     Adding external electric field

     Computed dipole along edir(3) : 
        Dipole               -1.1971 Ry au,         -3.0428 Debye
        Dipole field         -0.0007 Ry au, 
 
        Potential amp.        0.0803 Ry
        Total length         54.2615 bohr
 

     total cpu time spent up to now is      473.9 secs

     total energy              =   -7398.05383514 Ry
     estimated scf accuracy    <       0.13824232 Ry

     total magnetization       =    80.40 Bohr mag/cell
     absolute magnetization    =    82.04 Bohr mag/cell

     iteration # 37     ecut=    50.00 Ry     beta= 0.50
     Davidson diagonalization with overlap
     ethr =  1.28E-05,  avg # of iterations =  1.0
 
     Adding external electric field

     Computed dipole along edir(3) : 
        Dipole               -1.2355 Ry au,         -3.1403 Debye
        Dipole field         -0.0008 Ry au, 
 
        Potential amp.        0.0829 Ry
        Total length         54.2615 bohr
 
 
     Adding external electric field

     Computed dipole along edir(3) : 
        Dipole               -1.2355 Ry au,         -3.1403 Debye
        Dipole field         -0.0008 Ry au, 
 
        Potential amp.        0.0829 Ry
        Total length         54.2615 bohr
 

     total cpu time spent up to now is      484.5 secs

     total energy              =   -7398.05437305 Ry
     estimated scf accuracy    <       0.18451485 Ry

     total magnetization       =    80.32 Bohr mag/cell
     absolute magnetization    =    81.97 Bohr mag/cell

     iteration # 38     ecut=    50.00 Ry     beta= 0.50
     Davidson diagonalization with overlap
     ethr =  1.28E-05,  avg # of iterations =  1.5
 
     Adding external electric field

     Computed dipole along edir(3) : 
        Dipole               -1.2842 Ry au,         -3.2641 Debye
        Dipole field         -0.0008 Ry au, 
 
        Potential amp.        0.0862 Ry
        Total length         54.2615 bohr
 
 
     Adding external electric field

     Computed dipole along edir(3) : 
        Dipole               -1.2842 Ry au,         -3.2641 Debye
        Dipole field         -0.0008 Ry au, 
 
        Potential amp.        0.0862 Ry
        Total length         54.2615 bohr
 

     total cpu time spent up to now is      495.7 secs

     total energy              =   -7398.05411092 Ry
     estimated scf accuracy    <       0.17689864 Ry

     total magnetization       =    80.15 Bohr mag/cell
     absolute magnetization    =    81.80 Bohr mag/cell

     iteration # 39     ecut=    50.00 Ry     beta= 0.50
     Davidson diagonalization with overlap
     ethr =  1.28E-05,  avg # of iterations =  1.0
 
     Adding external electric field

     Computed dipole along edir(3) : 
        Dipole               -1.2920 Ry au,         -3.2840 Debye
        Dipole field         -0.0008 Ry au, 
 
        Potential amp.        0.0867 Ry
        Total length         54.2615 bohr
 
 
     Adding external electric field

     Computed dipole along edir(3) : 
        Dipole               -1.2920 Ry au,         -3.2840 Debye
        Dipole field         -0.0008 Ry au, 
 
        Potential amp.        0.0867 Ry
        Total length         54.2615 bohr
 

     total cpu time spent up to now is      506.1 secs

     total energy              =   -7398.05455544 Ry
     estimated scf accuracy    <       0.13669509 Ry

     total magnetization       =    80.37 Bohr mag/cell
     absolute magnetization    =    82.01 Bohr mag/cell

     iteration # 40     ecut=    50.00 Ry     beta= 0.50
     Davidson diagonalization with overlap
     ethr =  1.27E-05,  avg # of iterations =  1.0
 
     Adding external electric field

     Computed dipole along edir(3) : 
        Dipole               -1.3298 Ry au,         -3.3801 Debye
        Dipole field         -0.0008 Ry au, 
 
        Potential amp.        0.0892 Ry
        Total length         54.2615 bohr
 
 
     Adding external electric field

     Computed dipole along edir(3) : 
        Dipole               -1.3298 Ry au,         -3.3801 Debye
        Dipole field         -0.0008 Ry au, 
 
        Potential amp.        0.0892 Ry
        Total length         54.2615 bohr
 

     total cpu time spent up to now is      516.4 secs

     total energy              =   -7398.05398810 Ry
     estimated scf accuracy    <       0.13670085 Ry

     total magnetization       =    80.37 Bohr mag/cell
     absolute magnetization    =    82.00 Bohr mag/cell

     iteration # 41     ecut=    50.00 Ry     beta= 0.50
     Davidson diagonalization with overlap
     ethr =  1.27E-05,  avg # of iterations =  1.0
 
     Adding external electric field

     Computed dipole along edir(3) : 
        Dipole               -1.3337 Ry au,         -3.3900 Debye
        Dipole field         -0.0008 Ry au, 
 
        Potential amp.        0.0895 Ry
        Total length         54.2615 bohr
 
 
     Adding external electric field

     Computed dipole along edir(3) : 
        Dipole               -1.3337 Ry au,         -3.3900 Debye
        Dipole field         -0.0008 Ry au, 
 
        Potential amp.        0.0895 Ry
        Total length         54.2615 bohr
 

     total cpu time spent up to now is      526.8 secs

     total energy              =   -7398.05328214 Ry
     estimated scf accuracy    <       0.12639352 Ry

     total magnetization       =    79.95 Bohr mag/cell
     absolute magnetization    =    81.57 Bohr mag/cell

     iteration # 42     ecut=    50.00 Ry     beta= 0.50
     Davidson diagonalization with overlap
     ethr =  1.17E-05,  avg # of iterations =  1.0
 
     Adding external electric field

     Computed dipole along edir(3) : 
        Dipole               -1.3317 Ry au,         -3.3848 Debye
        Dipole field         -0.0008 Ry au, 
 
        Potential amp.        0.0894 Ry
        Total length         54.2615 bohr
 
 
     Adding external electric field

     Computed dipole along edir(3) : 
        Dipole               -1.3317 Ry au,         -3.3848 Debye
        Dipole field         -0.0008 Ry au, 
 
        Potential amp.        0.0894 Ry
        Total length         54.2615 bohr
 

     total cpu time spent up to now is      537.9 secs

     total energy              =   -7398.05452829 Ry
     estimated scf accuracy    <       0.10996833 Ry

     total magnetization       =    80.40 Bohr mag/cell
     absolute magnetization    =    81.99 Bohr mag/cell

     iteration # 43     ecut=    50.00 Ry     beta= 0.50
     Davidson diagonalization with overlap
     ethr =  1.02E-05,  avg # of iterations =  1.0
 
     Adding external electric field

     Computed dipole along edir(3) : 
        Dipole               -1.3537 Ry au,         -3.4409 Debye
        Dipole field         -0.0008 Ry au, 
 
        Potential amp.        0.0909 Ry
        Total length         54.2615 bohr
 
 
     Adding external electric field

     Computed dipole along edir(3) : 
        Dipole               -1.3537 Ry au,         -3.4409 Debye
        Dipole field         -0.0008 Ry au, 
 
        Potential amp.        0.0909 Ry
        Total length         54.2615 bohr
 

     total cpu time spent up to now is      548.5 secs

     total energy              =   -7398.05495247 Ry
     estimated scf accuracy    <       0.11598286 Ry

     total magnetization       =    80.43 Bohr mag/cell
     absolute magnetization    =    81.98 Bohr mag/cell

     iteration # 44     ecut=    50.00 Ry     beta= 0.50
     Davidson diagonalization with overlap
     ethr =  1.02E-05,  avg # of iterations =  1.0
 
     Adding external electric field

     Computed dipole along edir(3) : 
        Dipole               -1.3084 Ry au,         -3.3255 Debye
        Dipole field         -0.0008 Ry au, 
 
        Potential amp.        0.0878 Ry
        Total length         54.2615 bohr
 
 
     Adding external electric field

     Computed dipole along edir(3) : 
        Dipole               -1.3084 Ry au,         -3.3255 Debye
        Dipole field         -0.0008 Ry au, 
 
        Potential amp.        0.0878 Ry
        Total length         54.2615 bohr
 

     total cpu time spent up to now is      558.8 secs

     total energy              =   -7398.05441310 Ry
     estimated scf accuracy    <       0.12042936 Ry

     total magnetization       =    80.49 Bohr mag/cell
     absolute magnetization    =    82.02 Bohr mag/cell

     iteration # 45     ecut=    50.00 Ry     beta= 0.50
     Davidson diagonalization with overlap
     ethr =  1.02E-05,  avg # of iterations =  1.0
 
     Adding external electric field

     Computed dipole along edir(3) : 
        Dipole               -1.3484 Ry au,         -3.4274 Debye
        Dipole field         -0.0008 Ry au, 
 
        Potential amp.        0.0905 Ry
        Total length         54.2615 bohr
 
 
     Adding external electric field

     Computed dipole along edir(3) : 
        Dipole               -1.3484 Ry au,         -3.4274 Debye
        Dipole field         -0.0008 Ry au, 
 
        Potential amp.        0.0905 Ry
        Total length         54.2615 bohr
 

     total cpu time spent up to now is      569.2 secs

     total energy              =   -7398.05405592 Ry
     estimated scf accuracy    <       0.12928345 Ry

     total magnetization       =    80.49 Bohr mag/cell
     absolute magnetization    =    82.03 Bohr mag/cell

     iteration # 46     ecut=    50.00 Ry     beta= 0.50
     Davidson diagonalization with overlap
     ethr =  1.02E-05,  avg # of iterations =  1.0
 
     Adding external electric field

     Computed dipole along edir(3) : 
        Dipole               -1.3068 Ry au,         -3.3214 Debye
        Dipole field         -0.0008 Ry au, 
 
        Potential amp.        0.0877 Ry
        Total length         54.2615 bohr
 
 
     Adding external electric field

     Computed dipole along edir(3) : 
        Dipole               -1.3068 Ry au,         -3.3214 Debye
        Dipole field         -0.0008 Ry au, 
 
        Potential amp.        0.0877 Ry
        Total length         54.2615 bohr
 

     total cpu time spent up to now is      579.8 secs

     total energy              =   -7398.05335072 Ry
     estimated scf accuracy    <       0.09639932 Ry

     total magnetization       =    80.50 Bohr mag/cell
     absolute magnetization    =    82.03 Bohr mag/cell

     iteration # 47     ecut=    50.00 Ry     beta= 0.50
     Davidson diagonalization with overlap
     ethr =  8.94E-06,  avg # of iterations =  1.0
 
     Adding external electric field

     Computed dipole along edir(3) : 
        Dipole               -1.3113 Ry au,         -3.3330 Debye
        Dipole field         -0.0008 Ry au, 
 
        Potential amp.        0.0880 Ry
        Total length         54.2615 bohr
 
 
     Adding external electric field

     Computed dipole along edir(3) : 
        Dipole               -1.3113 Ry au,         -3.3330 Debye
        Dipole field         -0.0008 Ry au, 
 
        Potential amp.        0.0880 Ry
        Total length         54.2615 bohr
 

     total cpu time spent up to now is      590.7 secs

     total energy              =   -7398.05399313 Ry
     estimated scf accuracy    <       0.11675418 Ry

     total magnetization       =    80.45 Bohr mag/cell
     absolute magnetization    =    81.98 Bohr mag/cell

     iteration # 48     ecut=    50.00 Ry     beta= 0.50
     Davidson diagonalization with overlap
     ethr =  8.94E-06,  avg # of iterations =  1.0
 
     Adding external electric field

     Computed dipole along edir(3) : 
        Dipole               -1.3019 Ry au,         -3.3092 Debye
        Dipole field         -0.0008 Ry au, 
 
        Potential amp.        0.0874 Ry
        Total length         54.2615 bohr
 
 
     Adding external electric field

     Computed dipole along edir(3) : 
        Dipole               -1.3019 Ry au,         -3.3092 Debye
        Dipole field         -0.0008 Ry au, 
 
        Potential amp.        0.0874 Ry
        Total length         54.2615 bohr
 

     total cpu time spent up to now is      601.4 secs

     total energy              =   -7398.05445260 Ry
     estimated scf accuracy    <       0.12296028 Ry

     total magnetization       =    80.57 Bohr mag/cell
     absolute magnetization    =    82.07 Bohr mag/cell

     iteration # 49     ecut=    50.00 Ry     beta= 0.50
     Davidson diagonalization with overlap
     ethr =  8.94E-06,  avg # of iterations =  1.0
 
     Adding external electric field

     Computed dipole along edir(3) : 
        Dipole               -1.2794 Ry au,         -3.2520 Debye
        Dipole field         -0.0008 Ry au, 
 
        Potential amp.        0.0859 Ry
        Total length         54.2615 bohr
 
 
     Adding external electric field

     Computed dipole along edir(3) : 
        Dipole               -1.2794 Ry au,         -3.2520 Debye
        Dipole field         -0.0008 Ry au, 
 
        Potential amp.        0.0859 Ry
        Total length         54.2615 bohr
 

     total cpu time spent up to now is      611.6 secs

     total energy              =   -7398.05399450 Ry
     estimated scf accuracy    <       0.14900430 Ry

     total magnetization       =    80.43 Bohr mag/cell
     absolute magnetization    =    81.96 Bohr mag/cell

     iteration # 50     ecut=    50.00 Ry     beta= 0.50
     Davidson diagonalization with overlap
     ethr =  8.94E-06,  avg # of iterations =  1.0
 
     Adding external electric field

     Computed dipole along edir(3) : 
        Dipole               -1.1663 Ry au,         -2.9645 Debye
        Dipole field         -0.0007 Ry au, 
 
        Potential amp.        0.0783 Ry
        Total length         54.2615 bohr
 
 
     Adding external electric field

     Computed dipole along edir(3) : 
        Dipole               -1.1663 Ry au,         -2.9645 Debye
        Dipole field         -0.0007 Ry au, 
 
        Potential amp.        0.0783 Ry
        Total length         54.2615 bohr
 

     total cpu time spent up to now is      622.2 secs

     total energy              =   -7398.04883709 Ry
     estimated scf accuracy    <       0.13524693 Ry

     total magnetization       =    80.36 Bohr mag/cell
     absolute magnetization    =    81.96 Bohr mag/cell

     iteration # 51     ecut=    50.00 Ry     beta= 0.50
     Davidson diagonalization with overlap
     ethr =  8.94E-06,  avg # of iterations =  2.0
 
     Adding external electric field

     Computed dipole along edir(3) : 
        Dipole               -1.0713 Ry au,         -2.7229 Debye
        Dipole field         -0.0007 Ry au, 
 
        Potential amp.        0.0719 Ry
        Total length         54.2615 bohr
 
 
     Adding external electric field

     Computed dipole along edir(3) : 
        Dipole               -1.0713 Ry au,         -2.7229 Debye
        Dipole field         -0.0007 Ry au, 
 
        Potential amp.        0.0719 Ry
        Total length         54.2615 bohr
 

     total cpu time spent up to now is      634.1 secs

     total energy              =   -7398.04757409 Ry
     estimated scf accuracy    <       0.12428451 Ry

     total magnetization       =    80.36 Bohr mag/cell
     absolute magnetization    =    81.94 Bohr mag/cell

     iteration # 52     ecut=    50.00 Ry     beta= 0.50
     Davidson diagonalization with overlap
     ethr =  8.94E-06,  avg # of iterations =  1.0
 
     Adding external electric field

     Computed dipole along edir(3) : 
        Dipole               -1.0788 Ry au,         -2.7419 Debye
        Dipole field         -0.0007 Ry au, 
 
        Potential amp.        0.0724 Ry
        Total length         54.2615 bohr
 
 
     Adding external electric field

     Computed dipole along edir(3) : 
        Dipole               -1.0788 Ry au,         -2.7419 Debye
        Dipole field         -0.0007 Ry au, 
 
        Potential amp.        0.0724 Ry
        Total length         54.2615 bohr
 

     total cpu time spent up to now is      644.7 secs

     total energy              =   -7398.04804992 Ry
     estimated scf accuracy    <       0.12874953 Ry

     total magnetization       =    80.30 Bohr mag/cell
     absolute magnetization    =    81.93 Bohr mag/cell

     iteration # 53     ecut=    50.00 Ry     beta= 0.50
     Davidson diagonalization with overlap
     ethr =  8.94E-06,  avg # of iterations =  1.0
 
     Adding external electric field

     Computed dipole along edir(3) : 
        Dipole               -1.0612 Ry au,         -2.6974 Debye
        Dipole field         -0.0007 Ry au, 
 
        Potential amp.        0.0712 Ry
        Total length         54.2615 bohr
 
 
     Adding external electric field

     Computed dipole along edir(3) : 
        Dipole               -1.0612 Ry au,         -2.6974 Debye
        Dipole field         -0.0007 Ry au, 
 
        Potential amp.        0.0712 Ry
        Total length         54.2615 bohr
 

     total cpu time spent up to now is      655.1 secs

     total energy              =   -7398.04779708 Ry
     estimated scf accuracy    <       0.13453903 Ry

     total magnetization       =    80.23 Bohr mag/cell
     absolute magnetization    =    81.85 Bohr mag/cell

     iteration # 54     ecut=    50.00 Ry     beta= 0.50
     Davidson diagonalization with overlap
     ethr =  8.94E-06,  avg # of iterations =  1.0
 
     Adding external electric field

     Computed dipole along edir(3) : 
        Dipole               -0.8710 Ry au,         -2.2138 Debye
        Dipole field         -0.0005 Ry au, 
 
        Potential amp.        0.0585 Ry
        Total length         54.2615 bohr
 
 
     Adding external electric field

     Computed dipole along edir(3) : 
        Dipole               -0.8710 Ry au,         -2.2138 Debye
        Dipole field         -0.0005 Ry au, 
 
        Potential amp.        0.0585 Ry
        Total length         54.2615 bohr
 

     total cpu time spent up to now is      665.3 secs

     total energy              =   -7398.04540763 Ry
     estimated scf accuracy    <       0.13767182 Ry

     total magnetization       =    80.20 Bohr mag/cell
     absolute magnetization    =    81.83 Bohr mag/cell

     iteration # 55     ecut=    50.00 Ry     beta= 0.50
     Davidson diagonalization with overlap
     ethr =  8.94E-06,  avg # of iterations =  2.0
 
     Adding external electric field

     Computed dipole along edir(3) : 
        Dipole               -1.1094 Ry au,         -2.8199 Debye
        Dipole field         -0.0007 Ry au, 
 
        Potential amp.        0.0745 Ry
        Total length         54.2615 bohr
 
 
     Adding external electric field

     Computed dipole along edir(3) : 
        Dipole               -1.1094 Ry au,         -2.8199 Debye
        Dipole field         -0.0007 Ry au, 
 
        Potential amp.        0.0745 Ry
        Total length         54.2615 bohr
 

     total cpu time spent up to now is      677.2 secs

     total energy              =   -7398.04933718 Ry
     estimated scf accuracy    <       0.21680958 Ry

     total magnetization       =    80.19 Bohr mag/cell
     absolute magnetization    =    81.80 Bohr mag/cell

     iteration # 56     ecut=    50.00 Ry     beta= 0.50
     Davidson diagonalization with overlap
     ethr =  8.94E-06,  avg # of iterations =  1.0
 
     Adding external electric field

     Computed dipole along edir(3) : 
        Dipole               -0.9349 Ry au,         -2.3763 Debye
        Dipole field         -0.0006 Ry au, 
 
        Potential amp.        0.0627 Ry
        Total length         54.2615 bohr
 
 
     Adding external electric field

     Computed dipole along edir(3) : 
        Dipole               -0.9349 Ry au,         -2.3763 Debye
        Dipole field         -0.0006 Ry au, 
 
        Potential amp.        0.0627 Ry
        Total length         54.2615 bohr
 

     total cpu time spent up to now is      687.7 secs

     total energy              =   -7398.04321614 Ry
     estimated scf accuracy    <       0.15864840 Ry

     total magnetization       =    79.93 Bohr mag/cell
     absolute magnetization    =    81.54 Bohr mag/cell

     iteration # 57     ecut=    50.00 Ry     beta= 0.50
     Davidson diagonalization with overlap
     ethr =  8.94E-06,  avg # of iterations =  1.0
 
     Adding external electric field

     Computed dipole along edir(3) : 
        Dipole               -1.0652 Ry au,         -2.7074 Debye
        Dipole field         -0.0007 Ry au, 
 
        Potential amp.        0.0715 Ry
        Total length         54.2615 bohr
 
 
     Adding external electric field

     Computed dipole along edir(3) : 
        Dipole               -1.0652 Ry au,         -2.7074 Debye
        Dipole field         -0.0007 Ry au, 
 
        Potential amp.        0.0715 Ry
        Total length         54.2615 bohr
 

     total cpu time spent up to now is      698.7 secs

     total energy              =   -7398.04652713 Ry
     estimated scf accuracy    <       0.15576501 Ry

     total magnetization       =    80.34 Bohr mag/cell
     absolute magnetization    =    81.96 Bohr mag/cell

     iteration # 58     ecut=    50.00 Ry     beta= 0.50
     Davidson diagonalization with overlap
     ethr =  8.94E-06,  avg # of iterations =  1.0
 
     Adding external electric field

     Computed dipole along edir(3) : 
        Dipole               -1.1483 Ry au,         -2.9188 Debye
        Dipole field         -0.0007 Ry au, 
 
        Potential amp.        0.0771 Ry
        Total length         54.2615 bohr
 
 
     Adding external electric field

     Computed dipole along edir(3) : 
        Dipole               -1.1483 Ry au,         -2.9188 Debye
        Dipole field         -0.0007 Ry au, 
 
        Potential amp.        0.0771 Ry
        Total length         54.2615 bohr
 

     total cpu time spent up to now is      708.8 secs

     total energy              =   -7398.04728218 Ry
     estimated scf accuracy    <       0.10578473 Ry

     total magnetization       =    80.44 Bohr mag/cell
     absolute magnetization    =    82.06 Bohr mag/cell

     iteration # 59     ecut=    50.00 Ry     beta= 0.50
     Davidson diagonalization with overlap
     ethr =  8.94E-06,  avg # of iterations =  1.0
 
     Adding external electric field

     Computed dipole along edir(3) : 
        Dipole               -0.9393 Ry au,         -2.3874 Debye
        Dipole field         -0.0006 Ry au, 
 
        Potential amp.        0.0630 Ry
        Total length         54.2615 bohr
 
 
     Adding external electric field

     Computed dipole along edir(3) : 
        Dipole               -0.9393 Ry au,         -2.3874 Debye
        Dipole field         -0.0006 Ry au, 
 
        Potential amp.        0.0630 Ry
        Total length         54.2615 bohr
 

     total cpu time spent up to now is      719.5 secs

     total energy              =   -7398.04505174 Ry
     estimated scf accuracy    <       0.14795829 Ry

     total magnetization       =    80.14 Bohr mag/cell
     absolute magnetization    =    81.72 Bohr mag/cell

     iteration # 60     ecut=    50.00 Ry     beta= 0.50
     Davidson diagonalization with overlap
     ethr =  8.94E-06,  avg # of iterations =  1.0
 
     Adding external electric field

     Computed dipole along edir(3) : 
        Dipole               -1.0136 Ry au,         -2.5764 Debye
        Dipole field         -0.0006 Ry au, 
 
        Potential amp.        0.0680 Ry
        Total length         54.2615 bohr
 
 
     Adding external electric field

     Computed dipole along edir(3) : 
[...]
    -5.9505  -5.9418  -5.9215  -5.9155  -5.9012  -5.8531  -5.8187  -5.8020
    -5.7768  -5.7603  -5.7413  -5.7377  -5.7088  -5.6890  -5.6709  -5.6542
    -5.6435  -5.6110  -5.6056  -5.5938  -5.5907  -5.5703  -5.5171  -5.4835
    -5.4548  -5.4254  -5.3977  -5.3782  -5.3631  -5.3533  -5.3262  -5.2548
    -5.2241  -5.2033  -5.1891  -5.1173  -5.1085  -5.0876  -5.0361  -5.0215
    -5.0092  -4.9569  -4.9238  -4.9027  -4.8811  -4.8549  -4.8435  -4.7943
    -4.7817  -4.7409  -4.7043  -4.6799  -4.6552  -4.6273  -4.5500  -4.5325
    -4.4948  -4.4832  -4.4532  -4.4359  -4.4140  -4.3847  -4.3502  -4.3378
    -4.3143  -4.2754  -4.2178  -4.1816  -4.1376  -4.1228  -4.1081  -4.0995
    -4.0488  -4.0085  -3.9920  -3.9776  -3.9471  -3.9171  -3.9002  -3.8728
    -3.8488  -3.8444  -3.7891  -3.7866  -3.7571  -3.7219  -3.7056  -3.6923
    -3.6780  -3.6533  -3.6396  -3.6309  -3.6213  -3.6028  -3.5691  -3.5271
    -3.5073  -3.5019  -3.4839  -3.4762  -3.4688  -3.4617  -3.4314  -3.4244
    -3.4177  -3.3777  -3.3547  -3.3268  -3.3115  -3.2928  -3.2501  -3.2427
    -3.2297  -3.1999  -3.1638  -3.1633  -3.1508  -3.1302  -3.1221  -3.1107
    -3.0792  -3.0739  -3.0346  -3.0001  -2.9907  -2.9774  -2.9614  -2.9209
    -2.9027  -2.8945  -2.8821  -2.8360  -2.8260  -2.8112  -2.7893  -2.7768
    -2.7603  -2.7543  -2.7426  -2.7322  -2.7224  -2.7201  -2.7092  -2.6822
    -2.6621  -2.6447  -2.6344  -2.6269  -2.6003  -2.5849  -2.5730  -2.5488
    -2.5371  -2.5067  -2.5047  -2.4848  -2.4643  -2.4494  -2.4372  -2.4276
    -2.3937  -2.3820  -2.3699  -2.3528  -2.3253  -2.2935  -2.2819  -2.2552
    -2.2472  -2.2293  -2.2006  -2.1823  -2.1744  -2.1466  -2.1174  -2.1102
    -2.0966  -2.0710  -2.0573  -2.0434  -2.0313  -2.0142  -1.9937  -1.9635
    -1.9526  -1.9377  -1.9353  -1.9265  -1.8922  -1.8839  -1.8681  -1.8493
    -1.8249  -1.7818  -1.7768  -1.7413  -1.7324  -1.7045  -1.6881  -1.6805
    -1.6695  -1.6512  -1.6464  -1.6011  -1.5945  -1.5704  -1.5265  -1.5163
    -1.5027  -1.4955  -1.4667  -1.4440  -1.4356  -1.4177  -1.3983  -1.3873
    -1.3672  -1.3458  -1.3230  -1.2828  -1.2729  -1.2472  -1.2252  -1.2006
    -1.1552  -1.1206  -1.0720  -0.9706  -0.9531  -0.9210  -0.8675  -0.8305
    -0.8102  -0.7474  -0.6470  -0.5194  -0.3771  -0.3229  -0.3067  -0.2021
     0.1315   0.1550   0.1844   0.2222   0.2521   0.2726   0.2737   0.2970
     0.3017   0.3174   0.3381   0.3406   0.3472   0.3683   0.3711   0.3723
     0.3842   0.3872   0.3991   0.4050   0.4182   0.4267   0.4300   0.4400
     0.4449   0.4512   0.4579   0.4596   0.4698   0.4730   0.4796   0.4850
     0.5031   0.5063   0.5110   0.5150   0.5208   0.5232   0.5343   0.5407
     0.5572   0.5590   0.5668   0.5695   0.5775   0.5835   0.5970   0.6030
     0.6063   0.6134   0.6204   0.6255   0.6295   0.6442   0.6583   0.6678
     0.6708   0.6781   0.6876   0.6910   0.6930   0.7041   0.7091   0.7211
     0.7321   0.7401   0.7417   0.7452   0.7558   0.7623   0.7624   0.7689
     0.7748   0.7811   0.8109   0.8173   0.8246   0.8335   0.8466   0.8537
     0.8562   0.8727   0.8770   0.8818   0.8978   0.9017   0.9083   0.9186
     0.9245   0.9323   0.9564   0.9580   0.9899   0.9977   1.0138   1.0279
     1.1376   1.1715   1.6077   1.6945   1.6996   1.7289   1.7321   1.7498
     1.7617   1.8569   1.8823   1.9015   1.9183   1.9630   1.9683   1.9887
     1.9994   2.0225   2.0416   2.0620   2.0736   2.0758   2.0951   2.1334
     2.1575   2.1730   2.1822   2.2112   2.2188   2.2543   2.2572   2.2635
     2.2777   2.2855   2.3076   2.3173   2.3261   2.3352   2.3501   2.3569
     2.3718   2.3840   2.3927   2.3956   2.4117   2.4263   2.4461   2.4866
     2.4915   2.5085   2.5166   2.5311   2.5440   2.5488   2.5693   2.5923
     2.6003   2.6102   2.6452   2.6629   2.7022   2.7304   2.7482   2.8098
     2.8280   2.8623   2.8800   2.9255   2.9286   3.3743   3.4029   3.6110
     3.6667   3.8018   3.8642   3.9465   4.0094   4.0291   4.0931   4.6093
     4.6690   4.7774   4.9003   4.9350   4.9608   5.0542   5.4391   6.3413
     6.3665   6.5158   6.6089   6.7295   6.8126   6.8492   6.9023   6.9400
     7.0511   7.0938   7.1348   7.1545   7.3426   7.3930   7.4090   7.4405
     7.5261   7.5880   7.6231   7.7089   7.7494   7.7552   7.8222   7.8509
     7.8893   7.9486   7.9679   8.0016   8.0226   8.0545   8.0812   8.1186
     8.1447   8.1768   8.1895   8.2338   8.2539   8.2796   8.3129   8.3439
     8.3672   8.4061   8.4302   8.4884   8.4923   8.5039   8.5260   8.5414
     8.5543   8.5707   8.5943   8.6073   8.6482   8.6683   8.6775   8.6887
     8.7257   8.7412   8.8049   8.8081   8.8546   8.8702   8.9143

     the Fermi energy is     1.5841 ev

!    total energy              =   -7398.02839239 Ry
     estimated scf accuracy    <       0.00000026 Ry
     smearing contrib. (-TS)   =      -0.01554760 Ry
     internal energy E=F+TS    =   -7398.01284479 Ry

     The total energy is F=E-TS. E is the sum of the following terms:
     one-electron contribution =  -91618.33845608 Ry
     hartree contribution      =   46457.56835605 Ry
     xc contribution           =   -2260.27700424 Ry
     ewald contribution        =   40024.86639462 Ry
     Dispersion Correction     =      -1.83218361 Ry
     electric field correction =       0.00004847 Ry

     total magnetization       =    80.30 Bohr mag/cell
     absolute magnetization    =    81.83 Bohr mag/cell

     convergence has been achieved in 103 iterations

     negative rho (up, down):  9.301E-04 5.485E-04

     Forces acting on atoms (cartesian axes, Ry/au):

     atom    1 type  2   force =     0.00004233   -0.00000897   -0.00007484
     atom    2 type  1   force =    -0.00034644    0.00016868   -0.00008631
     atom    3 type  1   force =    -0.00001198   -0.00064806   -0.00026482
     atom    4 type  1   force =    -0.00014144    0.00035656    0.00026002
     atom    5 type  1   force =     0.00002241    0.00030867    0.00017598
     atom    6 type  1   force =    -0.00012253   -0.00011119    0.00007858
     atom    7 type  1   force =     0.00047791    0.00081587   -0.00034438
     atom    8 type  1   force =     0.00000739   -0.00040821    0.00030455
     atom    9 type  1   force =    -0.00033858    0.00055642   -0.00015814
     atom   10 type  1   force =    -0.00010316   -0.00002216   -0.00029385
     atom   11 type  1   force =    -0.00045363   -0.00045776    0.00011014
     atom   12 type  1   force =     0.00047381    0.00027253   -0.00043340
     atom   13 type  3   force =    -0.00014519    0.00013712    0.00004581
     atom   14 type  3   force =    -0.00023947   -0.00036852   -0.00048442
     atom   15 type  3   force =     0.00014868   -0.00001359   -0.00006229
     atom   16 type  3   force =     0.00076804    0.00007942   -0.00001728
     atom   17 type  4   force =     0.00002212   -0.00022172   -0.00011237
     atom   18 type  4   force =     0.00025066    0.00010481   -0.00030190
     atom   19 type  4   force =    -0.00026377    0.00025871    0.00032613
     atom   20 type  4   force =    -0.00014513    0.00008829    0.00034000
     atom   21 type  4   force =    -0.00008314    0.00033329   -0.00009139
     atom   22 type  4   force =     0.00028005   -0.00024049    0.00002158
     atom   23 type  4   force =     0.00000672    0.00064436   -0.00028282
     atom   24 type  4   force =     0.00038159    0.00008850    0.00020627
     atom   25 type  4   force =     0.00016290   -0.00014409   -0.00005465
     atom   26 type  4   force =    -0.00018134    0.00023711    0.00002970
     atom   27 type  4   force =     0.00028159   -0.00004373   -0.00013033
     atom   28 type  4   force =    -0.00011654    0.00013594    0.00018008
     atom   29 type  4   force =    -0.00015742   -0.00023598    0.00030140
     atom   30 type  4   force =    -0.00015690   -0.00025053   -0.00030427
     atom   31 type  4   force =    -0.00005989    0.00023636   -0.00018447
     atom   32 type  4   force =    -0.00004014    0.00040082    0.00016148
     atom   33 type  3   force =    -0.00006198    0.00005887   -0.00029513
     atom   34 type  3   force =     0.00044185   -0.00010910   -0.00042233
     atom   35 type  3   force =     0.00029886    0.00012097   -0.00040279
     atom   36 type  3   force =    -0.00061478    0.00006161    0.00006568
     atom   37 type  4   force =     0.00005339   -0.00014046    0.00011618
     atom   38 type  4   force =    -0.00003219    0.00052713   -0.00002835
     atom   39 type  4   force =    -0.00019776    0.00000167    0.00094301
     atom   40 type  4   force =     0.00035578   -0.00000340   -0.00008345
     atom   41 type  4   force =    -0.00034118   -0.00002868   -0.00016893
     atom   42 type  4   force =    -0.00047187   -0.00023920   -0.00044924
     atom   43 type  4   force =    -0.00042667   -0.00023465   -0.00019719
     atom   44 type  4   force =     0.00017073    0.00012707   -0.00038650
     atom   45 type  4   force =     0.00020219    0.00005922   -0.00036216
     atom   46 type  4   force =     0.00009110   -0.00056240   -0.00031149
     atom   47 type  4   force =    -0.00022988    0.00017420   -0.00004087
     atom   48 type  4   force =     0.00035302    0.00025177    0.00006358
     atom   49 type  4   force =    -0.00008525    0.00036866    0.00021933
     atom   50 type  4   force =     0.00021788   -0.00026938    0.00005705
     atom   51 type  4   force =    -0.00003360    0.00005660    0.00014986
     atom   52 type  4   force =    -0.00002584   -0.00000763   -0.00008145
     atom   53 type  2   force =     0.00242335   -0.00380852    0.00598425
     atom   54 type  1   force =     0.00508429   -0.00225069    0.00392546
     atom   55 type  1   force =     0.00756851   -0.00387817    0.00202743
     atom   56 type  1   force =    -0.00196287    0.01034484    0.00606589
     atom   57 type  1   force =    -0.00010006    0.02313242    0.01480453
     atom   58 type  1   force =     0.00206617   -0.00333963   -0.00173042
     atom   59 type  1   force =     0.00046324   -0.00716958    0.00402572
     atom   60 type  1   force =    -0.00523285   -0.00201745    0.00484248
     atom   61 type  1   force =    -0.00189460   -0.00156450    0.00329016
     atom   62 type  1   force =    -0.00432972    0.00832265    0.00606859
     atom   63 type  1   force =    -0.01105307    0.02593129    0.01855403
     atom   64 type  1   force =    -0.00198114    0.00114291    0.00128052
     atom   65 type  3   force =     0.04623843   -0.11372900   -0.01067579
     atom   66 type  3   force =    -0.00036047   -0.00161227    0.00360924
     atom   67 type  3   force =    -0.03980883    0.12604298    0.01448861
     atom   68 type  3   force =     0.06271655   -0.00164166   -0.00320430
     atom   69 type  4   force =     0.01390384   -0.01842068    0.00386898
     atom   70 type  4   force =    -0.00105025    0.00283786   -0.00134315
     atom   71 type  4   force =    -0.00153536    0.00335936   -0.00553923
     atom   72 type  4   force =     0.00405938    0.00185974   -0.00082979
     atom   73 type  4   force =     0.00094331   -0.01154196    0.00264780
     atom   74 type  4   force =     0.00115912   -0.00013382   -0.00060215
     atom   75 type  4   force =     0.00065542    0.01361664    0.00518534
     atom   76 type  4   force =     0.00833187    0.00521076    0.00916403
     atom   77 type  4   force =     0.00708963   -0.00265831    0.00153537
     atom   78 type  4   force =     0.04441494   -0.14250332   -0.00537464
     atom   79 type  4   force =     0.00180197    0.00190840    0.00139779
     atom   80 type  4   force =     0.00022344    0.00229609   -0.00166345
     atom   81 type  4   force =     0.06794552    0.00087827   -0.00660349
     atom   82 type  4   force =     0.00031125    0.00080895   -0.00116616
     atom   83 type  4   force =    -0.03914912    0.13480983    0.00264461
     atom   84 type  4   force =    -0.00298086   -0.01099423   -0.00411543
     atom   85 type  3   force =     0.04006194   -0.12015370   -0.01809062
     atom   86 type  3   force =    -0.06378146   -0.00050349    0.00768949
     atom   87 type  3   force =    -0.04507045    0.12374042    0.01942758
     atom   88 type  3   force =    -0.00166121    0.00017379    0.00271463
     atom   89 type  4   force =     0.00900684   -0.01533613    0.00399194
     atom   90 type  4   force =    -0.00465916    0.00118705   -0.00006473
     atom   91 type  4   force =    -0.00884367    0.00840149   -0.00646586
     atom   92 type  4   force =     0.00002098    0.00015971   -0.00071310
     atom   93 type  4   force =    -0.00172796   -0.00835551    0.00732592
     atom   94 type  4   force =    -0.00411992    0.00098934   -0.00067740
     atom   95 type  4   force =    -0.00519325    0.01352181    0.00751482
     atom   96 type  4   force =     0.00413084    0.00516279    0.00956039
     atom   97 type  4   force =    -0.00002876    0.00031659    0.00063907
     atom   98 type  4   force =     0.04035809   -0.14107133   -0.00541649
     atom   99 type  4   force =    -0.06664686    0.00000773    0.00631682
     atom  100 type  4   force =    -0.00207457    0.00353522   -0.00254833
     atom  101 type  4   force =     0.00007676    0.00080284   -0.00088835
     atom  102 type  4   force =    -0.00617196    0.00431563   -0.00138972
     atom  103 type  4   force =    -0.04030092    0.13345296    0.00427571
     atom  104 type  4   force =    -0.00701545   -0.00989055   -0.00528244
     atom  105 type  2   force =     0.00414486   -0.00657579   -0.01788911
     atom  106 type  1   force =     0.02825115    0.01429579    0.01159375
     atom  107 type  1   force =     0.00868136   -0.00612945   -0.01391795
     atom  108 type  1   force =    -0.02842339    0.02171049    0.01866400
     atom  109 type  1   force =     0.00497651    0.01623097    0.00941791
     atom  110 type  1   force =    -0.00252231   -0.00887687   -0.00679619
     atom  111 type  1   force =    -0.00085204   -0.00950177   -0.01136636
     atom  112 type  1   force =     0.02916191    0.01753229    0.01129716
     atom  113 type  1   force =    -0.00065804   -0.00498218   -0.01375623
     atom  114 type  1   force =    -0.02966171    0.02074223    0.01847799
     atom  115 type  1   force =    -0.00712407    0.01862650    0.01212839
     atom  116 type  1   force =    -0.00556646   -0.00441936   -0.00294855
     atom  117 type  3   force =     0.01425736   -0.17389490   -0.10882120
     atom  118 type  3   force =     0.00516997   -0.00849326   -0.01247474
     atom  119 type  3   force =    -0.04466707    0.12498168   -0.00175548
     atom  120 type  3   force =     0.09507657   -0.04105008   -0.07972531
     atom  121 type  4   force =     0.00609265   -0.01711987    0.03722048
     atom  122 type  4   force =    -0.00352551    0.00375074    0.00436885
     atom  123 type  4   force =    -0.00085351    0.00257680   -0.00293359
     atom  124 type  4   force =     0.00851104    0.00216621    0.02691168
     atom  125 type  4   force =     0.00987266   -0.01690354    0.01593751
     atom  126 type  4   force =    -0.00754495    0.00098871   -0.00319076
     atom  127 type  4   force =     0.00397990    0.00966098    0.00036017
     atom  128 type  4   force =    -0.00061286   -0.00109620    0.03018903
     atom  129 type  4   force =    -0.00766758    0.02551454    0.00116739
     atom  130 type  4   force =     0.04345211   -0.14600679   -0.00194974
     atom  131 type  4   force =    -0.01740555   -0.00041146    0.00284491
     atom  132 type  4   force =     0.00336593    0.00265724    0.00195977
     atom  133 type  4   force =     0.06979362    0.00366373   -0.00194910
     atom  134 type  4   force =     0.00094007    0.00363741    0.00267346
     atom  135 type  4   force =    -0.02754505    0.17225511    0.00604161
     atom  136 type  4   force =     0.01959257   -0.00861908    0.00398481
     atom  137 type  3   force =     0.00909578   -0.16687935   -0.09424293
     atom  138 type  3   force =    -0.06470059   -0.00205350   -0.00480381
     atom  139 type  3   force =    -0.04871720    0.11825729    0.00166935
     atom  140 type  3   force =     0.03144705   -0.04324995   -0.07369707
     atom  141 type  4   force =     0.00464854   -0.01330774    0.03207282
     atom  142 type  4   force =    -0.00544611   -0.00033331    0.00422227
     atom  143 type  4   force =    -0.00820041    0.00810796   -0.00360028
     atom  144 type  4   force =     0.00385903    0.00137060    0.02749558
     atom  145 type  4   force =     0.00689597   -0.01300616    0.03233716
     atom  146 type  4   force =    -0.00874607   -0.00180390   -0.00313828
     atom  147 type  4   force =     0.00031543    0.00987637    0.00254498
     atom  148 type  4   force =    -0.00790429    0.00122180    0.02911650
     atom  149 type  4   force =    -0.01316778    0.02942954    0.00048985
     atom  150 type  4   force =     0.03981969   -0.13833350   -0.00144987
     atom  151 type  4   force =    -0.08615180   -0.00176016    0.00913970
     atom  152 type  4   force =     0.00119360    0.00389900    0.00137779
     atom  153 type  4   force =    -0.00350616    0.00082903    0.00292689
     atom  154 type  4   force =    -0.00590678    0.00597990    0.00126565
     atom  155 type  4   force =    -0.02794671    0.16645786    0.00482864
     atom  156 type  4   force =     0.01055600   -0.00972150   -0.00139560
     atom  157 type  4   force =    -0.00662403   -0.00624966    0.00307075
     atom  158 type  5   force =     0.00629244    0.00640129   -0.00372144

     Total force =     0.671274     Total SCF correction =     0.001741
 
     init_run     :      7.17s CPU      7.94s WALL (       1 calls)
     electrons    :   1167.67s CPU   1235.25s WALL (       1 calls)
     forces       :      3.85s CPU      4.37s WALL (       1 calls)
     force_london :      0.09s CPU      0.09s WALL (       1 calls)

     Called by init_run:
     wfcinit      :      4.20s CPU      4.39s WALL (       1 calls)
     potinit      :      0.57s CPU      0.78s WALL (       1 calls)
     hinit0       :      1.22s CPU      1.36s WALL (       1 calls)

     Called by electrons:
     c_bands      :    913.92s CPU    946.23s WALL (     103 calls)
     sum_band     :    168.52s CPU    187.53s WALL (     103 calls)
     v_of_rho     :     17.22s CPU     18.37s WALL (     104 calls)
     newd         :     47.77s CPU     62.97s WALL (     104 calls)
     mix_rho      :     19.28s CPU     19.41s WALL (     103 calls)
     energy_londo :      0.09s CPU      0.09s WALL (       1 calls)

     Called by c_bands:
     init_us_2    :      2.93s CPU      3.02s WALL (     416 calls)
     init_us_2:cp :      2.93s CPU      3.02s WALL (     416 calls)
     regterg      :    890.87s CPU    922.80s WALL (     207 calls)

     Called by *egterg:
     rdiaghg      :    251.18s CPU    264.81s WALL (     640 calls)
     h_psi        :    366.30s CPU    375.61s WALL (     642 calls)
     s_psi        :     74.72s CPU     74.75s WALL (     642 calls)
     g_psi        :      0.54s CPU      0.56s WALL (     433 calls)

     Called by h_psi:
     h_psi:calbec :     94.48s CPU    102.02s WALL (     642 calls)
     vloc_psi     :    196.01s CPU    196.88s WALL (     642 calls)
     add_vuspsi   :     74.96s CPU     75.83s WALL (     642 calls)

     General routines
     calbec       :    141.04s CPU    152.39s WALL (     856 calls)
     fft          :     16.61s CPU     18.16s WALL (    1885 calls)
     ffts         :     12.21s CPU     12.25s WALL (    9695 calls)
     fftw         :    225.38s CPU    226.33s WALL (  343372 calls)
     interpolate  :      1.45s CPU      1.57s WALL (     208 calls)
 
     Parallel routines
 
     PWSCF        :  19m40.72s CPU  20m49.88s WALL

 
   This run was terminated on:   2:57:29  20Nov2025            

=------------------------------------------------------------------------------=
   JOB DONE.
=------------------------------------------------------------------------------=
