
     Program PWSCF v.7.2 starts on 20Nov2025 at  0:42:45 

     This program is part of the open-source Quantum ESPRESSO suite
     for quantum simulation of materials; please cite
         "P. Giannozzi et al., J. Phys.:Condens. Matter 21 395502 (2009);
         "P. Giannozzi et al., J. Phys.:Condens. Matter 29 465901 (2017);
         "P. Giannozzi et al., J. Chem. Phys. 152 154105 (2020);
          URL http://www.quantum-espresso.org", 
     in publications or presentations arising from this work. More details at
     http://www.quantum-espresso.org/quote

     Parallel version (MPI), running on    64 processors

     MPI processes distributed on     4 nodes
     370289 MiB available memory on the printing compute node when the environment starts
 
     Reading input from PWINPUT_atm157_ym

     Current dimensions of program PWSCF are:
     Max number of different atomic species (ntypx) = 10
     Max number of k-points (npk) =  40000
     Max angular momentum in pseudopotentials (lmaxx) =  4
     Presently no symmetry can be used with electric field

     file Ni.pbe-n-rrkjus_psl.1.0.0.UPF: wavefunction(s)  3D renormalized
     file Mn.pbe-spn-rrkjus_psl.0.3.1.UPF: wavefunction(s)  3D renormalized
     file O.pbe-rrkjus.UPF: wavefunction(s)  2S renormalized
     file H.pbe-rrkjus.UPF: wavefunction(s)  1S renormalized

     gamma-point specific algorithms are used
 
     R & G space division:  proc/nbgrp/npool/nimage =      64
     Subspace diagonalization in iterative solution of the eigenvalue problem:
     one sub-group per band group will be used
     custom distributed-memory algorithm (size of sub-group:  6*  6 procs)

 
     Parallelization info
     --------------------
     sticks:   dense  smooth     PW     G-vecs:    dense   smooth      PW
     Min         208      82     20                59912    15118    1876
     Max         210      84     22                59974    15196    1926
     Sum       13399    5355   1345              3836275   970529  121367
 
     Using Slab Decomposition
 


     bravais-lattice index     =            0
     lattice parameter (alat)  =      17.7004  a.u.
     unit-cell volume          =   20319.7251 (a.u.)^3
     number of atoms/cell      =          158
     number of atomic types    =            5
     number of electrons       =      1078.00
     number of Kohn-Sham states=          647
     kinetic-energy cutoff     =      50.0000  Ry
     charge density cutoff     =     500.0000  Ry
     scf convergence threshold =      1.0E-06
     mixing beta               =       0.5000
     number of iterations used =            8  local-TF  mixing
     Exchange-correlation=  SLA  PW   PBE  PBE
                           (   1   4   3   4   0   0   0)

     celldm(1)=  17.700384  celldm(2)=   0.000000  celldm(3)=   0.000000
     celldm(4)=   0.000000  celldm(5)=   0.000000  celldm(6)=   0.000000

     crystal axes: (cart. coord. in units of alat)
               a(1) = (   1.000000   0.000000   0.000000 )  
               a(2) = (   0.000000   1.075730   0.000000 )  
               a(3) = (   0.000000   0.000000   3.406172 )  

     reciprocal axes: (cart. coord. in units 2 pi/alat)
               b(1) = (  1.000000  0.000000  0.000000 )  
               b(2) = (  0.000000  0.929602  0.000000 )  
               b(3) = (  0.000000  0.000000  0.293585 )  


     PseudoPot. # 1 for Ni read from file:
     ~/PSEUDO/Ni.pbe-n-rrkjus_psl.1.0.0.UPF
     MD5 check sum: Not computed, couldn't open file
     Pseudo is Ultrasoft + core correction, Zval = 10.0
     Generated using "atomic" code by A. Dal Corso  v.5.1.2
     Using radial grid of 1195 points,  6 beta functions with: 
                l(1) =   0
                l(2) =   0
                l(3) =   1
                l(4) =   1
                l(5) =   2
                l(6) =   2
     Q(r) pseudized with 0 coefficients 


     PseudoPot. # 2 for Mn read from file:
     ~/PSEUDO/Mn.pbe-spn-rrkjus_psl.0.3.1.UPF
     MD5 check sum: Not computed, couldn't open file
     Pseudo is Ultrasoft + core correction, Zval = 15.0
     Generated using &quot;atomic&quot; code by A. Dal Corso  v.6.2.2
     Using radial grid of 1187 points,  6 beta functions with: 
                l(1) =   0
                l(2) =   0
                l(3) =   1
                l(4) =   1
                l(5) =   2
                l(6) =   2
     Q(r) pseudized with 0 coefficients 


     PseudoPot. # 3 for P  read from file:
     ~/PSEUDO/P.pbe-n-rrkjus_psl.1.0.0.UPF
     MD5 check sum: Not computed, couldn't open file
     Pseudo is Ultrasoft + core correction, Zval =  5.0
     Generated using "atomic" code by A. Dal Corso  v.5.1
     Using radial grid of 1147 points,  6 beta functions with: 
                l(1) =   0
                l(2) =   0
                l(3) =   1
                l(4) =   1
                l(5) =   2
                l(6) =   2
     Q(r) pseudized with 0 coefficients 


     PseudoPot. # 4 for O  read from file:
     ~/PSEUDO/O.pbe-rrkjus.UPF
     MD5 check sum: Not computed, couldn't open file
     Pseudo is Ultrasoft, Zval =  6.0
     Generated by new atomic code, or converted to UPF format
     Using radial grid of 1269 points,  4 beta functions with: 
                l(1) =   0
                l(2) =   0
                l(3) =   1
                l(4) =   1
     Q(r) pseudized with 0 coefficients 


     PseudoPot. # 5 for H  read from file:
     ~/PSEUDO/H.pbe-rrkjus.UPF
     MD5 check sum: Not computed, couldn't open file
     Pseudo is Ultrasoft, Zval =  1.0
     Generated by new atomic code, or converted to UPF format
     Using radial grid of 1061 points,  2 beta functions with: 
                l(1) =   0
                l(2) =   0
     Q(r) pseudized with 0 coefficients 


     atomic species   valence    mass     pseudopotential
     Ni               10.00    58.69300     Ni( 1.00)
     Mn               15.00    54.93800     Mn( 1.00)
     P                 5.00    30.97300     P ( 1.00)
     O                 6.00    15.99900     O ( 1.00)
     H                 1.00     1.00790     H ( 1.00)

     Starting magnetic structure 
     atomic species   magnetization
     Ni              1.000
     Mn              1.000
     P               1.000
     O               1.000
     H               0.000

     No symmetry found



   Cartesian axes

     site n.     atom                  positions (alat units)
         1        Mn     tau(   1) = (   0.2487148   0.8375267   1.6951957  )
         2        Ni     tau(   2) = (   0.4985680   0.7741854   1.3708613  )
         3        Ni     tau(   3) = (  -0.0011545   0.3006174   1.6748188  )
         4        Ni     tau(   4) = (   0.2613034   0.2387656   1.3682654  )
         5        Ni     tau(   5) = (   0.9963341   1.0779630   1.5338071  )
         6        Ni     tau(   6) = (   0.2553410   0.5376272   1.5302552  )
         7        Ni     tau(   7) = (   0.7421076   0.8435707   1.7073254  )
         8        Ni     tau(   8) = (   0.9925505   0.7752294   1.3710528  )
         9        Ni     tau(   9) = (   0.5021333   0.2954136   1.6750756  )
        10        Ni     tau(  10) = (   0.7611689   0.2373559   1.3675061  )
        11        Ni     tau(  11) = (   0.5009702   1.0742604   1.5366496  )
        12        Ni     tau(  12) = (   0.7544547   0.5384375   1.5322894  )
        13        P      tau(  13) = (   0.2115511   0.9728651   1.3803029  )
        14        P      tau(  14) = (   0.4665848   0.6401311   1.6901980  )
        15        P      tau(  15) = (   0.2857882   0.1150193   1.6956783  )
        16        P      tau(  16) = (   0.0437806   0.4336934   1.3698950  )
        17        O      tau(  17) = (   0.1341895   0.9017796   1.5160649  )
        18        O      tau(  18) = (   0.3918354   0.7064542   1.5480543  )
        19        O      tau(  19) = (   0.3659047   0.1699051   1.5489901  )
        20        O      tau(  20) = (   0.1220478   0.3634760   1.5065536  )
        21        O      tau(  21) = (   0.1491769   0.8830546   1.2562069  )
        22        O      tau(  22) = (   0.4014483   0.7325987   1.8096174  )
        23        O      tau(  23) = (   0.3477141   0.2121598   1.8095684  )
        24        O      tau(  24) = (   0.1043448   0.3449385   1.2442231  )
        25        O      tau(  25) = (   0.1038610   0.5888479   1.3734716  )
        26        O      tau(  26) = (   0.3384087   1.0313531   1.6992469  )
        27        O      tau(  27) = (   0.3808703   0.4260931   1.3818057  )
        28        O      tau(  28) = (   0.1211112   0.1186251   1.6801879  )
        29        O      tau(  29) = (   0.1290557   0.6512937   1.6784404  )
        30        O      tau(  30) = (   0.4077914   0.4842311   1.6878311  )
        31        O      tau(  31) = (   0.1525182   0.0517135   1.3798448  )
        32        O      tau(  32) = (   0.3752655   0.9631458   1.3897289  )
        33        P      tau(  33) = (   0.7115935   0.9699435   1.3754512  )
        34        P      tau(  34) = (   0.9627941   0.6488001   1.6882550  )
        35        P      tau(  35) = (   0.7877941   0.1135143   1.6933997  )
        36        P      tau(  36) = (   0.5450057   0.4319961   1.3698026  )
        37        O      tau(  37) = (   0.6347424   0.8975550   1.5107968  )
        38        O      tau(  38) = (   0.8874360   0.7086109   1.5448689  )
        39        O      tau(  39) = (   0.8663690   0.1747348   1.5464995  )
        40        O      tau(  40) = (   0.6223636   0.3611942   1.5061123  )
        41        O      tau(  41) = (   0.6513775   0.8826145   1.2479475  )
        42        O      tau(  42) = (   0.9079471   0.7471932   1.8059270  )
        43        O      tau(  43) = (   0.8460393   0.2141480   1.8067812  )
        44        O      tau(  44) = (   0.6057326   0.3434800   1.2439494  )
        45        O      tau(  45) = (   0.6051788   0.5869386   1.3743458  )
        46        O      tau(  46) = (   0.8485507   1.0338148   1.6901252  )
        47        O      tau(  47) = (   0.8800306   0.4271144   1.3821281  )
        48        O      tau(  48) = (   0.6230808   0.1160198   1.6767091  )
        49        O      tau(  49) = (   0.6309458   0.6452848   1.6833570  )
        50        O      tau(  50) = (   0.9073287   0.4911282   1.6902526  )
        51        O      tau(  51) = (   0.6516592   0.0493454   1.3784195  )
        52        O      tau(  52) = (   0.8758524   0.9648084   1.3850114  )
        53        Mn     tau(  53) = (   0.2404744   0.8246335   1.0701417  )
        54        Ni     tau(  54) = (   0.4968126   0.7601755   0.7454373  )
        55        Ni     tau(  55) = (   0.0066150   0.2811828   1.0628866  )
        56        Ni     tau(  56) = (   0.2585722   0.2230943   0.7421070  )
        57        Ni     tau(  57) = (   0.9987350   1.0571496   0.9014992  )
        58        Ni     tau(  58) = (   0.2517397   0.5205596   0.9040596  )
        59        Ni     tau(  59) = (   0.7451645   0.8212628   1.0648168  )
        60        Ni     tau(  60) = (   0.9939181   0.7613889   0.7462324  )
        61        Ni     tau(  61) = (   0.5111533   0.2799173   1.0618053  )
        62        Ni     tau(  62) = (   0.7606326   0.2194352   0.7418547  )
        63        Ni     tau(  63) = (   0.5024065   1.0563218   0.8999416  )
        64        Ni     tau(  64) = (   0.7529977   0.5192985   0.9024691  )
        65        P      tau(  65) = (   0.2092944   0.9606182   0.7524883  )
        66        P      tau(  66) = (   0.4655727   0.6234620   1.0595283  )
        67        P      tau(  67) = (   0.2910699   0.0902448   1.0573821  )
        68        P      tau(  68) = (   0.0396216   0.4163480   0.7471080  )
        69        O      tau(  69) = (   0.1294378   0.8888345   0.8859300  )
        70        O      tau(  70) = (   0.3874505   0.6929859   0.9232915  )
        71        O      tau(  71) = (   0.3702540   0.1589885   0.9209891  )
        72        O      tau(  72) = (   0.1184398   0.3458043   0.8831565  )
        73        O      tau(  73) = (   0.1451572   0.8725966   0.6282341  )
        74        O      tau(  74) = (   0.4048762   0.7120670   1.1852426  )
        75        O      tau(  75) = (   0.3523506   0.1775664   1.1834175  )
        76        O      tau(  76) = (   0.1017610   0.3285569   0.6213347  )
        77        O      tau(  77) = (   0.0975396   0.5724373   0.7511996  )
        78        O      tau(  78) = (   0.3483552   1.0190030   1.0599597  )
        79        O      tau(  79) = (   0.3784305   0.4100203   0.7560991  )
        80        O      tau(  80) = (   0.1268237   0.0943029   1.0477175  )
        81        O      tau(  81) = (   0.1212267   0.6299255   1.0507023  )
        82        O      tau(  82) = (   0.4053315   0.4684472   1.0569297  )
        83        O      tau(  83) = (   0.1536621   0.0322003   0.7496532  )
        84        O      tau(  84) = (   0.3732349   0.9506802   0.7613277  )
        85        P      tau(  85) = (   0.7119823   0.9571059   0.7496908  )
        86        P      tau(  86) = (   0.9615208   0.6238477   1.0606987  )
        87        P      tau(  87) = (   0.7927710   0.0845145   1.0577754  )
        88        P      tau(  88) = (   0.5426404   0.4144760   0.7459181  )
        89        O      tau(  89) = (   0.6326879   0.8866267   0.8856678  )
        90        O      tau(  90) = (   0.8842163   0.6958291   0.9244764  )
        91        O      tau(  91) = (   0.8716178   0.1552836   0.9216415  )
        92        O      tau(  92) = (   0.6212010   0.3433751   0.8818834  )
        93        O      tau(  93) = (   0.6507714   0.8687427   0.6238197  )
        94        O      tau(  94) = (   0.9014054   0.7139543   1.1859242  )
        95        O      tau(  95) = (   0.8548963   0.1722994   1.1834447  )
        96        O      tau(  96) = (   0.6044469   0.3253792   0.6209553  )
        97        O      tau(  97) = (   0.6024424   0.5698225   0.7490903  )
        98        O      tau(  98) = (   0.8498940   1.0129567   1.0594762  )
        99        O      tau(  99) = (   0.8798395   0.4080910   0.7564148  )
       100        O      tau( 100) = (   0.6286921   0.0909721   1.0472573  )
       101        O      tau( 101) = (   0.6294973   0.6302838   1.0497366  )
       102        O      tau( 102) = (   0.9024339   0.4685397   1.0573501  )
       103        O      tau( 103) = (   0.6547812   0.0286072   0.7473283  )
       104        O      tau( 104) = (   0.8760507   0.9507690   0.7605412  )
       105        Mn     tau( 105) = (   0.2404744   0.8121420   0.4502541  )
       106        Ni     tau( 106) = (   0.4968126   0.7476840   0.1255496  )
       107        Ni     tau( 107) = (   0.0066150   0.2686914   0.4429989  )
       108        Ni     tau( 108) = (   0.2585722   0.2106028   0.1222194  )
       109        Ni     tau( 109) = (   0.9987350   1.0446581   0.2816116  )
       110        Ni     tau( 110) = (   0.2517397   0.5080681   0.2841720  )
       111        Ni     tau( 111) = (   0.7451645   0.8087713   0.4449291  )
       112        Ni     tau( 112) = (   0.9939181   0.7488974   0.1263448  )
       113        Ni     tau( 113) = (   0.5111533   0.2674258   0.4419177  )
       114        Ni     tau( 114) = (   0.7606326   0.2069438   0.1219670  )
       115        Ni     tau( 115) = (   0.5024065   1.0438304   0.2800540  )
       116        Ni     tau( 116) = (   0.7529977   0.5068070   0.2825815  )
       117        P      tau( 117) = (   0.2092944   0.9481267   0.1326007  )
       118        P      tau( 118) = (   0.4655727   0.6109705   0.4396407  )
       119        P      tau( 119) = (   0.2910699   0.0777534   0.4374945  )
       120        P      tau( 120) = (   0.0396216   0.4038566   0.1272204  )
       121        O      tau( 121) = (   0.1294378   0.8763430   0.2660424  )
       122        O      tau( 122) = (   0.3874505   0.6804944   0.3034039  )
       123        O      tau( 123) = (   0.3702540   0.1464970   0.3011014  )
       124        O      tau( 124) = (   0.1184398   0.3333129   0.2632689  )
       125        O      tau( 125) = (   0.1451572   0.8601051   0.0083464  )
       126        O      tau( 126) = (   0.4048762   0.6995756   0.5653550  )
       127        O      tau( 127) = (   0.3523506   0.1650749   0.5635298  )
       128        O      tau( 128) = (   0.1017610   0.3160655   0.0014470  )
       129        O      tau( 129) = (   0.0975396   0.5599458   0.1313120  )
       130        O      tau( 130) = (   0.3483552   1.0065115   0.4400720  )
       131        O      tau( 131) = (   0.3784305   0.3975288   0.1362114  )
       132        O      tau( 132) = (   0.1268237   0.0818115   0.4278298  )
       133        O      tau( 133) = (   0.1212267   0.6174340   0.4308146  )
       134        O      tau( 134) = (   0.4053315   0.4559557   0.4370420  )
       135        O      tau( 135) = (   0.1536621   0.0197088   0.1297656  )
       136        O      tau( 136) = (   0.3732349   0.9381887   0.1414400  )
       137        P      tau( 137) = (   0.7119823   0.9446144   0.1298032  )
       138        P      tau( 138) = (   0.9615208   0.6113562   0.4408111  )
       139        P      tau( 139) = (   0.7927710   0.0720230   0.4378878  )
       140        P      tau( 140) = (   0.5426404   0.4019845   0.1260304  )
       141        O      tau( 141) = (   0.6326879   0.8741353   0.2657802  )
       142        O      tau( 142) = (   0.8842163   0.6833376   0.3045887  )
       143        O      tau( 143) = (   0.8716178   0.1427921   0.3017538  )
       144        O      tau( 144) = (   0.6212010   0.3308836   0.2619957  )
       145        O      tau( 145) = (   0.6507714   0.8562512   0.0039320  )
       146        O      tau( 146) = (   0.9014054   0.7014628   0.5660366  )
       147        O      tau( 147) = (   0.8548963   0.1598079   0.5635571  )
       148        O      tau( 148) = (   0.6044469   0.3128877   0.0010676  )
       149        O      tau( 149) = (   0.6024424   0.5573310   0.1292027  )
       150        O      tau( 150) = (   0.8498940   1.0004653   0.4395886  )
       151        O      tau( 151) = (   0.8798395   0.3955995   0.1365272  )
       152        O      tau( 152) = (   0.6286921   0.0784807   0.4273696  )
       153        O      tau( 153) = (   0.6294973   0.6177923   0.4298489  )
       154        O      tau( 154) = (   0.9024339   0.4560482   0.4374624  )
       155        O      tau( 155) = (   0.6547812   0.0161158   0.1274406  )
       156        O      tau( 156) = (   0.8760507   0.9382775   0.1406535  )
       157        O      tau( 157) = (   0.6290941   0.9232037   1.8436369  )
       158        H      tau( 158) = (   0.5523937   0.8599107   1.8761737  )

     -------------------------------------------------
     Parameters for Dispersion (Grimme-D2) Correction:
     -------------------------------------------------
       atom      VdW radius       C_6     

        Ni         2.952        374.666
        Mn         2.952        374.666
        P          3.222        271.980
        O          2.536         24.284
        H          1.892          4.857

     number of k points=     1  Gaussian smearing, width (Ry)=  0.0100
                       cart. coord. in units 2pi/alat
        k(    1) = (   0.0000000   0.0000000   0.0000000), wk =   1.0000000

     Dense  grid:  1918138 G-vectors     FFT dimensions: ( 125, 135, 432)

     Smooth grid:   485265 G-vectors     FFT dimensions: (  80,  90, 288)

     Estimated max dynamical RAM per process >     320.12 MB

     Estimated total dynamical RAM >      20.01 GB
     Generating pointlists ...
     new r_m :   0.0801 (alat units)  1.4176 (a.u.) for type    1
     new r_m :   0.0869 (alat units)  1.5388 (a.u.) for type    2
     new r_m :   0.0650 (alat units)  1.1499 (a.u.) for type    3
     new r_m :   0.0432 (alat units)  0.7640 (a.u.) for type    4
     new r_m :   0.0432 (alat units)  0.7640 (a.u.) for type    5

     Initial potential from superposition of free atoms

     starting charge    1077.8900, renormalised to    1078.0000

     negative rho (up, down):  1.227E-03 4.512E-04
 
     Adding external electric field

     Computed dipole along edir(3) : 
        Dipole                1.6379 Ry au,          4.1630 Debye
        Dipole field          0.0010 Ry au, 
 
        Potential amp.       -0.1099 Ry
        Total length         54.2615 bohr
 
 
     Adding external electric field

     Computed dipole along edir(3) : 
        Dipole                1.6379 Ry au,          4.1630 Debye
        Dipole field          0.0010 Ry au, 
 
        Potential amp.       -0.1099 Ry
        Total length         54.2615 bohr
 
     Starting wfcs are  812 randomized atomic wfcs

     total cpu time spent up to now is       11.7 secs

     Self-consistent Calculation

     iteration #  1     ecut=    50.00 Ry     beta= 0.50
     Davidson diagonalization with overlap
     ethr =  1.00E-02,  avg # of iterations =  6.0

     negative rho (up, down):  2.311E+00 2.726E-06
 
     Adding external electric field

     Computed dipole along edir(3) : 
        Dipole              -24.6703 Ry au,        -62.7056 Debye
        Dipole field         -0.0153 Ry au, 
 
        Potential amp.        1.6557 Ry
        Total length         54.2615 bohr
 
 
     Adding external electric field

     Computed dipole along edir(3) : 
        Dipole              -24.6703 Ry au,        -62.7056 Debye
        Dipole field         -0.0153 Ry au, 
 
        Potential amp.        1.6557 Ry
        Total length         54.2615 bohr
 

     total cpu time spent up to now is       41.3 secs

     total energy              =   -7197.56616109 Ry
     estimated scf accuracy    <     731.43120903 Ry

     total magnetization       =   216.00 Bohr mag/cell
     absolute magnetization    =   298.16 Bohr mag/cell

     iteration #  2     ecut=    50.00 Ry     beta= 0.50
     Davidson diagonalization with overlap
     ethr =  1.00E-02,  avg # of iterations =  7.0

     negative rho (up, down):  2.411E+00 1.042E-05
 
     Adding external electric field

     Computed dipole along edir(3) : 
        Dipole                0.0389 Ry au,          0.0988 Debye
        Dipole field          0.0000 Ry au, 
 
        Potential amp.       -0.0026 Ry
        Total length         54.2615 bohr
 
 
     Adding external electric field

     Computed dipole along edir(3) : 
        Dipole                0.0389 Ry au,          0.0988 Debye
        Dipole field          0.0000 Ry au, 
 
        Potential amp.       -0.0026 Ry
        Total length         54.2615 bohr
 

     total cpu time spent up to now is       71.0 secs

     total energy              =   -7292.18632731 Ry
     estimated scf accuracy    <    9219.67259594 Ry

     total magnetization       =   105.58 Bohr mag/cell
     absolute magnetization    =   153.25 Bohr mag/cell

     iteration #  3     ecut=    50.00 Ry     beta= 0.50
     Davidson diagonalization with overlap
     ethr =  1.00E-02,  avg # of iterations =  5.5

     negative rho (up, down):  1.793E+00 8.188E-06
 
     Adding external electric field

     Computed dipole along edir(3) : 
        Dipole               -2.4264 Ry au,         -6.1674 Debye
        Dipole field         -0.0015 Ry au, 
 
        Potential amp.        0.1628 Ry
        Total length         54.2615 bohr
 
 
     Adding external electric field

     Computed dipole along edir(3) : 
        Dipole               -2.4264 Ry au,         -6.1674 Debye
        Dipole field         -0.0015 Ry au, 
 
        Potential amp.        0.1628 Ry
        Total length         54.2615 bohr
 

     total cpu time spent up to now is       90.4 secs

     total energy              =   -7362.53726419 Ry
     estimated scf accuracy    <     721.84157153 Ry

     total magnetization       =   122.71 Bohr mag/cell
     absolute magnetization    =   165.24 Bohr mag/cell

     iteration #  4     ecut=    50.00 Ry     beta= 0.50
     Davidson diagonalization with overlap
     ethr =  1.00E-02,  avg # of iterations =  3.5

     negative rho (up, down):  1.190E+00 1.580E-05
 
     Adding external electric field

     Computed dipole along edir(3) : 
        Dipole               -2.8500 Ry au,         -7.2441 Debye
        Dipole field         -0.0018 Ry au, 
 
        Potential amp.        0.1913 Ry
        Total length         54.2615 bohr
 
 
     Adding external electric field

     Computed dipole along edir(3) : 
        Dipole               -2.8500 Ry au,         -7.2441 Debye
        Dipole field         -0.0018 Ry au, 
 
        Potential amp.        0.1913 Ry
        Total length         54.2615 bohr
 

     total cpu time spent up to now is      106.6 secs

     total energy              =   -7380.12773434 Ry
     estimated scf accuracy    <      81.80281818 Ry

     total magnetization       =    84.06 Bohr mag/cell
     absolute magnetization    =   129.77 Bohr mag/cell

     iteration #  5     ecut=    50.00 Ry     beta= 0.50
     Davidson diagonalization with overlap
     ethr =  7.59E-03,  avg # of iterations =  1.5

     negative rho (up, down):  5.006E-01 2.118E-06
 
     Adding external electric field

     Computed dipole along edir(3) : 
        Dipole               -3.1918 Ry au,         -8.1127 Debye
        Dipole field         -0.0020 Ry au, 
 
        Potential amp.        0.2142 Ry
        Total length         54.2615 bohr
 
 
     Adding external electric field

     Computed dipole along edir(3) : 
        Dipole               -3.1918 Ry au,         -8.1127 Debye
        Dipole field         -0.0020 Ry au, 
 
        Potential amp.        0.2142 Ry
        Total length         54.2615 bohr
 

     total cpu time spent up to now is      120.5 secs

     total energy              =   -7389.67943348 Ry
     estimated scf accuracy    <      77.21527044 Ry

     total magnetization       =    82.00 Bohr mag/cell
     absolute magnetization    =   118.26 Bohr mag/cell

     iteration #  6     ecut=    50.00 Ry     beta= 0.50
     Davidson diagonalization with overlap
     ethr =  7.16E-03,  avg # of iterations =  1.0

     negative rho (up, down):  3.158E-01 3.417E-07
 
     Adding external electric field

     Computed dipole along edir(3) : 
        Dipole               -3.4929 Ry au,         -8.8781 Debye
        Dipole field         -0.0022 Ry au, 
 
        Potential amp.        0.2344 Ry
        Total length         54.2615 bohr
 
 
     Adding external electric field

     Computed dipole along edir(3) : 
        Dipole               -3.4929 Ry au,         -8.8781 Debye
        Dipole field         -0.0022 Ry au, 
 
        Potential amp.        0.2344 Ry
        Total length         54.2615 bohr
 

     total cpu time spent up to now is      133.6 secs

     total energy              =   -7392.47824991 Ry
     estimated scf accuracy    <      39.68331461 Ry

     total magnetization       =    80.90 Bohr mag/cell
     absolute magnetization    =   105.85 Bohr mag/cell

     iteration #  7     ecut=    50.00 Ry     beta= 0.50
     Davidson diagonalization with overlap
     ethr =  3.68E-03,  avg # of iterations =  1.5

     negative rho (up, down):  2.104E-05 3.775E-03
 
     Adding external electric field

     Computed dipole along edir(3) : 
        Dipole               -3.9880 Ry au,        -10.1364 Debye
        Dipole field         -0.0025 Ry au, 
 
        Potential amp.        0.2676 Ry
        Total length         54.2615 bohr
 
 
     Adding external electric field

     Computed dipole along edir(3) : 
        Dipole               -3.9880 Ry au,        -10.1364 Debye
        Dipole field         -0.0025 Ry au, 
 
        Potential amp.        0.2676 Ry
        Total length         54.2615 bohr
 

     total cpu time spent up to now is      148.0 secs

     total energy              =   -7396.09417598 Ry
     estimated scf accuracy    <      41.75450539 Ry

     total magnetization       =    81.96 Bohr mag/cell
     absolute magnetization    =   102.54 Bohr mag/cell

     iteration #  8     ecut=    50.00 Ry     beta= 0.50
     Davidson diagonalization with overlap
     ethr =  3.68E-03,  avg # of iterations =  1.0

     negative rho (up, down):  2.767E-07 9.568E-03
 
     Adding external electric field

     Computed dipole along edir(3) : 
        Dipole               -3.9598 Ry au,        -10.0648 Debye
        Dipole field         -0.0024 Ry au, 
 
        Potential amp.        0.2658 Ry
        Total length         54.2615 bohr
 
 
     Adding external electric field

     Computed dipole along edir(3) : 
        Dipole               -3.9598 Ry au,        -10.0648 Debye
        Dipole field         -0.0024 Ry au, 
 
        Potential amp.        0.2658 Ry
        Total length         54.2615 bohr
 

     total cpu time spent up to now is      160.3 secs

     total energy              =   -7397.26444095 Ry
     estimated scf accuracy    <      41.65035731 Ry

     total magnetization       =    76.04 Bohr mag/cell
     absolute magnetization    =    86.63 Bohr mag/cell

     iteration #  9     ecut=    50.00 Ry     beta= 0.50
     Davidson diagonalization with overlap
     ethr =  3.68E-03,  avg # of iterations =  1.0

     negative rho (up, down):  2.453E-07 1.156E-02
 
     Adding external electric field

     Computed dipole along edir(3) : 
        Dipole               -4.0038 Ry au,        -10.1766 Debye
        Dipole field         -0.0025 Ry au, 
 
        Potential amp.        0.2687 Ry
        Total length         54.2615 bohr
 
 
     Adding external electric field

     Computed dipole along edir(3) : 
        Dipole               -4.0038 Ry au,        -10.1766 Debye
        Dipole field         -0.0025 Ry au, 
 
        Potential amp.        0.2687 Ry
        Total length         54.2615 bohr
 

     total cpu time spent up to now is      172.9 secs

     total energy              =   -7397.84856963 Ry
     estimated scf accuracy    <      10.60445970 Ry

     total magnetization       =    78.82 Bohr mag/cell
     absolute magnetization    =    87.19 Bohr mag/cell

     iteration # 10     ecut=    50.00 Ry     beta= 0.50
     Davidson diagonalization with overlap
     ethr =  9.84E-04,  avg # of iterations =  2.0

     negative rho (up, down):  7.648E-07 1.829E-02
 
     Adding external electric field

     Computed dipole along edir(3) : 
        Dipole               -4.0133 Ry au,        -10.2008 Debye
        Dipole field         -0.0025 Ry au, 
 
        Potential amp.        0.2693 Ry
        Total length         54.2615 bohr
 
 
     Adding external electric field

     Computed dipole along edir(3) : 
        Dipole               -4.0133 Ry au,        -10.2008 Debye
        Dipole field         -0.0025 Ry au, 
 
        Potential amp.        0.2693 Ry
        Total length         54.2615 bohr
 

     total cpu time spent up to now is      186.9 secs

     total energy              =   -7398.02676169 Ry
     estimated scf accuracy    <       4.20417729 Ry

     total magnetization       =    79.36 Bohr mag/cell
     absolute magnetization    =    86.36 Bohr mag/cell

     iteration # 11     ecut=    50.00 Ry     beta= 0.50
     Davidson diagonalization with overlap
     ethr =  3.90E-04,  avg # of iterations =  6.5

     negative rho (up, down):  1.573E-08 2.409E-03
 
     Adding external electric field

     Computed dipole along edir(3) : 
        Dipole               -3.7210 Ry au,         -9.4577 Debye
        Dipole field         -0.0023 Ry au, 
 
        Potential amp.        0.2497 Ry
        Total length         54.2615 bohr
 
 
     Adding external electric field

     Computed dipole along edir(3) : 
        Dipole               -3.7210 Ry au,         -9.4577 Debye
        Dipole field         -0.0023 Ry au, 
 
        Potential amp.        0.2497 Ry
        Total length         54.2615 bohr
 

     total cpu time spent up to now is      207.4 secs

     total energy              =   -7398.06862603 Ry
     estimated scf accuracy    <      10.82950253 Ry

     total magnetization       =    78.45 Bohr mag/cell
     absolute magnetization    =    83.69 Bohr mag/cell

     iteration # 12     ecut=    50.00 Ry     beta= 0.50
     Davidson diagonalization with overlap
     ethr =  3.90E-04,  avg # of iterations =  1.5

     negative rho (up, down):  4.886E-08 1.249E-03
 
     Adding external electric field

     Computed dipole along edir(3) : 
        Dipole               -3.8597 Ry au,         -9.8103 Debye
        Dipole field         -0.0024 Ry au, 
 
        Potential amp.        0.2590 Ry
        Total length         54.2615 bohr
 
 
     Adding external electric field

     Computed dipole along edir(3) : 
        Dipole               -3.8597 Ry au,         -9.8103 Debye
        Dipole field         -0.0024 Ry au, 
 
        Potential amp.        0.2590 Ry
        Total length         54.2615 bohr
 

     total cpu time spent up to now is      221.0 secs

     total energy              =   -7398.18093762 Ry
     estimated scf accuracy    <      29.33856265 Ry

     total magnetization       =    77.23 Bohr mag/cell
     absolute magnetization    =    80.83 Bohr mag/cell

     iteration # 13     ecut=    50.00 Ry     beta= 0.50
     Davidson diagonalization with overlap
     ethr =  3.90E-04,  avg # of iterations =  1.5

     negative rho (up, down):  4.537E-07 9.062E-04
 
     Adding external electric field

     Computed dipole along edir(3) : 
        Dipole               -3.7797 Ry au,         -9.6070 Debye
        Dipole field         -0.0023 Ry au, 
 
        Potential amp.        0.2537 Ry
        Total length         54.2615 bohr
 
 
     Adding external electric field

     Computed dipole along edir(3) : 
        Dipole               -3.7797 Ry au,         -9.6070 Debye
        Dipole field         -0.0023 Ry au, 
 
        Potential amp.        0.2537 Ry
        Total length         54.2615 bohr
 

     total cpu time spent up to now is      235.0 secs

     total energy              =   -7398.51433147 Ry
     estimated scf accuracy    <      71.21546459 Ry

     total magnetization       =    76.59 Bohr mag/cell
     absolute magnetization    =    81.57 Bohr mag/cell

     iteration # 14     ecut=    50.00 Ry     beta= 0.50
     Davidson diagonalization with overlap
     ethr =  3.90E-04,  avg # of iterations =  1.5

     negative rho (up, down):  4.802E-08 7.930E-03
 
     Adding external electric field

     Computed dipole along edir(3) : 
        Dipole               -3.6705 Ry au,         -9.3296 Debye
        Dipole field         -0.0023 Ry au, 
 
        Potential amp.        0.2463 Ry
        Total length         54.2615 bohr
 
 
     Adding external electric field

     Computed dipole along edir(3) : 
        Dipole               -3.6705 Ry au,         -9.3296 Debye
        Dipole field         -0.0023 Ry au, 
 
        Potential amp.        0.2463 Ry
        Total length         54.2615 bohr
 

     total cpu time spent up to now is      249.3 secs

     total energy              =   -7398.27924804 Ry
     estimated scf accuracy    <      66.55611411 Ry

     total magnetization       =    77.53 Bohr mag/cell
     absolute magnetization    =    82.33 Bohr mag/cell

     iteration # 15     ecut=    50.00 Ry     beta= 0.50
     Davidson diagonalization with overlap
     ethr =  3.90E-04,  avg # of iterations =  1.5

     negative rho (up, down):  3.286E-06 3.063E-03
 
     Adding external electric field

     Computed dipole along edir(3) : 
        Dipole               -3.5771 Ry au,         -9.0921 Debye
        Dipole field         -0.0022 Ry au, 
 
        Potential amp.        0.2401 Ry
        Total length         54.2615 bohr
 
 
     Adding external electric field

     Computed dipole along edir(3) : 
        Dipole               -3.5771 Ry au,         -9.0921 Debye
        Dipole field         -0.0022 Ry au, 
 
        Potential amp.        0.2401 Ry
        Total length         54.2615 bohr
 

     total cpu time spent up to now is      263.1 secs

     total energy              =   -7398.34699284 Ry
     estimated scf accuracy    <      76.23933224 Ry

     total magnetization       =    76.00 Bohr mag/cell
     absolute magnetization    =    79.59 Bohr mag/cell

     iteration # 16     ecut=    50.00 Ry     beta= 0.50
     Davidson diagonalization with overlap
     ethr =  3.90E-04,  avg # of iterations =  1.5

     negative rho (up, down):  2.013E-07 4.085E-03
 
     Adding external electric field

     Computed dipole along edir(3) : 
        Dipole               -3.6340 Ry au,         -9.2368 Debye
        Dipole field         -0.0022 Ry au, 
 
        Potential amp.        0.2439 Ry
        Total length         54.2615 bohr
 
 
     Adding external electric field

     Computed dipole along edir(3) : 
        Dipole               -3.6340 Ry au,         -9.2368 Debye
        Dipole field         -0.0022 Ry au, 
 
        Potential amp.        0.2439 Ry
        Total length         54.2615 bohr
 

     total cpu time spent up to now is      276.3 secs

     total energy              =   -7398.39279384 Ry
     estimated scf accuracy    <      72.92052158 Ry

     total magnetization       =    76.07 Bohr mag/cell
     absolute magnetization    =    80.08 Bohr mag/cell

     iteration # 17     ecut=    50.00 Ry     beta= 0.50
     Davidson diagonalization with overlap
     ethr =  3.90E-04,  avg # of iterations =  1.5

     negative rho (up, down):  7.575E-08 3.280E-03
 
     Adding external electric field

     Computed dipole along edir(3) : 
        Dipole               -3.6995 Ry au,         -9.4031 Debye
        Dipole field         -0.0023 Ry au, 
 
        Potential amp.        0.2483 Ry
        Total length         54.2615 bohr
 
 
     Adding external electric field

     Computed dipole along edir(3) : 
        Dipole               -3.6995 Ry au,         -9.4031 Debye
        Dipole field         -0.0023 Ry au, 
 
        Potential amp.        0.2483 Ry
        Total length         54.2615 bohr
 

     total cpu time spent up to now is      289.5 secs

     total energy              =   -7398.33840931 Ry
     estimated scf accuracy    <      75.79185091 Ry

     total magnetization       =    76.09 Bohr mag/cell
     absolute magnetization    =    79.86 Bohr mag/cell

     iteration # 18     ecut=    50.00 Ry     beta= 0.50
     Davidson diagonalization with overlap
     ethr =  3.90E-04,  avg # of iterations =  1.5

     negative rho (up, down):  1.671E-07 4.542E-03
 
     Adding external electric field

     Computed dipole along edir(3) : 
        Dipole               -3.7433 Ry au,         -9.5146 Debye
        Dipole field         -0.0023 Ry au, 
 
        Potential amp.        0.2512 Ry
        Total length         54.2615 bohr
 
 
     Adding external electric field

     Computed dipole along edir(3) : 
        Dipole               -3.7433 Ry au,         -9.5146 Debye
        Dipole field         -0.0023 Ry au, 
 
        Potential amp.        0.2512 Ry
        Total length         54.2615 bohr
 

     total cpu time spent up to now is      303.0 secs

     total energy              =   -7398.22659201 Ry
     estimated scf accuracy    <      55.32308707 Ry

     total magnetization       =    76.41 Bohr mag/cell
     absolute magnetization    =    79.99 Bohr mag/cell

     iteration # 19     ecut=    50.00 Ry     beta= 0.50
     Davidson diagonalization with overlap
     ethr =  3.90E-04,  avg # of iterations =  1.0

     negative rho (up, down):  3.637E-06 1.045E-02
 
     Adding external electric field

     Computed dipole along edir(3) : 
        Dipole               -3.6223 Ry au,         -9.2069 Debye
        Dipole field         -0.0022 Ry au, 
 
        Potential amp.        0.2431 Ry
        Total length         54.2615 bohr
 
 
     Adding external electric field

     Computed dipole along edir(3) : 
        Dipole               -3.6223 Ry au,         -9.2069 Debye
        Dipole field         -0.0022 Ry au, 
 
        Potential amp.        0.2431 Ry
        Total length         54.2615 bohr
 

     total cpu time spent up to now is      315.2 secs

     total energy              =   -7398.31910064 Ry
     estimated scf accuracy    <      59.32802854 Ry

     total magnetization       =    75.00 Bohr mag/cell
     absolute magnetization    =    78.58 Bohr mag/cell

     iteration # 20     ecut=    50.00 Ry     beta= 0.50
     Davidson diagonalization with overlap
     ethr =  3.90E-04,  avg # of iterations =  1.5

     negative rho (up, down):  1.485E-02 3.451E-02
 
     Adding external electric field

     Computed dipole along edir(3) : 
        Dipole               -3.1677 Ry au,         -8.0515 Debye
        Dipole field         -0.0020 Ry au, 
 
        Potential amp.        0.2126 Ry
        Total length         54.2615 bohr
 
 
     Adding external electric field

     Computed dipole along edir(3) : 
        Dipole               -3.1677 Ry au,         -8.0515 Debye
        Dipole field         -0.0020 Ry au, 
 
        Potential amp.        0.2126 Ry
        Total length         54.2615 bohr
 

     total cpu time spent up to now is      328.6 secs

     total energy              =   -7397.16695858 Ry
     estimated scf accuracy    <      65.83351694 Ry

     total magnetization       =    76.33 Bohr mag/cell
     absolute magnetization    =    78.87 Bohr mag/cell

     iteration # 21     ecut=    50.00 Ry     beta= 0.50
     Davidson diagonalization with overlap
     ethr =  3.90E-04,  avg # of iterations =  2.5

     negative rho (up, down):  7.197E-02 2.411E-01
 
     Adding external electric field

     Computed dipole along edir(3) : 
        Dipole               -3.0725 Ry au,         -7.8095 Debye
        Dipole field         -0.0019 Ry au, 
 
        Potential amp.        0.2062 Ry
        Total length         54.2615 bohr
 
 
     Adding external electric field

     Computed dipole along edir(3) : 
        Dipole               -3.0725 Ry au,         -7.8095 Debye
        Dipole field         -0.0019 Ry au, 
 
        Potential amp.        0.2062 Ry
        Total length         54.2615 bohr
 

     total cpu time spent up to now is      344.1 secs

     total energy              =   -7395.18451077 Ry
     estimated scf accuracy    <     126.16124711 Ry

     total magnetization       =    61.87 Bohr mag/cell
     absolute magnetization    =    63.64 Bohr mag/cell

     iteration # 22     ecut=    50.00 Ry     beta= 0.50
     Davidson diagonalization with overlap
     ethr =  3.90E-04,  avg # of iterations =  3.0

     negative rho (up, down):  9.243E-05 1.044E-02
 
     Adding external electric field

     Computed dipole along edir(3) : 
        Dipole               -3.2258 Ry au,         -8.1992 Debye
        Dipole field         -0.0020 Ry au, 
 
        Potential amp.        0.2165 Ry
        Total length         54.2615 bohr
 
 
     Adding external electric field

     Computed dipole along edir(3) : 
        Dipole               -3.2258 Ry au,         -8.1992 Debye
        Dipole field         -0.0020 Ry au, 
 
        Potential amp.        0.2165 Ry
        Total length         54.2615 bohr
 

     total cpu time spent up to now is      359.6 secs

     total energy              =   -7396.73726721 Ry
     estimated scf accuracy    <      35.99321299 Ry

     total magnetization       =    73.92 Bohr mag/cell
     absolute magnetization    =    74.90 Bohr mag/cell

     iteration # 23     ecut=    50.00 Ry     beta= 0.50
     Davidson diagonalization with overlap
     ethr =  3.90E-04,  avg # of iterations =  2.0

     negative rho (up, down):  1.107E-04 6.789E-03
 
     Adding external electric field

     Computed dipole along edir(3) : 
        Dipole               -3.0849 Ry au,         -7.8411 Debye
        Dipole field         -0.0019 Ry au, 
 
        Potential amp.        0.2070 Ry
        Total length         54.2615 bohr
 
 
     Adding external electric field

     Computed dipole along edir(3) : 
        Dipole               -3.0849 Ry au,         -7.8411 Debye
        Dipole field         -0.0019 Ry au, 
 
        Potential amp.        0.2070 Ry
        Total length         54.2615 bohr
 

     total cpu time spent up to now is      374.0 secs

     total energy              =   -7397.54484415 Ry
     estimated scf accuracy    <      24.95667663 Ry

     total magnetization       =    71.89 Bohr mag/cell
     absolute magnetization    =    73.50 Bohr mag/cell

     iteration # 24     ecut=    50.00 Ry     beta= 0.50
     Davidson diagonalization with overlap
     ethr =  3.90E-04,  avg # of iterations =  2.0

     negative rho (up, down):  3.220E-04 7.899E-03
 
     Adding external electric field

     Computed dipole along edir(3) : 
        Dipole               -2.9812 Ry au,         -7.5775 Debye
        Dipole field         -0.0018 Ry au, 
 
        Potential amp.        0.2001 Ry
        Total length         54.2615 bohr
 
 
     Adding external electric field

     Computed dipole along edir(3) : 
        Dipole               -2.9812 Ry au,         -7.5775 Debye
        Dipole field         -0.0018 Ry au, 
 
        Potential amp.        0.2001 Ry
        Total length         54.2615 bohr
 

     total cpu time spent up to now is      387.5 secs

     total energy              =   -7398.03674509 Ry
     estimated scf accuracy    <      12.91267802 Ry

     total magnetization       =    73.83 Bohr mag/cell
     absolute magnetization    =    75.77 Bohr mag/cell

     iteration # 25     ecut=    50.00 Ry     beta= 0.50
     Davidson diagonalization with overlap
     ethr =  3.90E-04,  avg # of iterations =  1.5

     negative rho (up, down):  3.892E-03 1.106E-02
 
     Adding external electric field

     Computed dipole along edir(3) : 
        Dipole               -2.6836 Ry au,         -6.8209 Debye
        Dipole field         -0.0017 Ry au, 
 
        Potential amp.        0.1801 Ry
        Total length         54.2615 bohr
 
 
     Adding external electric field

     Computed dipole along edir(3) : 
        Dipole               -2.6836 Ry au,         -6.8209 Debye
        Dipole field         -0.0017 Ry au, 
 
        Potential amp.        0.1801 Ry
        Total length         54.2615 bohr
 

     total cpu time spent up to now is      400.4 secs

     total energy              =   -7398.02655110 Ry
     estimated scf accuracy    <       9.03941476 Ry

     total magnetization       =    75.63 Bohr mag/cell
     absolute magnetization    =    76.98 Bohr mag/cell

     iteration # 26     ecut=    50.00 Ry     beta= 0.50
     Davidson diagonalization with overlap
     ethr =  3.90E-04,  avg # of iterations =  1.5

     negative rho (up, down):  1.335E-02 1.438E-02
 
     Adding external electric field

     Computed dipole along edir(3) : 
        Dipole               -2.0325 Ry au,         -5.1661 Debye
        Dipole field         -0.0013 Ry au, 
 
        Potential amp.        0.1364 Ry
        Total length         54.2615 bohr
 
 
     Adding external electric field

     Computed dipole along edir(3) : 
        Dipole               -2.0325 Ry au,         -5.1661 Debye
        Dipole field         -0.0013 Ry au, 
 
        Potential amp.        0.1364 Ry
        Total length         54.2615 bohr
 

     total cpu time spent up to now is      414.3 secs

     total energy              =   -7397.86619947 Ry
     estimated scf accuracy    <       8.63013300 Ry

     total magnetization       =    74.02 Bohr mag/cell
     absolute magnetization    =    75.86 Bohr mag/cell

     iteration # 27     ecut=    50.00 Ry     beta= 0.50
     Davidson diagonalization with overlap
     ethr =  3.90E-04,  avg # of iterations =  2.5

     negative rho (up, down):  1.561E-02 1.411E-02
 
     Adding external electric field

     Computed dipole along edir(3) : 
        Dipole               -1.7622 Ry au,         -4.4790 Debye
        Dipole field         -0.0011 Ry au, 
 
        Potential amp.        0.1183 Ry
        Total length         54.2615 bohr
 
 
     Adding external electric field

     Computed dipole along edir(3) : 
        Dipole               -1.7622 Ry au,         -4.4790 Debye
        Dipole field         -0.0011 Ry au, 
 
        Potential amp.        0.1183 Ry
        Total length         54.2615 bohr
 

     total cpu time spent up to now is      428.1 secs

     total energy              =   -7397.93485810 Ry
     estimated scf accuracy    <       2.92169623 Ry

     total magnetization       =    76.09 Bohr mag/cell
     absolute magnetization    =    77.15 Bohr mag/cell

     iteration # 28     ecut=    50.00 Ry     beta= 0.50
     Davidson diagonalization with overlap
     ethr =  2.71E-04,  avg # of iterations =  1.5

     negative rho (up, down):  2.759E-03 4.084E-03
 
     Adding external electric field

     Computed dipole along edir(3) : 
        Dipole               -2.0249 Ry au,         -5.1469 Debye
        Dipole field         -0.0013 Ry au, 
 
        Potential amp.        0.1359 Ry
        Total length         54.2615 bohr
 
 
     Adding external electric field

     Computed dipole along edir(3) : 
        Dipole               -2.0249 Ry au,         -5.1469 Debye
        Dipole field         -0.0013 Ry au, 
 
        Potential amp.        0.1359 Ry
        Total length         54.2615 bohr
 

     total cpu time spent up to now is      441.5 secs

     total energy              =   -7397.89298763 Ry
     estimated scf accuracy    <       7.73289565 Ry

     total magnetization       =    76.41 Bohr mag/cell
     absolute magnetization    =    77.46 Bohr mag/cell

     iteration # 29     ecut=    50.00 Ry     beta= 0.50
     Davidson diagonalization with overlap
     ethr =  2.71E-04,  avg # of iterations =  2.0

     negative rho (up, down):  4.596E-04 1.198E-03
 
     Adding external electric field

     Computed dipole along edir(3) : 
        Dipole               -1.8733 Ry au,         -4.7614 Debye
        Dipole field         -0.0012 Ry au, 
 
        Potential amp.        0.1257 Ry
        Total length         54.2615 bohr
 
 
     Adding external electric field

     Computed dipole along edir(3) : 
        Dipole               -1.8733 Ry au,         -4.7614 Debye
        Dipole field         -0.0012 Ry au, 
 
        Potential amp.        0.1257 Ry
        Total length         54.2615 bohr
 

     total cpu time spent up to now is      456.1 secs

     total energy              =   -7397.98482271 Ry
     estimated scf accuracy    <       1.19784195 Ry

     total magnetization       =    78.14 Bohr mag/cell
     absolute magnetization    =    79.24 Bohr mag/cell

     iteration # 30     ecut=    50.00 Ry     beta= 0.50
     Davidson diagonalization with overlap
     c_bands:  5 eigenvalues not converged
     ethr =  1.11E-04,  avg # of iterations = 11.0

     negative rho (up, down):  2.847E-04 5.873E-04
 
     Adding external electric field

     Computed dipole along edir(3) : 
        Dipole               -1.6907 Ry au,         -4.2973 Debye
        Dipole field         -0.0010 Ry au, 
 
        Potential amp.        0.1135 Ry
        Total length         54.2615 bohr
 
 
     Adding external electric field

     Computed dipole along edir(3) : 
        Dipole               -1.6907 Ry au,         -4.2973 Debye
        Dipole field         -0.0010 Ry au, 
 
        Potential amp.        0.1135 Ry
        Total length         54.2615 bohr
 

     total cpu time spent up to now is      479.9 secs

     total energy              =   -7398.00473780 Ry
     estimated scf accuracy    <       0.25157767 Ry

     total magnetization       =    77.90 Bohr mag/cell
     absolute magnetization    =    79.07 Bohr mag/cell

     iteration # 31     ecut=    50.00 Ry     beta= 0.50
     Davidson diagonalization with overlap
     ethr =  2.33E-05,  avg # of iterations = 11.5

     negative rho (up, down):  4.127E-06 6.802E-05
 
     Adding external electric field

     Computed dipole along edir(3) : 
        Dipole               -1.7148 Ry au,         -4.3586 Debye
        Dipole field         -0.0011 Ry au, 
 
        Potential amp.        0.1151 Ry
        Total length         54.2615 bohr
 
 
     Adding external electric field

     Computed dipole along edir(3) : 
        Dipole               -1.7148 Ry au,         -4.3586 Debye
        Dipole field         -0.0011 Ry au, 
 
        Potential amp.        0.1151 Ry
        Total length         54.2615 bohr
 

     total cpu time spent up to now is      506.0 secs

     total energy              =   -7398.01183809 Ry
     estimated scf accuracy    <       1.24498906 Ry

     total magnetization       =    78.10 Bohr mag/cell
     absolute magnetization    =    79.34 Bohr mag/cell

     iteration # 32     ecut=    50.00 Ry     beta= 0.50
     Davidson diagonalization with overlap
     ethr =  2.33E-05,  avg # of iterations =  1.5

     negative rho (up, down):  5.611E-07 1.522E-05
 
     Adding external electric field

     Computed dipole along edir(3) : 
        Dipole               -1.6329 Ry au,         -4.1504 Debye
        Dipole field         -0.0010 Ry au, 
 
        Potential amp.        0.1096 Ry
        Total length         54.2615 bohr
 
 
     Adding external electric field

     Computed dipole along edir(3) : 
        Dipole               -1.6329 Ry au,         -4.1504 Debye
        Dipole field         -0.0010 Ry au, 
 
        Potential amp.        0.1096 Ry
        Total length         54.2615 bohr
 

     total cpu time spent up to now is      519.7 secs

     total energy              =   -7398.02469269 Ry
     estimated scf accuracy    <       0.79188145 Ry

     total magnetization       =    79.01 Bohr mag/cell
     absolute magnetization    =    80.26 Bohr mag/cell

     iteration # 33     ecut=    50.00 Ry     beta= 0.50
     Davidson diagonalization with overlap
     ethr =  2.33E-05,  avg # of iterations =  1.5

     negative rho (up, down):  4.454E-08 2.236E-06
 
     Adding external electric field

     Computed dipole along edir(3) : 
        Dipole               -1.5547 Ry au,         -3.9517 Debye
        Dipole field         -0.0010 Ry au, 
 
        Potential amp.        0.1043 Ry
        Total length         54.2615 bohr
 
 
     Adding external electric field

     Computed dipole along edir(3) : 
        Dipole               -1.5547 Ry au,         -3.9517 Debye
        Dipole field         -0.0010 Ry au, 
 
        Potential amp.        0.1043 Ry
        Total length         54.2615 bohr
 

     total cpu time spent up to now is      533.3 secs

     total energy              =   -7398.03455798 Ry
     estimated scf accuracy    <       0.72385197 Ry

     total magnetization       =    79.38 Bohr mag/cell
     absolute magnetization    =    80.70 Bohr mag/cell

     iteration # 34     ecut=    50.00 Ry     beta= 0.50
     Davidson diagonalization with overlap
     ethr =  2.33E-05,  avg # of iterations =  1.0
 
     Adding external electric field

     Computed dipole along edir(3) : 
        Dipole               -1.4545 Ry au,         -3.6970 Debye
        Dipole field         -0.0009 Ry au, 
 
        Potential amp.        0.0976 Ry
        Total length         54.2615 bohr
 
 
     Adding external electric field

     Computed dipole along edir(3) : 
        Dipole               -1.4545 Ry au,         -3.6970 Debye
        Dipole field         -0.0009 Ry au, 
 
        Potential amp.        0.0976 Ry
        Total length         54.2615 bohr
 

     total cpu time spent up to now is      545.8 secs

     total energy              =   -7398.04262912 Ry
     estimated scf accuracy    <       0.62470605 Ry

     total magnetization       =    79.89 Bohr mag/cell
     absolute magnetization    =    81.24 Bohr mag/cell

     iteration # 35     ecut=    50.00 Ry     beta= 0.50
     Davidson diagonalization with overlap
     ethr =  2.33E-05,  avg # of iterations =  1.0
 
     Adding external electric field

     Computed dipole along edir(3) : 
        Dipole               -1.2063 Ry au,         -3.0661 Debye
        Dipole field         -0.0007 Ry au, 
 
        Potential amp.        0.0810 Ry
        Total length         54.2615 bohr
 
 
     Adding external electric field

     Computed dipole along edir(3) : 
        Dipole               -1.2063 Ry au,         -3.0661 Debye
        Dipole field         -0.0007 Ry au, 
 
        Potential amp.        0.0810 Ry
        Total length         54.2615 bohr
 

     total cpu time spent up to now is      558.7 secs

     total energy              =   -7398.05640157 Ry
     estimated scf accuracy    <       1.10152064 Ry

     total magnetization       =    79.49 Bohr mag/cell
     absolute magnetization    =    80.89 Bohr mag/cell

     iteration # 36     ecut=    50.00 Ry     beta= 0.50
     Davidson diagonalization with overlap
     ethr =  2.33E-05,  avg # of iterations =  1.5
 
     Adding external electric field

     Computed dipole along edir(3) : 
        Dipole               -1.2716 Ry au,         -3.2321 Debye
        Dipole field         -0.0008 Ry au, 
 
        Potential amp.        0.0853 Ry
        Total length         54.2615 bohr
 
 
     Adding external electric field

     Computed dipole along edir(3) : 
        Dipole               -1.2716 Ry au,         -3.2321 Debye
        Dipole field         -0.0008 Ry au, 
 
        Potential amp.        0.0853 Ry
        Total length         54.2615 bohr
 

     total cpu time spent up to now is      572.8 secs

     total energy              =   -7398.04596632 Ry
     estimated scf accuracy    <       3.11230964 Ry

     total magnetization       =    80.12 Bohr mag/cell
     absolute magnetization    =    81.66 Bohr mag/cell

     iteration # 37     ecut=    50.00 Ry     beta= 0.50
     Davidson diagonalization with overlap
     ethr =  2.33E-05,  avg # of iterations =  1.0
 
     Adding external electric field

     Computed dipole along edir(3) : 
        Dipole               -1.1523 Ry au,         -2.9289 Debye
        Dipole field         -0.0007 Ry au, 
 
        Potential amp.        0.0773 Ry
        Total length         54.2615 bohr
 
 
     Adding external electric field

     Computed dipole along edir(3) : 
        Dipole               -1.1523 Ry au,         -2.9289 Debye
        Dipole field         -0.0007 Ry au, 
 
        Potential amp.        0.0773 Ry
        Total length         54.2615 bohr
 

     total cpu time spent up to now is      585.6 secs

     total energy              =   -7398.05660595 Ry
     estimated scf accuracy    <       0.88048025 Ry

     total magnetization       =    79.79 Bohr mag/cell
     absolute magnetization    =    81.32 Bohr mag/cell

     iteration # 38     ecut=    50.00 Ry     beta= 0.50
     Davidson diagonalization with overlap
     ethr =  2.33E-05,  avg # of iterations =  1.0
 
     Adding external electric field

     Computed dipole along edir(3) : 
        Dipole               -1.1109 Ry au,         -2.8237 Debye
        Dipole field         -0.0007 Ry au, 
 
        Potential amp.        0.0746 Ry
        Total length         54.2615 bohr
 
 
     Adding external electric field

     Computed dipole along edir(3) : 
        Dipole               -1.1109 Ry au,         -2.8237 Debye
        Dipole field         -0.0007 Ry au, 
 
        Potential amp.        0.0746 Ry
        Total length         54.2615 bohr
 

     total cpu time spent up to now is      598.3 secs

     total energy              =   -7398.06430242 Ry
     estimated scf accuracy    <       2.09824892 Ry

     total magnetization       =    80.64 Bohr mag/cell
     absolute magnetization    =    82.14 Bohr mag/cell

     iteration # 39     ecut=    50.00 Ry     beta= 0.50
     Davidson diagonalization with overlap
     ethr =  2.33E-05,  avg # of iterations =  1.0
 
     Adding external electric field

     Computed dipole along edir(3) : 
        Dipole               -0.8579 Ry au,         -2.1805 Debye
        Dipole field         -0.0005 Ry au, 
 
        Potential amp.        0.0576 Ry
        Total length         54.2615 bohr
 
 
     Adding external electric field

     Computed dipole along edir(3) : 
        Dipole               -0.8579 Ry au,         -2.1805 Debye
        Dipole field         -0.0005 Ry au, 
 
        Potential amp.        0.0576 Ry
        Total length         54.2615 bohr
 

     total cpu time spent up to now is      610.4 secs

     total energy              =   -7398.03573515 Ry
     estimated scf accuracy    <       2.72946587 Ry

     total magnetization       =    80.70 Bohr mag/cell
     absolute magnetization    =    82.23 Bohr mag/cell

     iteration # 40     ecut=    50.00 Ry     beta= 0.50
     Davidson diagonalization with overlap
     ethr =  2.33E-05,  avg # of iterations =  2.0
 
     Adding external electric field

     Computed dipole along edir(3) : 
        Dipole               -1.0962 Ry au,         -2.7863 Debye
        Dipole field         -0.0007 Ry au, 
 
        Potential amp.        0.0736 Ry
        Total length         54.2615 bohr
 
 
     Adding external electric field

     Computed dipole along edir(3) : 
        Dipole               -1.0962 Ry au,         -2.7863 Debye
        Dipole field         -0.0007 Ry au, 
 
        Potential amp.        0.0736 Ry
        Total length         54.2615 bohr
 

     total cpu time spent up to now is      624.6 secs

     total energy              =   -7398.00782950 Ry
     estimated scf accuracy    <       2.87925035 Ry

     total magnetization       =    81.16 Bohr mag/cell
     absolute magnetization    =    82.81 Bohr mag/cell

     iteration # 41     ecut=    50.00 Ry     beta= 0.50
     Davidson diagonalization with overlap
     ethr =  2.33E-05,  avg # of iterations =  2.0
 
     Adding external electric field

     Computed dipole along edir(3) : 
        Dipole               -0.8658 Ry au,         -2.2006 Debye
        Dipole field         -0.0005 Ry au, 
 
        Potential amp.        0.0581 Ry
        Total length         54.2615 bohr
 
 
     Adding external electric field

     Computed dipole along edir(3) : 
        Dipole               -0.8658 Ry au,         -2.2006 Debye
        Dipole field         -0.0005 Ry au, 
 
        Potential amp.        0.0581 Ry
        Total length         54.2615 bohr
 

     total cpu time spent up to now is      639.1 secs

     total energy              =   -7398.04175151 Ry
     estimated scf accuracy    <       0.70704695 Ry

     total magnetization       =    80.63 Bohr mag/cell
     absolute magnetization    =    82.10 Bohr mag/cell

     iteration # 42     ecut=    50.00 Ry     beta= 0.50
     Davidson diagonalization with overlap
     ethr =  2.33E-05,  avg # of iterations =  1.0
 
     Adding external electric field

     Computed dipole along edir(3) : 
        Dipole               -0.9074 Ry au,         -2.3064 Debye
        Dipole field         -0.0006 Ry au, 
 
        Potential amp.        0.0609 Ry
        Total length         54.2615 bohr
 
 
     Adding external electric field

     Computed dipole along edir(3) : 
        Dipole               -0.9074 Ry au,         -2.3064 Debye
        Dipole field         -0.0006 Ry au, 
 
        Potential amp.        0.0609 Ry
        Total length         54.2615 bohr
 

     total cpu time spent up to now is      651.5 secs

     total energy              =   -7398.04903809 Ry
     estimated scf accuracy    <       1.14089278 Ry

     total magnetization       =    80.91 Bohr mag/cell
     absolute magnetization    =    82.41 Bohr mag/cell

     iteration # 43     ecut=    50.00 Ry     beta= 0.50
     Davidson diagonalization with overlap
     ethr =  2.33E-05,  avg # of iterations =  1.0
 
     Adding external electric field

     Computed dipole along edir(3) : 
        Dipole               -0.8964 Ry au,         -2.2783 Debye
        Dipole field         -0.0006 Ry au, 
 
        Potential amp.        0.0602 Ry
        Total length         54.2615 bohr
 
 
     Adding external electric field

     Computed dipole along edir(3) : 
        Dipole               -0.8964 Ry au,         -2.2783 Debye
        Dipole field         -0.0006 Ry au, 
 
        Potential amp.        0.0602 Ry
        Total length         54.2615 bohr
 

     total cpu time spent up to now is      663.4 secs

     total energy              =   -7398.04951633 Ry
     estimated scf accuracy    <       1.37717564 Ry

     total magnetization       =    80.92 Bohr mag/cell
     absolute magnetization    =    82.43 Bohr mag/cell

     iteration # 44     ecut=    50.00 Ry     beta= 0.50
     Davidson diagonalization with overlap
     ethr =  2.33E-05,  avg # of iterations =  1.0
 
     Adding external electric field

     Computed dipole along edir(3) : 
        Dipole               -0.9043 Ry au,         -2.2986 Debye
        Dipole field         -0.0006 Ry au, 
 
        Potential amp.        0.0607 Ry
        Total length         54.2615 bohr
 
 
     Adding external electric field

     Computed dipole along edir(3) : 
        Dipole               -0.9043 Ry au,         -2.2986 Debye
        Dipole field         -0.0006 Ry au, 
 
        Potential amp.        0.0607 Ry
        Total length         54.2615 bohr
 

     total cpu time spent up to now is      675.2 secs

     total energy              =   -7398.05064066 Ry
     estimated scf accuracy    <       1.34647127 Ry

     total magnetization       =    80.93 Bohr mag/cell
     absolute magnetization    =    82.45 Bohr mag/cell

     iteration # 45     ecut=    50.00 Ry     beta= 0.50
     Davidson diagonalization with overlap
     ethr =  2.33E-05,  avg # of iterations =  1.0
 
     Adding external electric field

     Computed dipole along edir(3) : 
        Dipole               -0.8417 Ry au,         -2.1393 Debye
        Dipole field         -0.0005 Ry au, 
 
        Potential amp.        0.0565 Ry
        Total length         54.2615 bohr
 
 
     Adding external electric field

     Computed dipole along edir(3) : 
        Dipole               -0.8417 Ry au,         -2.1393 Debye
        Dipole field         -0.0005 Ry au, 
 
        Potential amp.        0.0565 Ry
        Total length         54.2615 bohr
 

     total cpu time spent up to now is      686.8 secs

     total energy              =   -7398.04112336 Ry
     estimated scf accuracy    <       1.44106072 Ry

     total magnetization       =    80.95 Bohr mag/cell
     absolute magnetization    =    82.46 Bohr mag/cell

     iteration # 46     ecut=    50.00 Ry     beta= 0.50
     Davidson diagonalization with overlap
     ethr =  2.33E-05,  avg # of iterations =  1.0
 
     Adding external electric field

     Computed dipole along edir(3) : 
        Dipole               -0.7307 Ry au,         -1.8574 Debye
        Dipole field         -0.0005 Ry au, 
 
        Potential amp.        0.0490 Ry
        Total length         54.2615 bohr
 
 
     Adding external electric field

     Computed dipole along edir(3) : 
        Dipole               -0.7307 Ry au,         -1.8574 Debye
        Dipole field         -0.0005 Ry au, 
 
        Potential amp.        0.0490 Ry
        Total length         54.2615 bohr
 

     total cpu time spent up to now is      698.3 secs

     total energy              =   -7398.04573633 Ry
     estimated scf accuracy    <       0.49150439 Ry

     total magnetization       =    80.14 Bohr mag/cell
     absolute magnetization    =    81.71 Bohr mag/cell

     iteration # 47     ecut=    50.00 Ry     beta= 0.50
     Davidson diagonalization with overlap
     ethr =  2.33E-05,  avg # of iterations =  1.0
 
     Adding external electric field

     Computed dipole along edir(3) : 
        Dipole               -0.4952 Ry au,         -1.2587 Debye
        Dipole field         -0.0003 Ry au, 
 
        Potential amp.        0.0332 Ry
        Total length         54.2615 bohr
 
 
     Adding external electric field

     Computed dipole along edir(3) : 
        Dipole               -0.4952 Ry au,         -1.2587 Debye
        Dipole field         -0.0003 Ry au, 
 
        Potential amp.        0.0332 Ry
        Total length         54.2615 bohr
 

     total cpu time spent up to now is      710.5 secs

     total energy              =   -7398.03992018 Ry
     estimated scf accuracy    <       0.52994739 Ry

     total magnetization       =    80.50 Bohr mag/cell
     absolute magnetization    =    82.04 Bohr mag/cell

     iteration # 48     ecut=    50.00 Ry     beta= 0.50
     Davidson diagonalization with overlap
     ethr =  2.33E-05,  avg # of iterations =  1.5
 
     Adding external electric field

     Computed dipole along edir(3) : 
        Dipole               -0.2811 Ry au,         -0.7145 Debye
        Dipole field         -0.0002 Ry au, 
 
        Potential amp.        0.0189 Ry
        Total length         54.2615 bohr
 
 
     Adding external electric field

     Computed dipole along edir(3) : 
        Dipole               -0.2811 Ry au,         -0.7145 Debye
        Dipole field         -0.0002 Ry au, 
 
        Potential amp.        0.0189 Ry
        Total length         54.2615 bohr
 

     total cpu time spent up to now is      723.7 secs

     total energy              =   -7398.03375653 Ry
     estimated scf accuracy    <       0.45767428 Ry

     total magnetization       =    80.07 Bohr mag/cell
     absolute magnetization    =    81.61 Bohr mag/cell

     iteration # 49     ecut=    50.00 Ry     beta= 0.50
     Davidson diagonalization with overlap
     ethr =  2.33E-05,  avg # of iterations =  1.5
 
     Adding external electric field

     Computed dipole along edir(3) : 
        Dipole               -0.0628 Ry au,         -0.1597 Debye
        Dipole field         -0.0000 Ry au, 
 
        Potential amp.        0.0042 Ry
        Total length         54.2615 bohr
 
 
     Adding external electric field

     Computed dipole along edir(3) : 
        Dipole               -0.0628 Ry au,         -0.1597 Debye
        Dipole field         -0.0000 Ry au, 
 
        Potential amp.        0.0042 Ry
        Total length         54.2615 bohr
 

     total cpu time spent up to now is      738.6 secs

     total energy              =   -7398.02583649 Ry
     estimated scf accuracy    <       0.64015721 Ry

     total magnetization       =    79.73 Bohr mag/cell
     absolute magnetization    =    81.28 Bohr mag/cell

     iteration # 50     ecut=    50.00 Ry     beta= 0.50
     Davidson diagonalization with overlap
     ethr =  2.33E-05,  avg # of iterations =  4.0
 
     Adding external electric field

     Computed dipole along edir(3) : 
        Dipole               -0.1364 Ry au,         -0.3468 Debye
        Dipole field         -0.0001 Ry au, 
 
        Potential amp.        0.0092 Ry
        Total length         54.2615 bohr
 
 
     Adding external electric field

     Computed dipole along edir(3) : 
        Dipole               -0.1364 Ry au,         -0.3468 Debye
        Dipole field         -0.0001 Ry au, 
 
        Potential amp.        0.0092 Ry
        Total length         54.2615 bohr
 

     total cpu time spent up to now is      754.1 secs

     total energy              =   -7398.02333556 Ry
     estimated scf accuracy    <       0.56057194 Ry

     total magnetization       =    79.27 Bohr mag/cell
     absolute magnetization    =    80.82 Bohr mag/cell

     iteration # 51     ecut=    50.00 Ry     beta= 0.50
     Davidson diagonalization with overlap
     ethr =  2.33E-05,  avg # of iterations =  1.5
 
     Adding external electric field

     Computed dipole along edir(3) : 
        Dipole               -0.2073 Ry au,         -0.5270 Debye
        Dipole field         -0.0001 Ry au, 
 
        Potential amp.        0.0139 Ry
        Total length         54.2615 bohr
 
 
     Adding external electric field

     Computed dipole along edir(3) : 
        Dipole               -0.2073 Ry au,         -0.5270 Debye
        Dipole field         -0.0001 Ry au, 
 
        Potential amp.        0.0139 Ry
        Total length         54.2615 bohr
 

     total cpu time spent up to now is      767.2 secs

     total energy              =   -7398.02491472 Ry
     estimated scf accuracy    <       0.26729417 Ry

     total magnetization       =    79.59 Bohr mag/cell
     absolute magnetization    =    81.13 Bohr mag/cell

     iteration # 52     ecut=    50.00 Ry     beta= 0.50
     Davidson diagonalization with overlap
     ethr =  2.33E-05,  avg # of iterations =  1.5
 
     Adding external electric field

     Computed dipole along edir(3) : 
        Dipole               -0.2738 Ry au,         -0.6960 Debye
        Dipole field         -0.0002 Ry au, 
 
        Potential amp.        0.0184 Ry
        Total length         54.2615 bohr
 
 
     Adding external electric field

     Computed dipole along edir(3) : 
        Dipole               -0.2738 Ry au,         -0.6960 Debye
        Dipole field         -0.0002 Ry au, 
 
        Potential amp.        0.0184 Ry
        Total length         54.2615 bohr
 

     total cpu time spent up to now is      780.1 secs

     total energy              =   -7398.02623344 Ry
     estimated scf accuracy    <       0.14701456 Ry

     total magnetization       =    79.92 Bohr mag/cell
     absolute magnetization    =    81.45 Bohr mag/cell

     iteration # 53     ecut=    50.00 Ry     beta= 0.50
     Davidson diagonalization with overlap
     ethr =  1.36E-05,  avg # of iterations =  1.5
 
     Adding external electric field

     Computed dipole along edir(3) : 
        Dipole               -0.1703 Ry au,         -0.4329 Debye
        Dipole field         -0.0001 Ry au, 
 
        Potential amp.        0.0114 Ry
        Total length         54.2615 bohr
 
 
     Adding external electric field

     Computed dipole along edir(3) : 
        Dipole               -0.1703 Ry au,         -0.4329 Debye
        Dipole field         -0.0001 Ry au, 
 
        Potential amp.        0.0114 Ry
        Total length         54.2615 bohr
 

     total cpu time spent up to now is      793.0 secs

     total energy              =   -7398.02987478 Ry
     estimated scf accuracy    <       0.03384304 Ry

     total magnetization       =    80.29 Bohr mag/cell
     absolute magnetization    =    81.83 Bohr mag/cell

     iteration # 54     ecut=    50.00 Ry     beta= 0.50
     Davidson diagonalization with overlap
     c_bands:  2 eigenvalues not converged
     ethr =  3.14E-06,  avg # of iterations = 21.0
 
     Adding external electric field

     Computed dipole along edir(3) : 
        Dipole               -0.1452 Ry au,         -0.3691 Debye
        Dipole field         -0.0001 Ry au, 
 
        Potential amp.        0.0097 Ry
        Total length         54.2615 bohr
 
 
     Adding external electric field

     Computed dipole along edir(3) : 
        Dipole               -0.1452 Ry au,         -0.3691 Debye
        Dipole field         -0.0001 Ry au, 
 
        Potential amp.        0.0097 Ry
        Total length         54.2615 bohr
 

     total cpu time spent up to now is      829.0 secs

     total energy              =   -7398.03044002 Ry
     estimated scf accuracy    <       0.02949705 Ry

     total magnetization       =    80.29 Bohr mag/cell
     absolute magnetization    =    81.83 Bohr mag/cell

     iteration # 55     ecut=    50.00 Ry     beta= 0.50
     Davidson diagonalization with overlap
     ethr =  2.74E-06,  avg # of iterations =  8.5
 
     Adding external electric field

     Computed dipole along edir(3) : 
        Dipole               -0.0191 Ry au,         -0.0485 Debye
        Dipole field         -0.0000 Ry au, 
 
        Potential amp.        0.0013 Ry
        Total length         54.2615 bohr
 
 
     Adding external electric field

     Computed dipole along edir(3) : 
        Dipole               -0.0191 Ry au,         -0.0485 Debye
        Dipole field         -0.0000 Ry au, 
 
        Potential amp.        0.0013 Ry
        Total length         54.2615 bohr
 

     total cpu time spent up to now is      848.2 secs

     total energy              =   -7398.02946269 Ry
     estimated scf accuracy    <       0.02025150 Ry

     total magnetization       =    80.43 Bohr mag/cell
     absolute magnetization    =    81.97 Bohr mag/cell

     iteration # 56     ecut=    50.00 Ry     beta= 0.50
     Davidson diagonalization with overlap
     ethr =  1.88E-06,  avg # of iterations =  2.0

     negative rho (up, down):  6.551E-07 1.676E-07
 
     Adding external electric field

     Computed dipole along edir(3) : 
        Dipole                0.1155 Ry au,          0.2936 Debye
        Dipole field          0.0001 Ry au, 
 
        Potential amp.       -0.0078 Ry
        Total length         54.2615 bohr
 
 
     Adding external electric field

     Computed dipole along edir(3) : 
        Dipole                0.1155 Ry au,          0.2936 Debye
        Dipole field          0.0001 Ry au, 
 
        Potential amp.       -0.0078 Ry
        Total length         54.2615 bohr
 

     total cpu time spent up to now is      863.6 secs

     total energy              =   -7398.02781583 Ry
     estimated scf accuracy    <       0.01262471 Ry

     total magnetization       =    80.25 Bohr mag/cell
     absolute magnetization    =    81.79 Bohr mag/cell

     iteration # 57     ecut=    50.00 Ry     beta= 0.50
     Davidson diagonalization with overlap
     c_bands:  2 eigenvalues not converged
     ethr =  1.17E-06,  avg # of iterations = 11.0

     negative rho (up, down):  4.407E-06 1.553E-06
 
     Adding external electric field

     Computed dipole along edir(3) : 
        Dipole                0.1492 Ry au,          0.3793 Debye
        Dipole field          0.0001 Ry au, 
 
        Potential amp.       -0.0100 Ry
        Total length         54.2615 bohr
 
 
     Adding external electric field

     Computed dipole along edir(3) : 
        Dipole                0.1492 Ry au,          0.3793 Debye
        Dipole field          0.0001 Ry au, 
 
        Potential amp.       -0.0100 Ry
        Total length         54.2615 bohr
 

     total cpu time spent up to now is      885.2 secs

     total energy              =   -7398.02804823 Ry
     estimated scf accuracy    <       0.01764031 Ry

     total magnetization       =    80.49 Bohr mag/cell
     absolute magnetization    =    82.02 Bohr mag/cell

     iteration # 58     ecut=    50.00 Ry     beta= 0.50
     Davidson diagonalization with overlap
     ethr =  1.17E-06,  avg # of iterations =  2.0

     negative rho (up, down):  6.139E-05 3.703E-05
 
     Adding external electric field

     Computed dipole along edir(3) : 
        Dipole                0.2054 Ry au,          0.5220 Debye
        Dipole field          0.0001 Ry au, 
 
        Potential amp.       -0.0138 Ry
        Total length         54.2615 bohr
 
 
     Adding external electric field

     Computed dipole along edir(3) : 
        Dipole                0.2054 Ry au,          0.5220 Debye
        Dipole field          0.0001 Ry au, 
 
        Potential amp.       -0.0138 Ry
        Total length         54.2615 bohr
 

     total cpu time spent up to now is      899.8 secs

     total energy              =   -7398.02792205 Ry
     estimated scf accuracy    <       0.01325478 Ry

     total magnetization       =    80.35 Bohr mag/cell
     absolute magnetization    =    81.88 Bohr mag/cell

     iteration # 59     ecut=    50.00 Ry     beta= 0.50
     Davidson diagonalization with overlap
     ethr =  1.17E-06,  avg # of iterations =  4.0
 
     Adding external electric field

     Computed dipole along edir(3) : 
        Dipole                0.0477 Ry au,          0.1213 Debye
        Dipole field          0.0000 Ry au, 
 
        Potential amp.       -0.0032 Ry
        Total length         54.2615 bohr
 
 
     Adding external electric field

     Computed dipole along edir(3) : 
[...]
    -5.9503  -5.9417  -5.9213  -5.9155  -5.9008  -5.8529  -5.8185  -5.8019
    -5.7767  -5.7602  -5.7412  -5.7373  -5.7086  -5.6889  -5.6708  -5.6540
    -5.6432  -5.6107  -5.6054  -5.5933  -5.5906  -5.5702  -5.5169  -5.4833
    -5.4548  -5.4252  -5.3978  -5.3781  -5.3628  -5.3532  -5.3261  -5.2544
    -5.2238  -5.2034  -5.1888  -5.1172  -5.1084  -5.0875  -5.0361  -5.0213
    -5.0091  -4.9569  -4.9238  -4.9027  -4.8812  -4.8552  -4.8437  -4.7945
    -4.7827  -4.7416  -4.7043  -4.6799  -4.6550  -4.6274  -4.5520  -4.5423
    -4.4948  -4.4836  -4.4531  -4.4379  -4.4155  -4.3861  -4.3504  -4.3380
    -4.3272  -4.2763  -4.2179  -4.1813  -4.1374  -4.1222  -4.1078  -4.0999
    -4.0487  -4.0084  -3.9919  -3.9779  -3.9471  -3.9169  -3.9002  -3.8728
    -3.8491  -3.8449  -3.7892  -3.7867  -3.7580  -3.7218  -3.7054  -3.6924
    -3.6793  -3.6532  -3.6396  -3.6308  -3.6212  -3.6026  -3.5686  -3.5274
    -3.5073  -3.5025  -3.4841  -3.4768  -3.4687  -3.4614  -3.4311  -3.4246
    -3.4176  -3.3775  -3.3547  -3.3265  -3.3115  -3.2947  -3.2503  -3.2425
    -3.2297  -3.1998  -3.1638  -3.1634  -3.1508  -3.1301  -3.1220  -3.1100
    -3.0791  -3.0740  -3.0350  -2.9999  -2.9905  -2.9773  -2.9618  -2.9210
    -2.9026  -2.8949  -2.8821  -2.8368  -2.8259  -2.8119  -2.7894  -2.7767
    -2.7603  -2.7545  -2.7425  -2.7321  -2.7227  -2.7200  -2.7093  -2.6820
    -2.6620  -2.6450  -2.6344  -2.6269  -2.6002  -2.5852  -2.5736  -2.5489
    -2.5370  -2.5083  -2.5047  -2.4849  -2.4642  -2.4491  -2.4369  -2.4278
    -2.3936  -2.3818  -2.3698  -2.3527  -2.3251  -2.2932  -2.2816  -2.2551
    -2.2472  -2.2291  -2.2005  -2.1822  -2.1741  -2.1465  -2.1170  -2.1106
    -2.0964  -2.0710  -2.0571  -2.0437  -2.0313  -2.0144  -1.9929  -1.9635
    -1.9529  -1.9400  -1.9351  -1.9268  -1.8921  -1.8836  -1.8682  -1.8492
    -1.8248  -1.7814  -1.7762  -1.7411  -1.7323  -1.7040  -1.6877  -1.6789
    -1.6694  -1.6502  -1.6460  -1.6009  -1.5944  -1.5703  -1.5264  -1.5163
    -1.5026  -1.4951  -1.4668  -1.4443  -1.4353  -1.4176  -1.3983  -1.3868
    -1.3664  -1.3456  -1.3229  -1.2827  -1.2722  -1.2471  -1.2251  -1.2004
    -1.1551  -1.1202  -1.0720  -0.9705  -0.9531  -0.9180  -0.8675  -0.8302
    -0.8101  -0.7453  -0.6471  -0.5194  -0.3770  -0.3369  -0.3066  -0.2020
     0.1315   0.1550   0.1844   0.2221   0.2521   0.2726   0.2739   0.2974
     0.3016   0.3174   0.3381   0.3407   0.3473   0.3685   0.3712   0.3723
     0.3843   0.3873   0.3991   0.4049   0.4183   0.4268   0.4302   0.4400
     0.4449   0.4513   0.4581   0.4596   0.4698   0.4731   0.4797   0.4851
     0.5031   0.5063   0.5111   0.5151   0.5209   0.5233   0.5344   0.5408
     0.5573   0.5590   0.5668   0.5695   0.5775   0.5836   0.5969   0.6032
     0.6064   0.6136   0.6205   0.6256   0.6296   0.6443   0.6584   0.6680
     0.6708   0.6782   0.6877   0.6916   0.6941   0.7047   0.7094   0.7213
     0.7330   0.7405   0.7425   0.7457   0.7562   0.7624   0.7626   0.7691
     0.7749   0.7812   0.8119   0.8175   0.8248   0.8338   0.8467   0.8538
     0.8563   0.8728   0.8770   0.8819   0.8981   0.9020   0.9083   0.9197
     0.9248   0.9323   0.9564   0.9581   0.9900   0.9980   1.0139   1.0279
     1.1377   1.1717   1.6073   1.6945   1.6996   1.7289   1.7321   1.7497
     1.7619   1.8571   1.8824   1.9015   1.9183   1.9630   1.9683   1.9888
     1.9989   2.0225   2.0416   2.0619   2.0736   2.0758   2.0950   2.1334
     2.1576   2.1730   2.1824   2.2113   2.2190   2.2545   2.2573   2.2636
     2.2777   2.2856   2.3078   2.3174   2.3262   2.3353   2.3502   2.3570
     2.3719   2.3841   2.3926   2.3957   2.4118   2.4265   2.4462   2.4866
     2.4916   2.5088   2.5166   2.5316   2.5441   2.5489   2.5694   2.5924
     2.6005   2.6103   2.6450   2.6632   2.7022   2.7305   2.7482   2.8099
     2.8280   2.8624   2.8799   2.9257   2.9286   3.3733   3.4019   3.6098
     3.6656   3.8019   3.8643   3.9466   4.0095   4.0292   4.0932   4.6080
     4.6691   4.7774   4.9003   4.9353   4.9610   5.0544   5.4396   6.3418
     6.3666   6.5159   6.6092   6.7296   6.8134   6.8495   6.9026   6.9415
     7.0512   7.0940   7.1353   7.1549   7.3427   7.3930   7.4094   7.4407
     7.5267   7.5886   7.6232   7.7090   7.7496   7.7553   7.8223   7.8515
     7.8899   7.9490   7.9690   8.0023   8.0229   8.0550   8.0813   8.1188
     8.1448   8.1776   8.1903   8.2348   8.2553   8.2803   8.3135   8.3444
     8.3681   8.4065   8.4310   8.4889   8.4927   8.5062   8.5261   8.5416
     8.5551   8.5713   8.5946   8.6076   8.6485   8.6693   8.6776   8.6899
     8.7261   8.7428   8.8052   8.8078   8.8544   8.8706   8.9168

     the Fermi energy is     1.5841 ev

!    total energy              =   -7398.02835013 Ry
     estimated scf accuracy    <       0.00000016 Ry
     smearing contrib. (-TS)   =      -0.01555644 Ry
     internal energy E=F+TS    =   -7398.01279370 Ry

     The total energy is F=E-TS. E is the sum of the following terms:
     one-electron contribution =  -91618.49413492 Ry
     hartree contribution      =   46457.59801331 Ry
     xc contribution           =   -2260.28807104 Ry
     ewald contribution        =   40025.00354615 Ry
     Dispersion Correction     =      -1.83219382 Ry
     electric field correction =       0.00004664 Ry

     total magnetization       =    80.30 Bohr mag/cell
     absolute magnetization    =    81.82 Bohr mag/cell

     convergence has been achieved in  80 iterations

     negative rho (up, down):  9.302E-04 5.485E-04

     Forces acting on atoms (cartesian axes, Ry/au):

     atom    1 type  2   force =     0.00016114   -0.00028142   -0.00025414
     atom    2 type  1   force =    -0.00037340    0.00012621   -0.00020345
     atom    3 type  1   force =    -0.00002926   -0.00066078   -0.00048201
     atom    4 type  1   force =    -0.00021736    0.00036581    0.00015930
     atom    5 type  1   force =     0.00001670    0.00037202   -0.00002229
     atom    6 type  1   force =    -0.00010443   -0.00011464   -0.00003736
     atom    7 type  1   force =     0.00112905   -0.00091102   -0.00150056
     atom    8 type  1   force =     0.00000332   -0.00040960    0.00020193
     atom    9 type  1   force =    -0.00038859    0.00070968   -0.00034544
     atom   10 type  1   force =    -0.00005773    0.00000584   -0.00031574
     atom   11 type  1   force =    -0.00042583   -0.00047158   -0.00018000
     atom   12 type  1   force =     0.00043565    0.00026514   -0.00054308
     atom   13 type  3   force =    -0.00012063    0.00013182    0.00003094
     atom   14 type  3   force =    -0.00020848    0.00005383    0.00005969
     atom   15 type  3   force =     0.00010783    0.00008426   -0.00007995
     atom   16 type  3   force =     0.00075946    0.00009599    0.00000539
     atom   17 type  4   force =     0.00002287   -0.00021996   -0.00006345
     atom   18 type  4   force =     0.00019071    0.00012448   -0.00047799
     atom   19 type  4   force =    -0.00027748    0.00024667    0.00032684
     atom   20 type  4   force =    -0.00017320    0.00007233    0.00033248
     atom   21 type  4   force =    -0.00004864    0.00036343   -0.00005783
     atom   22 type  4   force =    -0.00033254   -0.00039166   -0.00036041
     atom   23 type  4   force =     0.00001862    0.00065236   -0.00019798
     atom   24 type  4   force =     0.00036656    0.00009300    0.00023461
     atom   25 type  4   force =     0.00014020   -0.00018188   -0.00006135
     atom   26 type  4   force =    -0.00009753    0.00012656    0.00009115
     atom   27 type  4   force =     0.00030269   -0.00005658   -0.00014281
     atom   28 type  4   force =    -0.00011989    0.00013146    0.00017655
     atom   29 type  4   force =    -0.00010115   -0.00023153    0.00027752
     atom   30 type  4   force =    -0.00019832   -0.00042711   -0.00035945
     atom   31 type  4   force =    -0.00006453    0.00020004   -0.00016735
     atom   32 type  4   force =    -0.00006771    0.00040768    0.00015546
     atom   33 type  3   force =    -0.00007985    0.00004586   -0.00030124
     atom   34 type  3   force =     0.00042567   -0.00012613   -0.00040990
     atom   35 type  3   force =     0.00036127    0.00011396   -0.00037090
     atom   36 type  3   force =    -0.00061711    0.00008572    0.00010210
     atom   37 type  4   force =     0.00005792   -0.00011927    0.00007120
     atom   38 type  4   force =     0.00003972    0.00059385   -0.00010178
     atom   39 type  4   force =    -0.00020066   -0.00000810    0.00097814
     atom   40 type  4   force =     0.00036839   -0.00002369   -0.00010826
     atom   41 type  4   force =    -0.00031388   -0.00001104   -0.00014426
     atom   42 type  4   force =    -0.00039518   -0.00020041   -0.00044055
     atom   43 type  4   force =    -0.00041670   -0.00021218   -0.00015632
     atom   44 type  4   force =     0.00016200    0.00013501   -0.00036036
     atom   45 type  4   force =     0.00018996    0.00001412   -0.00037841
     atom   46 type  4   force =    -0.00002793   -0.00056633   -0.00019445
     atom   47 type  4   force =    -0.00017863    0.00015397   -0.00004032
     atom   48 type  4   force =     0.00029806    0.00010807    0.00015954
     atom   49 type  4   force =     0.00002731    0.00008483   -0.00005578
     atom   50 type  4   force =     0.00023423   -0.00032164    0.00004115
     atom   51 type  4   force =    -0.00001533    0.00004854    0.00015485
     atom   52 type  4   force =    -0.00005877   -0.00000083   -0.00006922
     atom   53 type  2   force =     0.00243950   -0.00379962    0.00601195
     atom   54 type  1   force =     0.00504282   -0.00222570    0.00381327
     atom   55 type  1   force =     0.00756609   -0.00387962    0.00208627
     atom   56 type  1   force =    -0.00196607    0.01028951    0.00596285
     atom   57 type  1   force =    -0.00007138    0.02310624    0.01478873
     atom   58 type  1   force =     0.00206715   -0.00329240   -0.00172095
     atom   59 type  1   force =     0.00045747   -0.00718949    0.00408924
     atom   60 type  1   force =    -0.00519864   -0.00198236    0.00475061
     atom   61 type  1   force =    -0.00190767   -0.00156585    0.00333812
     atom   62 type  1   force =    -0.00431906    0.00830007    0.00598709
     atom   63 type  1   force =    -0.01108922    0.02589979    0.01853602
     atom   64 type  1   force =    -0.00197887    0.00117412    0.00129532
     atom   65 type  3   force =     0.04624422   -0.11372525   -0.01065782
     atom   66 type  3   force =    -0.00035801   -0.00161291    0.00363617
     atom   67 type  3   force =    -0.03980845    0.12605016    0.01450544
     atom   68 type  3   force =     0.06271908   -0.00164638   -0.00319114
     atom   69 type  4   force =     0.01393029   -0.01840126    0.00384295
     atom   70 type  4   force =    -0.00104024    0.00282596   -0.00131613
     atom   71 type  4   force =    -0.00154989    0.00334098   -0.00551812
     atom   72 type  4   force =     0.00404814    0.00186906   -0.00084579
     atom   73 type  4   force =     0.00100960   -0.01151250    0.00269452
     atom   74 type  4   force =     0.00117167   -0.00015705   -0.00065986
     atom   75 type  4   force =     0.00063739    0.01359604    0.00515654
     atom   76 type  4   force =     0.00830518    0.00523692    0.00921186
     atom   77 type  4   force =     0.00707402   -0.00269174    0.00153627
     atom   78 type  4   force =     0.04438339   -0.14246976   -0.00538197
     atom   79 type  4   force =     0.00183962    0.00190680    0.00139814
     atom   80 type  4   force =     0.00025851    0.00229282   -0.00165978
     atom   81 type  4   force =     0.06791447    0.00089052   -0.00659928
     atom   82 type  4   force =     0.00032529    0.00083592   -0.00116660
     atom   83 type  4   force =    -0.03911809    0.13474954    0.00265214
     atom   84 type  4   force =    -0.00304553   -0.01099832   -0.00411392
     atom   85 type  3   force =     0.04005886   -0.12015855   -0.01807669
     atom   86 type  3   force =    -0.06379107   -0.00050266    0.00771378
     atom   87 type  3   force =    -0.04506945    0.12374259    0.01944534
     atom   88 type  3   force =    -0.00165694    0.00017053    0.00272857
     atom   89 type  4   force =     0.00901713   -0.01532060    0.00396765
     atom   90 type  4   force =    -0.00464454    0.00116865   -0.00004283
     atom   91 type  4   force =    -0.00885297    0.00838741   -0.00644783
     atom   92 type  4   force =     0.00000970    0.00017450   -0.00072819
     atom   93 type  4   force =    -0.00170001   -0.00832669    0.00737876
     atom   94 type  4   force =    -0.00409648    0.00096400   -0.00071411
     atom   95 type  4   force =    -0.00521209    0.01350134    0.00749107
     atom   96 type  4   force =     0.00410329    0.00518822    0.00960364
     atom   97 type  4   force =    -0.00005102    0.00027704    0.00064667
     atom   98 type  4   force =     0.04034455   -0.14103762   -0.00541670
     atom   99 type  4   force =    -0.06660467    0.00000808    0.00632085
     atom  100 type  4   force =    -0.00204597    0.00353406   -0.00254589
     atom  101 type  4   force =     0.00003450    0.00080013   -0.00089019
     atom  102 type  4   force =    -0.00615840    0.00434587   -0.00138960
     atom  103 type  4   force =    -0.04028119    0.13340454    0.00428328
     atom  104 type  4   force =    -0.00705704   -0.00989363   -0.00527916
     atom  105 type  2   force =     0.00419287   -0.00657220   -0.01790844
     atom  106 type  1   force =     0.02823178    0.01426971    0.01172319
     atom  107 type  1   force =     0.00868547   -0.00616074   -0.01390836
     atom  108 type  1   force =    -0.02839361    0.02170937    0.01876973
     atom  109 type  1   force =     0.00499349    0.01617816    0.00950891
     atom  110 type  1   force =    -0.00250711   -0.00878764   -0.00672259
     atom  111 type  1   force =    -0.00085616   -0.00950679   -0.01140577
     atom  112 type  1   force =     0.02919770    0.01756033    0.01141686
     atom  113 type  1   force =    -0.00068687   -0.00501302   -0.01378560
     atom  114 type  1   force =    -0.02969355    0.02074991    0.01857790
     atom  115 type  1   force =    -0.00715345    0.01859053    0.01224593
     atom  116 type  1   force =    -0.00558080   -0.00436864   -0.00289411
     atom  117 type  3   force =     0.01426482   -0.17389117   -0.10881563
     atom  118 type  3   force =     0.00517821   -0.00850557   -0.01246597
     atom  119 type  3   force =    -0.04467581    0.12500093   -0.00174731
     atom  120 type  3   force =     0.09507767   -0.04105356   -0.07971094
     atom  121 type  4   force =     0.00614506   -0.01708074    0.03720385
     atom  122 type  4   force =    -0.00350252    0.00371582    0.00446305
     atom  123 type  4   force =    -0.00087475    0.00253220   -0.00285576
     atom  124 type  4   force =     0.00848690    0.00220237    0.02690400
     atom  125 type  4   force =     0.00989762   -0.01687109    0.01604475
     atom  126 type  4   force =    -0.00752362    0.00096633   -0.00326191
     atom  127 type  4   force =     0.00394595    0.00962435    0.00031527
     atom  128 type  4   force =    -0.00062566   -0.00107147    0.03024363
     atom  129 type  4   force =    -0.00770249    0.02545783    0.00120371
     atom  130 type  4   force =     0.04338343   -0.14594067   -0.00195755
     atom  131 type  4   force =    -0.01734420   -0.00040346    0.00287240
     atom  132 type  4   force =     0.00345042    0.00265022    0.00196853
     atom  133 type  4   force =     0.06971215    0.00369756   -0.00194401
     atom  134 type  4   force =     0.00097348    0.00371558    0.00267040
     atom  135 type  4   force =    -0.02751942    0.17218320    0.00607790
     atom  136 type  4   force =     0.01952199   -0.00862905    0.00402235
     atom  137 type  3   force =     0.00910302   -0.16687895   -0.09422885
     atom  138 type  3   force =    -0.06471556   -0.00205660   -0.00479537
     atom  139 type  3   force =    -0.04872157    0.11826143    0.00167679
     atom  140 type  3   force =     0.03144807   -0.04325742   -0.07368130
     atom  141 type  4   force =     0.00467233   -0.01327699    0.03203921
     atom  142 type  4   force =    -0.00540739   -0.00037567    0.00429714
     atom  143 type  4   force =    -0.00821267    0.00806726   -0.00352824
     atom  144 type  4   force =     0.00382703    0.00141073    0.02748583
     atom  145 type  4   force =     0.00690763   -0.01298492    0.03242064
     atom  146 type  4   force =    -0.00871051   -0.00183125   -0.00318631
     atom  147 type  4   force =     0.00028936    0.00985073    0.00251114
     atom  148 type  4   force =    -0.00792412    0.00125157    0.02917513
     atom  149 type  4   force =    -0.01320192    0.02937505    0.00052410
     atom  150 type  4   force =     0.03978366   -0.13826123   -0.00145775
     atom  151 type  4   force =    -0.08609569   -0.00174770    0.00916706
     atom  152 type  4   force =     0.00126384    0.00389660    0.00138369
     atom  153 type  4   force =    -0.00359376    0.00083727    0.00292522
     atom  154 type  4   force =    -0.00587354    0.00604980    0.00126278
     atom  155 type  4   force =    -0.02792815    0.16638985    0.00486598
     atom  156 type  4   force =     0.01048661   -0.00973526   -0.00136281
     atom  157 type  4   force =     0.00788265    0.00989996   -0.00176822
     atom  158 type  5   force =    -0.00841595   -0.00753944    0.00234073

     Total force =     0.671231     Total SCF correction =     0.001558
 
     init_run     :      8.56s CPU      9.43s WALL (       1 calls)
     electrons    :   1142.28s CPU   1203.61s WALL (       1 calls)
     forces       :      3.52s CPU      4.00s WALL (       1 calls)
     force_london :      0.11s CPU      0.11s WALL (       1 calls)

     Called by init_run:
     wfcinit      :      5.12s CPU      5.40s WALL (       1 calls)
     potinit      :      0.56s CPU      0.77s WALL (       1 calls)
     hinit0       :      1.36s CPU      1.46s WALL (       1 calls)

     Called by electrons:
     c_bands      :    908.17s CPU    938.82s WALL (      80 calls)
     sum_band     :    150.70s CPU    167.22s WALL (      80 calls)
     v_of_rho     :     15.73s CPU     16.80s WALL (      81 calls)
     newd         :     42.95s CPU     56.17s WALL (      81 calls)
     mix_rho      :     23.94s CPU     24.11s WALL (      80 calls)
     energy_londo :      0.10s CPU      0.10s WALL (       1 calls)

     Called by c_bands:
     init_us_2    :      3.07s CPU      3.14s WALL (     324 calls)
     init_us_2:cp :      3.06s CPU      3.14s WALL (     324 calls)
     regterg      :    887.73s CPU    918.11s WALL (     162 calls)

     Called by *egterg:
     rdiaghg      :    284.17s CPU    298.87s WALL (     595 calls)
     h_psi        :    343.43s CPU    350.68s WALL (     597 calls)
     s_psi        :     69.09s CPU     69.15s WALL (     597 calls)
     g_psi        :      0.50s CPU      0.51s WALL (     433 calls)

     Called by h_psi:
     h_psi:calbec :     87.24s CPU     93.44s WALL (     597 calls)
     vloc_psi     :    184.98s CPU    185.88s WALL (     597 calls)
     add_vuspsi   :     70.25s CPU     70.38s WALL (     597 calls)

     General routines
     calbec       :    128.43s CPU    137.79s WALL (     765 calls)
     fft          :     13.63s CPU     15.03s WALL (    1471 calls)
     ffts         :     13.49s CPU     13.52s WALL (    9739 calls)
     fftw         :    203.89s CPU    204.85s WALL (  271048 calls)
     interpolate  :      1.31s CPU      1.40s WALL (     162 calls)
 
     Parallel routines
 
     PWSCF        :  19m16.51s CPU  20m19.50s WALL

 
   This run was terminated on:   1: 3: 4  20Nov2025            

=------------------------------------------------------------------------------=
   JOB DONE.
=------------------------------------------------------------------------------=
