
     Program PWSCF v.7.2 starts on 20Nov2025 at  1:19:16 

     This program is part of the open-source Quantum ESPRESSO suite
     for quantum simulation of materials; please cite
         "P. Giannozzi et al., J. Phys.:Condens. Matter 21 395502 (2009);
         "P. Giannozzi et al., J. Phys.:Condens. Matter 29 465901 (2017);
         "P. Giannozzi et al., J. Chem. Phys. 152 154105 (2020);
          URL http://www.quantum-espresso.org", 
     in publications or presentations arising from this work. More details at
     http://www.quantum-espresso.org/quote

     Parallel version (MPI), running on    64 processors

     MPI processes distributed on     4 nodes
     370228 MiB available memory on the printing compute node when the environment starts
 
     Reading input from PWINPUT_atm157_zm

     Current dimensions of program PWSCF are:
     Max number of different atomic species (ntypx) = 10
     Max number of k-points (npk) =  40000
     Max angular momentum in pseudopotentials (lmaxx) =  4
     Presently no symmetry can be used with electric field

     file Ni.pbe-n-rrkjus_psl.1.0.0.UPF: wavefunction(s)  3D renormalized
     file Mn.pbe-spn-rrkjus_psl.0.3.1.UPF: wavefunction(s)  3D renormalized
     file O.pbe-rrkjus.UPF: wavefunction(s)  2S renormalized
     file H.pbe-rrkjus.UPF: wavefunction(s)  1S renormalized

     gamma-point specific algorithms are used
 
     R & G space division:  proc/nbgrp/npool/nimage =      64
     Subspace diagonalization in iterative solution of the eigenvalue problem:
     one sub-group per band group will be used
     custom distributed-memory algorithm (size of sub-group:  6*  6 procs)

 
     Parallelization info
     --------------------
     sticks:   dense  smooth     PW     G-vecs:    dense   smooth      PW
     Min         208      82     20                59912    15118    1876
     Max         210      84     22                59974    15196    1926
     Sum       13399    5355   1345              3836275   970529  121367
 
     Using Slab Decomposition
 


     bravais-lattice index     =            0
     lattice parameter (alat)  =      17.7004  a.u.
     unit-cell volume          =   20319.7251 (a.u.)^3
     number of atoms/cell      =          158
     number of atomic types    =            5
     number of electrons       =      1078.00
     number of Kohn-Sham states=          647
     kinetic-energy cutoff     =      50.0000  Ry
     charge density cutoff     =     500.0000  Ry
     scf convergence threshold =      1.0E-06
     mixing beta               =       0.5000
     number of iterations used =            8  local-TF  mixing
     Exchange-correlation=  SLA  PW   PBE  PBE
                           (   1   4   3   4   0   0   0)

     celldm(1)=  17.700384  celldm(2)=   0.000000  celldm(3)=   0.000000
     celldm(4)=   0.000000  celldm(5)=   0.000000  celldm(6)=   0.000000

     crystal axes: (cart. coord. in units of alat)
               a(1) = (   1.000000   0.000000   0.000000 )  
               a(2) = (   0.000000   1.075730   0.000000 )  
               a(3) = (   0.000000   0.000000   3.406172 )  

     reciprocal axes: (cart. coord. in units 2 pi/alat)
               b(1) = (  1.000000  0.000000  0.000000 )  
               b(2) = (  0.000000  0.929602  0.000000 )  
               b(3) = (  0.000000  0.000000  0.293585 )  


     PseudoPot. # 1 for Ni read from file:
     ~/PSEUDO/Ni.pbe-n-rrkjus_psl.1.0.0.UPF
     MD5 check sum: Not computed, couldn't open file
     Pseudo is Ultrasoft + core correction, Zval = 10.0
     Generated using "atomic" code by A. Dal Corso  v.5.1.2
     Using radial grid of 1195 points,  6 beta functions with: 
                l(1) =   0
                l(2) =   0
                l(3) =   1
                l(4) =   1
                l(5) =   2
                l(6) =   2
     Q(r) pseudized with 0 coefficients 


     PseudoPot. # 2 for Mn read from file:
     ~/PSEUDO/Mn.pbe-spn-rrkjus_psl.0.3.1.UPF
     MD5 check sum: Not computed, couldn't open file
     Pseudo is Ultrasoft + core correction, Zval = 15.0
     Generated using &quot;atomic&quot; code by A. Dal Corso  v.6.2.2
     Using radial grid of 1187 points,  6 beta functions with: 
                l(1) =   0
                l(2) =   0
                l(3) =   1
                l(4) =   1
                l(5) =   2
                l(6) =   2
     Q(r) pseudized with 0 coefficients 


     PseudoPot. # 3 for P  read from file:
     ~/PSEUDO/P.pbe-n-rrkjus_psl.1.0.0.UPF
     MD5 check sum: Not computed, couldn't open file
     Pseudo is Ultrasoft + core correction, Zval =  5.0
     Generated using "atomic" code by A. Dal Corso  v.5.1
     Using radial grid of 1147 points,  6 beta functions with: 
                l(1) =   0
                l(2) =   0
                l(3) =   1
                l(4) =   1
                l(5) =   2
                l(6) =   2
     Q(r) pseudized with 0 coefficients 


     PseudoPot. # 4 for O  read from file:
     ~/PSEUDO/O.pbe-rrkjus.UPF
     MD5 check sum: Not computed, couldn't open file
     Pseudo is Ultrasoft, Zval =  6.0
     Generated by new atomic code, or converted to UPF format
     Using radial grid of 1269 points,  4 beta functions with: 
                l(1) =   0
                l(2) =   0
                l(3) =   1
                l(4) =   1
     Q(r) pseudized with 0 coefficients 


     PseudoPot. # 5 for H  read from file:
     ~/PSEUDO/H.pbe-rrkjus.UPF
     MD5 check sum: Not computed, couldn't open file
     Pseudo is Ultrasoft, Zval =  1.0
     Generated by new atomic code, or converted to UPF format
     Using radial grid of 1061 points,  2 beta functions with: 
                l(1) =   0
                l(2) =   0
     Q(r) pseudized with 0 coefficients 


     atomic species   valence    mass     pseudopotential
     Ni               10.00    58.69300     Ni( 1.00)
     Mn               15.00    54.93800     Mn( 1.00)
     P                 5.00    30.97300     P ( 1.00)
     O                 6.00    15.99900     O ( 1.00)
     H                 1.00     1.00790     H ( 1.00)

     Starting magnetic structure 
     atomic species   magnetization
     Ni              1.000
     Mn              1.000
     P               1.000
     O               1.000
     H               0.000

     No symmetry found



   Cartesian axes

     site n.     atom                  positions (alat units)
         1        Mn     tau(   1) = (   0.2487148   0.8375267   1.6951957  )
         2        Ni     tau(   2) = (   0.4985680   0.7741854   1.3708613  )
         3        Ni     tau(   3) = (  -0.0011545   0.3006174   1.6748188  )
         4        Ni     tau(   4) = (   0.2613034   0.2387656   1.3682654  )
         5        Ni     tau(   5) = (   0.9963341   1.0779630   1.5338071  )
         6        Ni     tau(   6) = (   0.2553410   0.5376272   1.5302552  )
         7        Ni     tau(   7) = (   0.7421076   0.8435707   1.7073254  )
         8        Ni     tau(   8) = (   0.9925505   0.7752294   1.3710528  )
         9        Ni     tau(   9) = (   0.5021333   0.2954136   1.6750756  )
        10        Ni     tau(  10) = (   0.7611689   0.2373559   1.3675061  )
        11        Ni     tau(  11) = (   0.5009702   1.0742604   1.5366496  )
        12        Ni     tau(  12) = (   0.7544547   0.5384375   1.5322894  )
        13        P      tau(  13) = (   0.2115511   0.9728651   1.3803029  )
        14        P      tau(  14) = (   0.4665848   0.6401311   1.6901980  )
        15        P      tau(  15) = (   0.2857882   0.1150193   1.6956783  )
        16        P      tau(  16) = (   0.0437806   0.4336934   1.3698950  )
        17        O      tau(  17) = (   0.1341895   0.9017796   1.5160649  )
        18        O      tau(  18) = (   0.3918354   0.7064542   1.5480543  )
        19        O      tau(  19) = (   0.3659047   0.1699051   1.5489901  )
        20        O      tau(  20) = (   0.1220478   0.3634760   1.5065536  )
        21        O      tau(  21) = (   0.1491769   0.8830546   1.2562069  )
        22        O      tau(  22) = (   0.4014483   0.7325987   1.8096174  )
        23        O      tau(  23) = (   0.3477141   0.2121598   1.8095684  )
        24        O      tau(  24) = (   0.1043448   0.3449385   1.2442231  )
        25        O      tau(  25) = (   0.1038610   0.5888479   1.3734716  )
        26        O      tau(  26) = (   0.3384087   1.0313531   1.6992469  )
        27        O      tau(  27) = (   0.3808703   0.4260931   1.3818057  )
        28        O      tau(  28) = (   0.1211112   0.1186251   1.6801879  )
        29        O      tau(  29) = (   0.1290557   0.6512937   1.6784404  )
        30        O      tau(  30) = (   0.4077914   0.4842311   1.6878311  )
        31        O      tau(  31) = (   0.1525182   0.0517135   1.3798448  )
        32        O      tau(  32) = (   0.3752655   0.9631458   1.3897289  )
        33        P      tau(  33) = (   0.7115935   0.9699435   1.3754512  )
        34        P      tau(  34) = (   0.9627941   0.6488001   1.6882550  )
        35        P      tau(  35) = (   0.7877941   0.1135143   1.6933997  )
        36        P      tau(  36) = (   0.5450057   0.4319961   1.3698026  )
        37        O      tau(  37) = (   0.6347424   0.8975550   1.5107968  )
        38        O      tau(  38) = (   0.8874360   0.7086109   1.5448689  )
        39        O      tau(  39) = (   0.8663690   0.1747348   1.5464995  )
        40        O      tau(  40) = (   0.6223636   0.3611942   1.5061123  )
        41        O      tau(  41) = (   0.6513775   0.8826145   1.2479475  )
        42        O      tau(  42) = (   0.9079471   0.7471932   1.8059270  )
        43        O      tau(  43) = (   0.8460393   0.2141480   1.8067812  )
        44        O      tau(  44) = (   0.6057326   0.3434800   1.2439494  )
        45        O      tau(  45) = (   0.6051788   0.5869386   1.3743458  )
        46        O      tau(  46) = (   0.8485507   1.0338148   1.6901252  )
        47        O      tau(  47) = (   0.8800306   0.4271144   1.3821281  )
        48        O      tau(  48) = (   0.6230808   0.1160198   1.6767091  )
        49        O      tau(  49) = (   0.6309458   0.6452848   1.6833570  )
        50        O      tau(  50) = (   0.9073287   0.4911282   1.6902526  )
        51        O      tau(  51) = (   0.6516592   0.0493454   1.3784195  )
        52        O      tau(  52) = (   0.8758524   0.9648084   1.3850114  )
        53        Mn     tau(  53) = (   0.2404744   0.8246335   1.0701417  )
        54        Ni     tau(  54) = (   0.4968126   0.7601755   0.7454373  )
        55        Ni     tau(  55) = (   0.0066150   0.2811828   1.0628866  )
        56        Ni     tau(  56) = (   0.2585722   0.2230943   0.7421070  )
        57        Ni     tau(  57) = (   0.9987350   1.0571496   0.9014992  )
        58        Ni     tau(  58) = (   0.2517397   0.5205596   0.9040596  )
        59        Ni     tau(  59) = (   0.7451645   0.8212628   1.0648168  )
        60        Ni     tau(  60) = (   0.9939181   0.7613889   0.7462324  )
        61        Ni     tau(  61) = (   0.5111533   0.2799173   1.0618053  )
        62        Ni     tau(  62) = (   0.7606326   0.2194352   0.7418547  )
        63        Ni     tau(  63) = (   0.5024065   1.0563218   0.8999416  )
        64        Ni     tau(  64) = (   0.7529977   0.5192985   0.9024691  )
        65        P      tau(  65) = (   0.2092944   0.9606182   0.7524883  )
        66        P      tau(  66) = (   0.4655727   0.6234620   1.0595283  )
        67        P      tau(  67) = (   0.2910699   0.0902448   1.0573821  )
        68        P      tau(  68) = (   0.0396216   0.4163480   0.7471080  )
        69        O      tau(  69) = (   0.1294378   0.8888345   0.8859300  )
        70        O      tau(  70) = (   0.3874505   0.6929859   0.9232915  )
        71        O      tau(  71) = (   0.3702540   0.1589885   0.9209891  )
        72        O      tau(  72) = (   0.1184398   0.3458043   0.8831565  )
        73        O      tau(  73) = (   0.1451572   0.8725966   0.6282341  )
        74        O      tau(  74) = (   0.4048762   0.7120670   1.1852426  )
        75        O      tau(  75) = (   0.3523506   0.1775664   1.1834175  )
        76        O      tau(  76) = (   0.1017610   0.3285569   0.6213347  )
        77        O      tau(  77) = (   0.0975396   0.5724373   0.7511996  )
        78        O      tau(  78) = (   0.3483552   1.0190030   1.0599597  )
        79        O      tau(  79) = (   0.3784305   0.4100203   0.7560991  )
        80        O      tau(  80) = (   0.1268237   0.0943029   1.0477175  )
        81        O      tau(  81) = (   0.1212267   0.6299255   1.0507023  )
        82        O      tau(  82) = (   0.4053315   0.4684472   1.0569297  )
        83        O      tau(  83) = (   0.1536621   0.0322003   0.7496532  )
        84        O      tau(  84) = (   0.3732349   0.9506802   0.7613277  )
        85        P      tau(  85) = (   0.7119823   0.9571059   0.7496908  )
        86        P      tau(  86) = (   0.9615208   0.6238477   1.0606987  )
        87        P      tau(  87) = (   0.7927710   0.0845145   1.0577754  )
        88        P      tau(  88) = (   0.5426404   0.4144760   0.7459181  )
        89        O      tau(  89) = (   0.6326879   0.8866267   0.8856678  )
        90        O      tau(  90) = (   0.8842163   0.6958291   0.9244764  )
        91        O      tau(  91) = (   0.8716178   0.1552836   0.9216415  )
        92        O      tau(  92) = (   0.6212010   0.3433751   0.8818834  )
        93        O      tau(  93) = (   0.6507714   0.8687427   0.6238197  )
        94        O      tau(  94) = (   0.9014054   0.7139543   1.1859242  )
        95        O      tau(  95) = (   0.8548963   0.1722994   1.1834447  )
        96        O      tau(  96) = (   0.6044469   0.3253792   0.6209553  )
        97        O      tau(  97) = (   0.6024424   0.5698225   0.7490903  )
        98        O      tau(  98) = (   0.8498940   1.0129567   1.0594762  )
        99        O      tau(  99) = (   0.8798395   0.4080910   0.7564148  )
       100        O      tau( 100) = (   0.6286921   0.0909721   1.0472573  )
       101        O      tau( 101) = (   0.6294973   0.6302838   1.0497366  )
       102        O      tau( 102) = (   0.9024339   0.4685397   1.0573501  )
       103        O      tau( 103) = (   0.6547812   0.0286072   0.7473283  )
       104        O      tau( 104) = (   0.8760507   0.9507690   0.7605412  )
       105        Mn     tau( 105) = (   0.2404744   0.8121420   0.4502541  )
       106        Ni     tau( 106) = (   0.4968126   0.7476840   0.1255496  )
       107        Ni     tau( 107) = (   0.0066150   0.2686914   0.4429989  )
       108        Ni     tau( 108) = (   0.2585722   0.2106028   0.1222194  )
       109        Ni     tau( 109) = (   0.9987350   1.0446581   0.2816116  )
       110        Ni     tau( 110) = (   0.2517397   0.5080681   0.2841720  )
       111        Ni     tau( 111) = (   0.7451645   0.8087713   0.4449291  )
       112        Ni     tau( 112) = (   0.9939181   0.7488974   0.1263448  )
       113        Ni     tau( 113) = (   0.5111533   0.2674258   0.4419177  )
       114        Ni     tau( 114) = (   0.7606326   0.2069438   0.1219670  )
       115        Ni     tau( 115) = (   0.5024065   1.0438304   0.2800540  )
       116        Ni     tau( 116) = (   0.7529977   0.5068070   0.2825815  )
       117        P      tau( 117) = (   0.2092944   0.9481267   0.1326007  )
       118        P      tau( 118) = (   0.4655727   0.6109705   0.4396407  )
       119        P      tau( 119) = (   0.2910699   0.0777534   0.4374945  )
       120        P      tau( 120) = (   0.0396216   0.4038566   0.1272204  )
       121        O      tau( 121) = (   0.1294378   0.8763430   0.2660424  )
       122        O      tau( 122) = (   0.3874505   0.6804944   0.3034039  )
       123        O      tau( 123) = (   0.3702540   0.1464970   0.3011014  )
       124        O      tau( 124) = (   0.1184398   0.3333129   0.2632689  )
       125        O      tau( 125) = (   0.1451572   0.8601051   0.0083464  )
       126        O      tau( 126) = (   0.4048762   0.6995756   0.5653550  )
       127        O      tau( 127) = (   0.3523506   0.1650749   0.5635298  )
       128        O      tau( 128) = (   0.1017610   0.3160655   0.0014470  )
       129        O      tau( 129) = (   0.0975396   0.5599458   0.1313120  )
       130        O      tau( 130) = (   0.3483552   1.0065115   0.4400720  )
       131        O      tau( 131) = (   0.3784305   0.3975288   0.1362114  )
       132        O      tau( 132) = (   0.1268237   0.0818115   0.4278298  )
       133        O      tau( 133) = (   0.1212267   0.6174340   0.4308146  )
       134        O      tau( 134) = (   0.4053315   0.4559557   0.4370420  )
       135        O      tau( 135) = (   0.1536621   0.0197088   0.1297656  )
       136        O      tau( 136) = (   0.3732349   0.9381887   0.1414400  )
       137        P      tau( 137) = (   0.7119823   0.9446144   0.1298032  )
       138        P      tau( 138) = (   0.9615208   0.6113562   0.4408111  )
       139        P      tau( 139) = (   0.7927710   0.0720230   0.4378878  )
       140        P      tau( 140) = (   0.5426404   0.4019845   0.1260304  )
       141        O      tau( 141) = (   0.6326879   0.8741353   0.2657802  )
       142        O      tau( 142) = (   0.8842163   0.6833376   0.3045887  )
       143        O      tau( 143) = (   0.8716178   0.1427921   0.3017538  )
       144        O      tau( 144) = (   0.6212010   0.3308836   0.2619957  )
       145        O      tau( 145) = (   0.6507714   0.8562512   0.0039320  )
       146        O      tau( 146) = (   0.9014054   0.7014628   0.5660366  )
       147        O      tau( 147) = (   0.8548963   0.1598079   0.5635571  )
       148        O      tau( 148) = (   0.6044469   0.3128877   0.0010676  )
       149        O      tau( 149) = (   0.6024424   0.5573310   0.1292027  )
       150        O      tau( 150) = (   0.8498940   1.0004653   0.4395886  )
       151        O      tau( 151) = (   0.8798395   0.3955995   0.1365272  )
       152        O      tau( 152) = (   0.6286921   0.0784807   0.4273696  )
       153        O      tau( 153) = (   0.6294973   0.6177923   0.4298489  )
       154        O      tau( 154) = (   0.9024339   0.4560482   0.4374624  )
       155        O      tau( 155) = (   0.6547812   0.0161158   0.1274406  )
       156        O      tau( 156) = (   0.8760507   0.9382775   0.1406535  )
       157        O      tau( 157) = (   0.6290941   0.9242713   1.8425693  )
       158        H      tau( 158) = (   0.5523937   0.8599107   1.8761737  )

     -------------------------------------------------
     Parameters for Dispersion (Grimme-D2) Correction:
     -------------------------------------------------
       atom      VdW radius       C_6     

        Ni         2.952        374.666
        Mn         2.952        374.666
        P          3.222        271.980
        O          2.536         24.284
        H          1.892          4.857

     number of k points=     1  Gaussian smearing, width (Ry)=  0.0100
                       cart. coord. in units 2pi/alat
        k(    1) = (   0.0000000   0.0000000   0.0000000), wk =   1.0000000

     Dense  grid:  1918138 G-vectors     FFT dimensions: ( 125, 135, 432)

     Smooth grid:   485265 G-vectors     FFT dimensions: (  80,  90, 288)

     Estimated max dynamical RAM per process >     320.12 MB

     Estimated total dynamical RAM >      20.01 GB
     Generating pointlists ...
     new r_m :   0.0800 (alat units)  1.4153 (a.u.) for type    1
     new r_m :   0.0869 (alat units)  1.5388 (a.u.) for type    2
     new r_m :   0.0650 (alat units)  1.1499 (a.u.) for type    3
     new r_m :   0.0436 (alat units)  0.7711 (a.u.) for type    4
     new r_m :   0.0436 (alat units)  0.7711 (a.u.) for type    5

     Initial potential from superposition of free atoms

     starting charge    1077.8900, renormalised to    1078.0000

     negative rho (up, down):  1.227E-03 4.512E-04
 
     Adding external electric field

     Computed dipole along edir(3) : 
        Dipole                1.6379 Ry au,          4.1630 Debye
        Dipole field          0.0010 Ry au, 
 
        Potential amp.       -0.1099 Ry
        Total length         54.2615 bohr
 
 
     Adding external electric field

     Computed dipole along edir(3) : 
        Dipole                1.6379 Ry au,          4.1630 Debye
        Dipole field          0.0010 Ry au, 
 
        Potential amp.       -0.1099 Ry
        Total length         54.2615 bohr
 
     Starting wfcs are  812 randomized atomic wfcs

     total cpu time spent up to now is       10.8 secs

     Self-consistent Calculation

     iteration #  1     ecut=    50.00 Ry     beta= 0.50
     Davidson diagonalization with overlap
     ethr =  1.00E-02,  avg # of iterations =  6.0

     negative rho (up, down):  2.316E+00 3.197E-06
 
     Adding external electric field

     Computed dipole along edir(3) : 
        Dipole              -24.6968 Ry au,        -62.7731 Debye
        Dipole field         -0.0153 Ry au, 
 
        Potential amp.        1.6575 Ry
        Total length         54.2615 bohr
 
 
     Adding external electric field

     Computed dipole along edir(3) : 
        Dipole              -24.6968 Ry au,        -62.7731 Debye
        Dipole field         -0.0153 Ry au, 
 
        Potential amp.        1.6575 Ry
        Total length         54.2615 bohr
 

     total cpu time spent up to now is       39.3 secs

     total energy              =   -7198.01794551 Ry
     estimated scf accuracy    <     731.67514276 Ry

     total magnetization       =   216.00 Bohr mag/cell
     absolute magnetization    =   298.18 Bohr mag/cell

     iteration #  2     ecut=    50.00 Ry     beta= 0.50
     Davidson diagonalization with overlap
     ethr =  1.00E-02,  avg # of iterations =  6.5

     negative rho (up, down):  2.384E+00 2.061E-05
 
     Adding external electric field

     Computed dipole along edir(3) : 
        Dipole                0.2227 Ry au,          0.5660 Debye
        Dipole field          0.0001 Ry au, 
 
        Potential amp.       -0.0149 Ry
        Total length         54.2615 bohr
 
 
     Adding external electric field

     Computed dipole along edir(3) : 
        Dipole                0.2227 Ry au,          0.5660 Debye
        Dipole field          0.0001 Ry au, 
 
        Potential amp.       -0.0149 Ry
        Total length         54.2615 bohr
 

     total cpu time spent up to now is       70.6 secs

     total energy              =   -7289.65025022 Ry
     estimated scf accuracy    <    9656.20117367 Ry

     total magnetization       =   111.07 Bohr mag/cell
     absolute magnetization    =   155.38 Bohr mag/cell

     iteration #  3     ecut=    50.00 Ry     beta= 0.50
     Davidson diagonalization with overlap
     ethr =  1.00E-02,  avg # of iterations =  6.0

     negative rho (up, down):  1.758E+00 1.786E-05
 
     Adding external electric field

     Computed dipole along edir(3) : 
        Dipole               -2.3129 Ry au,         -5.8788 Debye
        Dipole field         -0.0014 Ry au, 
 
        Potential amp.        0.1552 Ry
        Total length         54.2615 bohr
 
 
     Adding external electric field

     Computed dipole along edir(3) : 
        Dipole               -2.3129 Ry au,         -5.8788 Debye
        Dipole field         -0.0014 Ry au, 
 
        Potential amp.        0.1552 Ry
        Total length         54.2615 bohr
 

     total cpu time spent up to now is       89.8 secs

     total energy              =   -7361.10200852 Ry
     estimated scf accuracy    <     669.45898581 Ry

     total magnetization       =   122.48 Bohr mag/cell
     absolute magnetization    =   165.96 Bohr mag/cell

     iteration #  4     ecut=    50.00 Ry     beta= 0.50
     Davidson diagonalization with overlap
     ethr =  1.00E-02,  avg # of iterations =  3.5

     negative rho (up, down):  1.250E+00 3.866E-05
 
     Adding external electric field

     Computed dipole along edir(3) : 
        Dipole               -2.6939 Ry au,         -6.8471 Debye
        Dipole field         -0.0017 Ry au, 
 
        Potential amp.        0.1808 Ry
        Total length         54.2615 bohr
 
 
     Adding external electric field

     Computed dipole along edir(3) : 
        Dipole               -2.6939 Ry au,         -6.8471 Debye
        Dipole field         -0.0017 Ry au, 
 
        Potential amp.        0.1808 Ry
        Total length         54.2615 bohr
 

     total cpu time spent up to now is      105.4 secs

     total energy              =   -7378.84626671 Ry
     estimated scf accuracy    <      93.81378484 Ry

     total magnetization       =    84.15 Bohr mag/cell
     absolute magnetization    =   130.10 Bohr mag/cell

     iteration #  5     ecut=    50.00 Ry     beta= 0.50
     Davidson diagonalization with overlap
     ethr =  8.70E-03,  avg # of iterations =  1.5

     negative rho (up, down):  5.273E-01 1.718E-05
 
     Adding external electric field

     Computed dipole along edir(3) : 
        Dipole               -3.1000 Ry au,         -7.8794 Debye
        Dipole field         -0.0019 Ry au, 
 
        Potential amp.        0.2081 Ry
        Total length         54.2615 bohr
 
 
     Adding external electric field

     Computed dipole along edir(3) : 
        Dipole               -3.1000 Ry au,         -7.8794 Debye
        Dipole field         -0.0019 Ry au, 
 
        Potential amp.        0.2081 Ry
        Total length         54.2615 bohr
 

     total cpu time spent up to now is      118.4 secs

     total energy              =   -7389.81971304 Ry
     estimated scf accuracy    <      57.08280135 Ry

     total magnetization       =    82.00 Bohr mag/cell
     absolute magnetization    =   119.26 Bohr mag/cell

     iteration #  6     ecut=    50.00 Ry     beta= 0.50
     Davidson diagonalization with overlap
     ethr =  5.30E-03,  avg # of iterations =  1.5

     negative rho (up, down):  2.519E-01 0.000E+00
 
     Adding external electric field

     Computed dipole along edir(3) : 
        Dipole               -3.2780 Ry au,         -8.3318 Debye
        Dipole field         -0.0020 Ry au, 
 
        Potential amp.        0.2200 Ry
        Total length         54.2615 bohr
 
 
     Adding external electric field

     Computed dipole along edir(3) : 
        Dipole               -3.2780 Ry au,         -8.3318 Debye
        Dipole field         -0.0020 Ry au, 
 
        Potential amp.        0.2200 Ry
        Total length         54.2615 bohr
 

     total cpu time spent up to now is      131.5 secs

     total energy              =   -7392.92783217 Ry
     estimated scf accuracy    <      39.03864280 Ry

     total magnetization       =    78.66 Bohr mag/cell
     absolute magnetization    =   104.20 Bohr mag/cell

     iteration #  7     ecut=    50.00 Ry     beta= 0.50
     Davidson diagonalization with overlap
     ethr =  3.62E-03,  avg # of iterations =  1.5

     negative rho (up, down):  1.314E-03 2.558E-03
 
     Adding external electric field

     Computed dipole along edir(3) : 
        Dipole               -3.8101 Ry au,         -9.6844 Debye
        Dipole field         -0.0024 Ry au, 
 
        Potential amp.        0.2557 Ry
        Total length         54.2615 bohr
 
 
     Adding external electric field

     Computed dipole along edir(3) : 
        Dipole               -3.8101 Ry au,         -9.6844 Debye
        Dipole field         -0.0024 Ry au, 
 
        Potential amp.        0.2557 Ry
        Total length         54.2615 bohr
 

     total cpu time spent up to now is      144.7 secs

     total energy              =   -7396.76562506 Ry
     estimated scf accuracy    <      17.81469444 Ry

     total magnetization       =    80.39 Bohr mag/cell
     absolute magnetization    =    99.66 Bohr mag/cell

     iteration #  8     ecut=    50.00 Ry     beta= 0.50
     Davidson diagonalization with overlap
     ethr =  1.65E-03,  avg # of iterations =  2.0

     negative rho (up, down):  8.416E-06 8.056E-03
 
     Adding external electric field

     Computed dipole along edir(3) : 
        Dipole               -3.8569 Ry au,         -9.8032 Debye
        Dipole field         -0.0024 Ry au, 
 
        Potential amp.        0.2588 Ry
        Total length         54.2615 bohr
 
 
     Adding external electric field

     Computed dipole along edir(3) : 
        Dipole               -3.8569 Ry au,         -9.8032 Debye
        Dipole field         -0.0024 Ry au, 
 
        Potential amp.        0.2588 Ry
        Total length         54.2615 bohr
 

     total cpu time spent up to now is      159.3 secs

     total energy              =   -7396.93803910 Ry
     estimated scf accuracy    <      30.06225684 Ry

     total magnetization       =    76.65 Bohr mag/cell
     absolute magnetization    =    88.68 Bohr mag/cell

     iteration #  9     ecut=    50.00 Ry     beta= 0.50
     Davidson diagonalization with overlap
     ethr =  1.65E-03,  avg # of iterations =  2.0

     negative rho (up, down):  1.811E-06 5.881E-03
 
     Adding external electric field

     Computed dipole along edir(3) : 
        Dipole               -3.9108 Ry au,         -9.9403 Debye
        Dipole field         -0.0024 Ry au, 
 
        Potential amp.        0.2625 Ry
        Total length         54.2615 bohr
 
 
     Adding external electric field

     Computed dipole along edir(3) : 
        Dipole               -3.9108 Ry au,         -9.9403 Debye
        Dipole field         -0.0024 Ry au, 
 
        Potential amp.        0.2625 Ry
        Total length         54.2615 bohr
 

     total cpu time spent up to now is      173.6 secs

     total energy              =   -7397.90787527 Ry
     estimated scf accuracy    <       8.57456658 Ry

     total magnetization       =    77.38 Bohr mag/cell
     absolute magnetization    =    85.78 Bohr mag/cell

     iteration # 10     ecut=    50.00 Ry     beta= 0.50
     Davidson diagonalization with overlap
     ethr =  7.95E-04,  avg # of iterations =  8.5

     negative rho (up, down):  1.304E-05 1.223E-02
 
     Adding external electric field

     Computed dipole along edir(3) : 
        Dipole               -3.9666 Ry au,        -10.0820 Debye
        Dipole field         -0.0025 Ry au, 
 
        Potential amp.        0.2662 Ry
        Total length         54.2615 bohr
 
 
     Adding external electric field

     Computed dipole along edir(3) : 
        Dipole               -3.9666 Ry au,        -10.0820 Debye
        Dipole field         -0.0025 Ry au, 
 
        Potential amp.        0.2662 Ry
        Total length         54.2615 bohr
 

     total cpu time spent up to now is      193.8 secs

     total energy              =   -7397.97125774 Ry
     estimated scf accuracy    <       5.42995376 Ry

     total magnetization       =    78.67 Bohr mag/cell
     absolute magnetization    =    85.84 Bohr mag/cell

     iteration # 11     ecut=    50.00 Ry     beta= 0.50
     Davidson diagonalization with overlap
     ethr =  5.04E-04,  avg # of iterations =  2.0

     negative rho (up, down):  3.809E-10 6.795E-04
 
     Adding external electric field

     Computed dipole along edir(3) : 
        Dipole               -3.7202 Ry au,         -9.4559 Debye
        Dipole field         -0.0023 Ry au, 
 
        Potential amp.        0.2497 Ry
        Total length         54.2615 bohr
 
 
     Adding external electric field

     Computed dipole along edir(3) : 
        Dipole               -3.7202 Ry au,         -9.4559 Debye
        Dipole field         -0.0023 Ry au, 
 
        Potential amp.        0.2497 Ry
        Total length         54.2615 bohr
 

     total cpu time spent up to now is      206.6 secs

     total energy              =   -7398.11508958 Ry
     estimated scf accuracy    <      16.87541840 Ry

     total magnetization       =    75.69 Bohr mag/cell
     absolute magnetization    =    80.89 Bohr mag/cell

     iteration # 12     ecut=    50.00 Ry     beta= 0.50
     Davidson diagonalization with overlap
     ethr =  5.04E-04,  avg # of iterations =  1.5

     negative rho (up, down):  1.596E-07 1.144E-03
 
     Adding external electric field

     Computed dipole along edir(3) : 
        Dipole               -3.8321 Ry au,         -9.7401 Debye
        Dipole field         -0.0024 Ry au, 
 
        Potential amp.        0.2572 Ry
        Total length         54.2615 bohr
 
 
     Adding external electric field

     Computed dipole along edir(3) : 
        Dipole               -3.8321 Ry au,         -9.7401 Debye
        Dipole field         -0.0024 Ry au, 
 
        Potential amp.        0.2572 Ry
        Total length         54.2615 bohr
 

     total cpu time spent up to now is      218.9 secs

     total energy              =   -7398.22144100 Ry
     estimated scf accuracy    <      27.71877435 Ry

     total magnetization       =    76.09 Bohr mag/cell
     absolute magnetization    =    80.21 Bohr mag/cell

     iteration # 13     ecut=    50.00 Ry     beta= 0.50
     Davidson diagonalization with overlap
     ethr =  5.04E-04,  avg # of iterations =  1.5

     negative rho (up, down):  5.512E-07 9.863E-05
 
     Adding external electric field

     Computed dipole along edir(3) : 
        Dipole               -3.7695 Ry au,         -9.5812 Debye
        Dipole field         -0.0023 Ry au, 
 
        Potential amp.        0.2530 Ry
        Total length         54.2615 bohr
 
 
     Adding external electric field

     Computed dipole along edir(3) : 
        Dipole               -3.7695 Ry au,         -9.5812 Debye
        Dipole field         -0.0023 Ry au, 
 
        Potential amp.        0.2530 Ry
        Total length         54.2615 bohr
 

     total cpu time spent up to now is      231.3 secs

     total energy              =   -7398.49568621 Ry
     estimated scf accuracy    <      65.97083708 Ry

     total magnetization       =    75.74 Bohr mag/cell
     absolute magnetization    =    81.06 Bohr mag/cell

     iteration # 14     ecut=    50.00 Ry     beta= 0.50
     Davidson diagonalization with overlap
     ethr =  5.04E-04,  avg # of iterations =  1.5

     negative rho (up, down):  1.376E-07 9.982E-04
 
     Adding external electric field

     Computed dipole along edir(3) : 
        Dipole               -3.7188 Ry au,         -9.4523 Debye
        Dipole field         -0.0023 Ry au, 
 
        Potential amp.        0.2496 Ry
        Total length         54.2615 bohr
 
 
     Adding external electric field

     Computed dipole along edir(3) : 
        Dipole               -3.7188 Ry au,         -9.4523 Debye
        Dipole field         -0.0023 Ry au, 
 
        Potential amp.        0.2496 Ry
        Total length         54.2615 bohr
 

     total cpu time spent up to now is      243.5 secs

     total energy              =   -7398.26426308 Ry
     estimated scf accuracy    <      93.64227984 Ry

     total magnetization       =    73.93 Bohr mag/cell
     absolute magnetization    =    79.22 Bohr mag/cell

     iteration # 15     ecut=    50.00 Ry     beta= 0.50
     Davidson diagonalization with overlap
     ethr =  5.04E-04,  avg # of iterations =  1.5

     negative rho (up, down):  3.423E-07 4.143E-03
 
     Adding external electric field

     Computed dipole along edir(3) : 
        Dipole               -3.7450 Ry au,         -9.5189 Debye
        Dipole field         -0.0023 Ry au, 
 
        Potential amp.        0.2513 Ry
        Total length         54.2615 bohr
 
 
     Adding external electric field

     Computed dipole along edir(3) : 
        Dipole               -3.7450 Ry au,         -9.5189 Debye
        Dipole field         -0.0023 Ry au, 
 
        Potential amp.        0.2513 Ry
        Total length         54.2615 bohr
 

     total cpu time spent up to now is      255.7 secs

     total energy              =   -7398.45245147 Ry
     estimated scf accuracy    <      94.93991460 Ry

     total magnetization       =    69.74 Bohr mag/cell
     absolute magnetization    =    73.96 Bohr mag/cell

     iteration # 16     ecut=    50.00 Ry     beta= 0.50
     Davidson diagonalization with overlap
     ethr =  5.04E-04,  avg # of iterations =  1.0

     negative rho (up, down):  1.060E-06 1.424E-03
 
     Adding external electric field

     Computed dipole along edir(3) : 
        Dipole               -3.6832 Ry au,         -9.3617 Debye
        Dipole field         -0.0023 Ry au, 
 
        Potential amp.        0.2472 Ry
        Total length         54.2615 bohr
 
 
     Adding external electric field

     Computed dipole along edir(3) : 
        Dipole               -3.6832 Ry au,         -9.3617 Debye
        Dipole field         -0.0023 Ry au, 
 
        Potential amp.        0.2472 Ry
        Total length         54.2615 bohr
 

     total cpu time spent up to now is      267.4 secs

     total energy              =   -7398.40274922 Ry
     estimated scf accuracy    <     126.51357098 Ry

     total magnetization       =    66.29 Bohr mag/cell
     absolute magnetization    =    71.04 Bohr mag/cell

     iteration # 17     ecut=    50.00 Ry     beta= 0.50
     Davidson diagonalization with overlap
     ethr =  5.04E-04,  avg # of iterations =  1.0

     negative rho (up, down):  4.376E-07 6.475E-04
 
     Adding external electric field

     Computed dipole along edir(3) : 
        Dipole               -3.7217 Ry au,         -9.4596 Debye
        Dipole field         -0.0023 Ry au, 
 
        Potential amp.        0.2498 Ry
        Total length         54.2615 bohr
 
 
     Adding external electric field

     Computed dipole along edir(3) : 
        Dipole               -3.7217 Ry au,         -9.4596 Debye
        Dipole field         -0.0023 Ry au, 
 
        Potential amp.        0.2498 Ry
        Total length         54.2615 bohr
 

     total cpu time spent up to now is      278.7 secs

     total energy              =   -7398.27311154 Ry
     estimated scf accuracy    <      94.96257572 Ry

     total magnetization       =    69.08 Bohr mag/cell
     absolute magnetization    =    73.10 Bohr mag/cell

     iteration # 18     ecut=    50.00 Ry     beta= 0.50
     Davidson diagonalization with overlap
     ethr =  5.04E-04,  avg # of iterations =  1.0

     negative rho (up, down):  3.763E-06 4.780E-05
 
     Adding external electric field

     Computed dipole along edir(3) : 
        Dipole               -3.4617 Ry au,         -8.7988 Debye
        Dipole field         -0.0021 Ry au, 
 
        Potential amp.        0.2323 Ry
        Total length         54.2615 bohr
 
 
     Adding external electric field

     Computed dipole along edir(3) : 
        Dipole               -3.4617 Ry au,         -8.7988 Debye
        Dipole field         -0.0021 Ry au, 
 
        Potential amp.        0.2323 Ry
        Total length         54.2615 bohr
 

     total cpu time spent up to now is      289.9 secs

     total energy              =   -7398.38338783 Ry
     estimated scf accuracy    <      70.81926248 Ry

     total magnetization       =    74.60 Bohr mag/cell
     absolute magnetization    =    78.77 Bohr mag/cell

     iteration # 19     ecut=    50.00 Ry     beta= 0.50
     Davidson diagonalization with overlap
     ethr =  5.04E-04,  avg # of iterations =  1.0

     negative rho (up, down):  1.369E-04 1.924E-06
 
     Adding external electric field

     Computed dipole along edir(3) : 
        Dipole               -3.1280 Ry au,         -7.9505 Debye
        Dipole field         -0.0019 Ry au, 
 
        Potential amp.        0.2099 Ry
        Total length         54.2615 bohr
 
 
     Adding external electric field

     Computed dipole along edir(3) : 
        Dipole               -3.1280 Ry au,         -7.9505 Debye
        Dipole field         -0.0019 Ry au, 
 
        Potential amp.        0.2099 Ry
        Total length         54.2615 bohr
 

     total cpu time spent up to now is      301.4 secs

     total energy              =   -7398.49885310 Ry
     estimated scf accuracy    <      57.05398485 Ry

     total magnetization       =    75.21 Bohr mag/cell
     absolute magnetization    =    78.88 Bohr mag/cell

     iteration # 20     ecut=    50.00 Ry     beta= 0.50
     Davidson diagonalization with overlap
     ethr =  5.04E-04,  avg # of iterations =  1.5

     negative rho (up, down):  1.220E-04 2.783E-07
 
     Adding external electric field

     Computed dipole along edir(3) : 
        Dipole               -2.9673 Ry au,         -7.5422 Debye
        Dipole field         -0.0018 Ry au, 
 
        Potential amp.        0.1991 Ry
        Total length         54.2615 bohr
 
 
     Adding external electric field

     Computed dipole along edir(3) : 
        Dipole               -2.9673 Ry au,         -7.5422 Debye
        Dipole field         -0.0018 Ry au, 
 
        Potential amp.        0.1991 Ry
        Total length         54.2615 bohr
 

     total cpu time spent up to now is      314.2 secs

     total energy              =   -7398.52045040 Ry
     estimated scf accuracy    <      64.16026782 Ry

     total magnetization       =    77.09 Bohr mag/cell
     absolute magnetization    =    80.05 Bohr mag/cell

     iteration # 21     ecut=    50.00 Ry     beta= 0.50
     Davidson diagonalization with overlap
     ethr =  5.04E-04,  avg # of iterations =  1.0

     negative rho (up, down):  8.310E-06 1.928E-04
 
     Adding external electric field

     Computed dipole along edir(3) : 
        Dipole               -2.3371 Ry au,         -5.9402 Debye
        Dipole field         -0.0014 Ry au, 
 
        Potential amp.        0.1568 Ry
        Total length         54.2615 bohr
 
 
     Adding external electric field

     Computed dipole along edir(3) : 
        Dipole               -2.3371 Ry au,         -5.9402 Debye
        Dipole field         -0.0014 Ry au, 
 
        Potential amp.        0.1568 Ry
        Total length         54.2615 bohr
 

     total cpu time spent up to now is      325.5 secs

     total energy              =   -7397.11266072 Ry
     estimated scf accuracy    <      56.44110374 Ry

     total magnetization       =    77.30 Bohr mag/cell
     absolute magnetization    =    79.96 Bohr mag/cell

     iteration # 22     ecut=    50.00 Ry     beta= 0.50
     Davidson diagonalization with overlap
     ethr =  5.04E-04,  avg # of iterations =  2.5

     negative rho (up, down):  7.557E-05 0.000E+00
 
     Adding external electric field

     Computed dipole along edir(3) : 
        Dipole               -2.3971 Ry au,         -6.0928 Debye
        Dipole field         -0.0015 Ry au, 
 
        Potential amp.        0.1609 Ry
        Total length         54.2615 bohr
 
 
     Adding external electric field

     Computed dipole along edir(3) : 
        Dipole               -2.3971 Ry au,         -6.0928 Debye
        Dipole field         -0.0015 Ry au, 
 
        Potential amp.        0.1609 Ry
        Total length         54.2615 bohr
 

     total cpu time spent up to now is      339.6 secs

     total energy              =   -7396.60393199 Ry
     estimated scf accuracy    <      95.32772531 Ry

     total magnetization       =    71.96 Bohr mag/cell
     absolute magnetization    =    75.79 Bohr mag/cell

     iteration # 23     ecut=    50.00 Ry     beta= 0.50
     Davidson diagonalization with overlap
     ethr =  5.04E-04,  avg # of iterations =  2.0

     negative rho (up, down):  9.137E-05 3.747E-02
 
     Adding external electric field

     Computed dipole along edir(3) : 
        Dipole               -2.0356 Ry au,         -5.1740 Debye
        Dipole field         -0.0013 Ry au, 
 
        Potential amp.        0.1366 Ry
        Total length         54.2615 bohr
 
 
     Adding external electric field

     Computed dipole along edir(3) : 
        Dipole               -2.0356 Ry au,         -5.1740 Debye
        Dipole field         -0.0013 Ry au, 
 
        Potential amp.        0.1366 Ry
        Total length         54.2615 bohr
 

     total cpu time spent up to now is      353.3 secs

     total energy              =   -7397.58427696 Ry
     estimated scf accuracy    <      39.26992958 Ry

     total magnetization       =    81.63 Bohr mag/cell
     absolute magnetization    =    84.96 Bohr mag/cell

     iteration # 24     ecut=    50.00 Ry     beta= 0.50
     Davidson diagonalization with overlap
     ethr =  5.04E-04,  avg # of iterations =  1.5

     negative rho (up, down):  8.394E-05 1.491E-01
 
     Adding external electric field

     Computed dipole along edir(3) : 
        Dipole               -1.9063 Ry au,         -4.8453 Debye
        Dipole field         -0.0012 Ry au, 
 
        Potential amp.        0.1279 Ry
        Total length         54.2615 bohr
 
 
     Adding external electric field

     Computed dipole along edir(3) : 
        Dipole               -1.9063 Ry au,         -4.8453 Debye
        Dipole field         -0.0012 Ry au, 
 
        Potential amp.        0.1279 Ry
        Total length         54.2615 bohr
 

     total cpu time spent up to now is      365.8 secs

     total energy              =   -7397.36389362 Ry
     estimated scf accuracy    <      30.64860271 Ry

     total magnetization       =    79.79 Bohr mag/cell
     absolute magnetization    =    84.29 Bohr mag/cell

     iteration # 25     ecut=    50.00 Ry     beta= 0.50
     Davidson diagonalization with overlap
     ethr =  5.04E-04,  avg # of iterations =  1.0

     negative rho (up, down):  3.426E-04 1.337E+00
 
     Adding external electric field

     Computed dipole along edir(3) : 
        Dipole               -1.1057 Ry au,         -2.8105 Debye
        Dipole field         -0.0007 Ry au, 
 
        Potential amp.        0.0742 Ry
        Total length         54.2615 bohr
 
 
     Adding external electric field

     Computed dipole along edir(3) : 
        Dipole               -1.1057 Ry au,         -2.8105 Debye
        Dipole field         -0.0007 Ry au, 
 
        Potential amp.        0.0742 Ry
        Total length         54.2615 bohr
 

     total cpu time spent up to now is      377.4 secs

     total energy              =   -7395.99657568 Ry
     estimated scf accuracy    <      30.37732378 Ry

     total magnetization       =    77.93 Bohr mag/cell
     absolute magnetization    =    84.25 Bohr mag/cell

     iteration # 26     ecut=    50.00 Ry     beta= 0.50
     Davidson diagonalization with overlap
     ethr =  5.04E-04,  avg # of iterations =  2.5

     negative rho (up, down):  3.893E-04 9.218E-01
 
     Adding external electric field

     Computed dipole along edir(3) : 
        Dipole               -0.9254 Ry au,         -2.3520 Debye
        Dipole field         -0.0006 Ry au, 
 
        Potential amp.        0.0621 Ry
        Total length         54.2615 bohr
 
 
     Adding external electric field

     Computed dipole along edir(3) : 
        Dipole               -0.9254 Ry au,         -2.3520 Debye
        Dipole field         -0.0006 Ry au, 
 
        Potential amp.        0.0621 Ry
        Total length         54.2615 bohr
 

     total cpu time spent up to now is      391.2 secs

     total energy              =   -7395.43470727 Ry
     estimated scf accuracy    <      30.15456130 Ry

     total magnetization       =    77.00 Bohr mag/cell
     absolute magnetization    =    80.62 Bohr mag/cell

     iteration # 27     ecut=    50.00 Ry     beta= 0.50
     Davidson diagonalization with overlap
     ethr =  5.04E-04,  avg # of iterations =  2.0

     negative rho (up, down):  7.582E-07 4.583E-09
 
     Adding external electric field

     Computed dipole along edir(3) : 
        Dipole               -1.8349 Ry au,         -4.6639 Debye
        Dipole field         -0.0011 Ry au, 
 
        Potential amp.        0.1231 Ry
        Total length         54.2615 bohr
 
 
     Adding external electric field

     Computed dipole along edir(3) : 
        Dipole               -1.8349 Ry au,         -4.6639 Debye
        Dipole field         -0.0011 Ry au, 
 
        Potential amp.        0.1231 Ry
        Total length         54.2615 bohr
 

     total cpu time spent up to now is      404.7 secs

     total energy              =   -7396.57551263 Ry
     estimated scf accuracy    <      38.03171004 Ry

     total magnetization       =    75.90 Bohr mag/cell
     absolute magnetization    =    79.22 Bohr mag/cell

     iteration # 28     ecut=    50.00 Ry     beta= 0.50
     Davidson diagonalization with overlap
     ethr =  5.04E-04,  avg # of iterations =  2.0

     negative rho (up, down):  3.143E-05 1.580E-07
 
     Adding external electric field

     Computed dipole along edir(3) : 
        Dipole               -1.8619 Ry au,         -4.7325 Debye
        Dipole field         -0.0012 Ry au, 
 
        Potential amp.        0.1250 Ry
        Total length         54.2615 bohr
 
 
     Adding external electric field

     Computed dipole along edir(3) : 
        Dipole               -1.8619 Ry au,         -4.7325 Debye
        Dipole field         -0.0012 Ry au, 
 
        Potential amp.        0.1250 Ry
        Total length         54.2615 bohr
 

     total cpu time spent up to now is      418.3 secs

     total energy              =   -7396.90396260 Ry
     estimated scf accuracy    <      52.98402060 Ry

     total magnetization       =    78.46 Bohr mag/cell
     absolute magnetization    =    81.43 Bohr mag/cell

     iteration # 29     ecut=    50.00 Ry     beta= 0.50
     Davidson diagonalization with overlap
     ethr =  5.04E-04,  avg # of iterations =  2.0

     negative rho (up, down):  1.485E-03 3.335E-02
 
     Adding external electric field

     Computed dipole along edir(3) : 
        Dipole               -2.4076 Ry au,         -6.1194 Debye
        Dipole field         -0.0015 Ry au, 
 
        Potential amp.        0.1616 Ry
        Total length         54.2615 bohr
 
 
     Adding external electric field

     Computed dipole along edir(3) : 
        Dipole               -2.4076 Ry au,         -6.1194 Debye
        Dipole field         -0.0015 Ry au, 
 
        Potential amp.        0.1616 Ry
        Total length         54.2615 bohr
 

     total cpu time spent up to now is      431.9 secs

     total energy              =   -7397.45651045 Ry
     estimated scf accuracy    <      18.52314376 Ry

     total magnetization       =    79.18 Bohr mag/cell
     absolute magnetization    =    81.44 Bohr mag/cell

     iteration # 30     ecut=    50.00 Ry     beta= 0.50
     Davidson diagonalization with overlap
     ethr =  5.04E-04,  avg # of iterations =  2.0

     negative rho (up, down):  1.078E-05 8.628E-08
 
     Adding external electric field

     Computed dipole along edir(3) : 
        Dipole               -1.8565 Ry au,         -4.7188 Debye
        Dipole field         -0.0011 Ry au, 
 
        Potential amp.        0.1246 Ry
        Total length         54.2615 bohr
 
 
     Adding external electric field

     Computed dipole along edir(3) : 
        Dipole               -1.8565 Ry au,         -4.7188 Debye
        Dipole field         -0.0011 Ry au, 
 
        Potential amp.        0.1246 Ry
        Total length         54.2615 bohr
 

     total cpu time spent up to now is      445.1 secs

     total energy              =   -7397.70300796 Ry
     estimated scf accuracy    <      11.03560234 Ry

     total magnetization       =    74.07 Bohr mag/cell
     absolute magnetization    =    75.77 Bohr mag/cell

     iteration # 31     ecut=    50.00 Ry     beta= 0.50
     Davidson diagonalization with overlap
     ethr =  5.04E-04,  avg # of iterations =  2.0

     negative rho (up, down):  4.331E-06 4.516E-08
 
     Adding external electric field

     Computed dipole along edir(3) : 
        Dipole               -1.7739 Ry au,         -4.5088 Debye
        Dipole field         -0.0011 Ry au, 
 
        Potential amp.        0.1191 Ry
        Total length         54.2615 bohr
 
 
     Adding external electric field

     Computed dipole along edir(3) : 
        Dipole               -1.7739 Ry au,         -4.5088 Debye
        Dipole field         -0.0011 Ry au, 
 
        Potential amp.        0.1191 Ry
        Total length         54.2615 bohr
 

     total cpu time spent up to now is      458.4 secs

     total energy              =   -7397.84505916 Ry
     estimated scf accuracy    <       4.79709637 Ry

     total magnetization       =    78.01 Bohr mag/cell
     absolute magnetization    =    79.73 Bohr mag/cell

     iteration # 32     ecut=    50.00 Ry     beta= 0.50
     Davidson diagonalization with overlap
     ethr =  4.45E-04,  avg # of iterations =  1.0

     negative rho (up, down):  9.303E-08 1.560E-10
 
     Adding external electric field

     Computed dipole along edir(3) : 
        Dipole               -1.6233 Ry au,         -4.1260 Debye
        Dipole field         -0.0010 Ry au, 
 
        Potential amp.        0.1089 Ry
        Total length         54.2615 bohr
 
 
     Adding external electric field

     Computed dipole along edir(3) : 
        Dipole               -1.6233 Ry au,         -4.1260 Debye
        Dipole field         -0.0010 Ry au, 
 
        Potential amp.        0.1089 Ry
        Total length         54.2615 bohr
 

     total cpu time spent up to now is      470.5 secs

     total energy              =   -7397.98923290 Ry
     estimated scf accuracy    <       1.11532831 Ry

     total magnetization       =    80.10 Bohr mag/cell
     absolute magnetization    =    81.76 Bohr mag/cell

     iteration # 33     ecut=    50.00 Ry     beta= 0.50
     Davidson diagonalization with overlap
     ethr =  1.03E-04,  avg # of iterations = 12.5
 
     Adding external electric field

     Computed dipole along edir(3) : 
        Dipole               -1.5126 Ry au,         -3.8447 Debye
        Dipole field         -0.0009 Ry au, 
 
        Potential amp.        0.1015 Ry
        Total length         54.2615 bohr
 
 
     Adding external electric field

     Computed dipole along edir(3) : 
        Dipole               -1.5126 Ry au,         -3.8447 Debye
        Dipole field         -0.0009 Ry au, 
 
        Potential amp.        0.1015 Ry
        Total length         54.2615 bohr
 

     total cpu time spent up to now is      497.8 secs

     total energy              =   -7398.04479049 Ry
     estimated scf accuracy    <       0.56877442 Ry

     total magnetization       =    80.34 Bohr mag/cell
     absolute magnetization    =    81.99 Bohr mag/cell

     iteration # 34     ecut=    50.00 Ry     beta= 0.50
     Davidson diagonalization with overlap
     c_bands:  2 eigenvalues not converged
     ethr =  5.28E-05,  avg # of iterations = 10.5
 
     Adding external electric field

     Computed dipole along edir(3) : 
        Dipole               -1.3733 Ry au,         -3.4906 Debye
        Dipole field         -0.0008 Ry au, 
 
        Potential amp.        0.0922 Ry
        Total length         54.2615 bohr
 
 
     Adding external electric field

     Computed dipole along edir(3) : 
        Dipole               -1.3733 Ry au,         -3.4906 Debye
        Dipole field         -0.0008 Ry au, 
 
        Potential amp.        0.0922 Ry
        Total length         54.2615 bohr
 

     total cpu time spent up to now is      519.8 secs

     total energy              =   -7398.05000496 Ry
     estimated scf accuracy    <       0.42845373 Ry

     total magnetization       =    80.80 Bohr mag/cell
     absolute magnetization    =    82.38 Bohr mag/cell

     iteration # 35     ecut=    50.00 Ry     beta= 0.50
     Davidson diagonalization with overlap
     ethr =  3.97E-05,  avg # of iterations =  1.5
 
     Adding external electric field

     Computed dipole along edir(3) : 
        Dipole               -1.3067 Ry au,         -3.3214 Debye
        Dipole field         -0.0008 Ry au, 
 
        Potential amp.        0.0877 Ry
        Total length         54.2615 bohr
 
 
     Adding external electric field

     Computed dipole along edir(3) : 
        Dipole               -1.3067 Ry au,         -3.3214 Debye
        Dipole field         -0.0008 Ry au, 
 
        Potential amp.        0.0877 Ry
        Total length         54.2615 bohr
 

     total cpu time spent up to now is      533.0 secs

     total energy              =   -7398.05380486 Ry
     estimated scf accuracy    <       0.56692350 Ry

     total magnetization       =    79.93 Bohr mag/cell
     absolute magnetization    =    81.47 Bohr mag/cell

     iteration # 36     ecut=    50.00 Ry     beta= 0.50
     Davidson diagonalization with overlap
     ethr =  3.97E-05,  avg # of iterations =  1.0
 
     Adding external electric field

     Computed dipole along edir(3) : 
        Dipole               -1.2357 Ry au,         -3.1407 Debye
        Dipole field         -0.0008 Ry au, 
 
        Potential amp.        0.0829 Ry
        Total length         54.2615 bohr
 
 
     Adding external electric field

     Computed dipole along edir(3) : 
        Dipole               -1.2357 Ry au,         -3.1407 Debye
        Dipole field         -0.0008 Ry au, 
 
        Potential amp.        0.0829 Ry
        Total length         54.2615 bohr
 

     total cpu time spent up to now is      545.3 secs

     total energy              =   -7398.05148603 Ry
     estimated scf accuracy    <       0.47853436 Ry

     total magnetization       =    80.32 Bohr mag/cell
     absolute magnetization    =    81.81 Bohr mag/cell

     iteration # 37     ecut=    50.00 Ry     beta= 0.50
     Davidson diagonalization with overlap
     ethr =  3.97E-05,  avg # of iterations =  1.0
 
     Adding external electric field

     Computed dipole along edir(3) : 
        Dipole               -1.3104 Ry au,         -3.3308 Debye
        Dipole field         -0.0008 Ry au, 
 
        Potential amp.        0.0879 Ry
        Total length         54.2615 bohr
 
 
     Adding external electric field

     Computed dipole along edir(3) : 
        Dipole               -1.3104 Ry au,         -3.3308 Debye
        Dipole field         -0.0008 Ry au, 
 
        Potential amp.        0.0879 Ry
        Total length         54.2615 bohr
 

     total cpu time spent up to now is      558.0 secs

     total energy              =   -7398.04780987 Ry
     estimated scf accuracy    <       0.56854915 Ry

     total magnetization       =    80.13 Bohr mag/cell
     absolute magnetization    =    81.61 Bohr mag/cell

     iteration # 38     ecut=    50.00 Ry     beta= 0.50
     Davidson diagonalization with overlap
     ethr =  3.97E-05,  avg # of iterations =  1.0
 
     Adding external electric field

     Computed dipole along edir(3) : 
        Dipole               -1.3492 Ry au,         -3.4294 Debye
        Dipole field         -0.0008 Ry au, 
 
        Potential amp.        0.0906 Ry
        Total length         54.2615 bohr
 
 
     Adding external electric field

     Computed dipole along edir(3) : 
        Dipole               -1.3492 Ry au,         -3.4294 Debye
        Dipole field         -0.0008 Ry au, 
 
        Potential amp.        0.0906 Ry
        Total length         54.2615 bohr
 

     total cpu time spent up to now is      570.5 secs

     total energy              =   -7398.04842697 Ry
     estimated scf accuracy    <       0.41568290 Ry

     total magnetization       =    79.75 Bohr mag/cell
     absolute magnetization    =    81.25 Bohr mag/cell

     iteration # 39     ecut=    50.00 Ry     beta= 0.50
     Davidson diagonalization with overlap
     ethr =  3.86E-05,  avg # of iterations =  1.0
 
     Adding external electric field

     Computed dipole along edir(3) : 
        Dipole               -1.4286 Ry au,         -3.6311 Debye
        Dipole field         -0.0009 Ry au, 
 
        Potential amp.        0.0959 Ry
        Total length         54.2615 bohr
 
 
     Adding external electric field

     Computed dipole along edir(3) : 
        Dipole               -1.4286 Ry au,         -3.6311 Debye
        Dipole field         -0.0009 Ry au, 
 
        Potential amp.        0.0959 Ry
        Total length         54.2615 bohr
 

     total cpu time spent up to now is      582.5 secs

     total energy              =   -7398.05341694 Ry
     estimated scf accuracy    <       0.36417963 Ry

     total magnetization       =    80.33 Bohr mag/cell
     absolute magnetization    =    81.83 Bohr mag/cell

     iteration # 40     ecut=    50.00 Ry     beta= 0.50
     Davidson diagonalization with overlap
     ethr =  3.38E-05,  avg # of iterations =  1.0
 
     Adding external electric field

     Computed dipole along edir(3) : 
        Dipole               -1.4181 Ry au,         -3.6045 Debye
        Dipole field         -0.0009 Ry au, 
 
        Potential amp.        0.0952 Ry
        Total length         54.2615 bohr
 
 
     Adding external electric field

     Computed dipole along edir(3) : 
        Dipole               -1.4181 Ry au,         -3.6045 Debye
        Dipole field         -0.0009 Ry au, 
 
        Potential amp.        0.0952 Ry
        Total length         54.2615 bohr
 

     total cpu time spent up to now is      594.6 secs

     total energy              =   -7398.05554666 Ry
     estimated scf accuracy    <       0.35623917 Ry

     total magnetization       =    79.73 Bohr mag/cell
     absolute magnetization    =    81.32 Bohr mag/cell

     iteration # 41     ecut=    50.00 Ry     beta= 0.50
     Davidson diagonalization with overlap
     ethr =  3.30E-05,  avg # of iterations =  1.0
 
     Adding external electric field

     Computed dipole along edir(3) : 
        Dipole               -1.4051 Ry au,         -3.5713 Debye
        Dipole field         -0.0009 Ry au, 
 
        Potential amp.        0.0943 Ry
        Total length         54.2615 bohr
 
 
     Adding external electric field

     Computed dipole along edir(3) : 
        Dipole               -1.4051 Ry au,         -3.5713 Debye
        Dipole field         -0.0009 Ry au, 
 
        Potential amp.        0.0943 Ry
        Total length         54.2615 bohr
 

     total cpu time spent up to now is      606.5 secs

     total energy              =   -7398.06046366 Ry
     estimated scf accuracy    <       0.23022461 Ry

     total magnetization       =    80.34 Bohr mag/cell
     absolute magnetization    =    81.92 Bohr mag/cell

     iteration # 42     ecut=    50.00 Ry     beta= 0.50
     Davidson diagonalization with overlap
     ethr =  2.14E-05,  avg # of iterations =  1.0
 
     Adding external electric field

     Computed dipole along edir(3) : 
        Dipole               -1.4173 Ry au,         -3.6025 Debye
        Dipole field         -0.0009 Ry au, 
 
        Potential amp.        0.0951 Ry
        Total length         54.2615 bohr
 
 
     Adding external electric field

     Computed dipole along edir(3) : 
        Dipole               -1.4173 Ry au,         -3.6025 Debye
        Dipole field         -0.0009 Ry au, 
 
        Potential amp.        0.0951 Ry
        Total length         54.2615 bohr
 

     total cpu time spent up to now is      618.4 secs

     total energy              =   -7398.06029762 Ry
     estimated scf accuracy    <       0.20800576 Ry

     total magnetization       =    80.26 Bohr mag/cell
     absolute magnetization    =    81.86 Bohr mag/cell

     iteration # 43     ecut=    50.00 Ry     beta= 0.50
     Davidson diagonalization with overlap
     ethr =  1.93E-05,  avg # of iterations =  1.0
 
     Adding external electric field

     Computed dipole along edir(3) : 
        Dipole               -1.3904 Ry au,         -3.5340 Debye
        Dipole field         -0.0009 Ry au, 
 
        Potential amp.        0.0933 Ry
        Total length         54.2615 bohr
 
 
     Adding external electric field

     Computed dipole along edir(3) : 
        Dipole               -1.3904 Ry au,         -3.5340 Debye
        Dipole field         -0.0009 Ry au, 
 
        Potential amp.        0.0933 Ry
        Total length         54.2615 bohr
 

     total cpu time spent up to now is      630.1 secs

     total energy              =   -7398.06090168 Ry
     estimated scf accuracy    <       0.21619393 Ry

     total magnetization       =    80.27 Bohr mag/cell
     absolute magnetization    =    81.87 Bohr mag/cell

     iteration # 44     ecut=    50.00 Ry     beta= 0.50
     Davidson diagonalization with overlap
     ethr =  1.93E-05,  avg # of iterations =  1.0
 
     Adding external electric field

     Computed dipole along edir(3) : 
        Dipole               -1.3778 Ry au,         -3.5021 Debye
        Dipole field         -0.0009 Ry au, 
 
        Potential amp.        0.0925 Ry
        Total length         54.2615 bohr
 
 
     Adding external electric field

     Computed dipole along edir(3) : 
        Dipole               -1.3778 Ry au,         -3.5021 Debye
        Dipole field         -0.0009 Ry au, 
 
        Potential amp.        0.0925 Ry
        Total length         54.2615 bohr
 

     total cpu time spent up to now is      641.6 secs

     total energy              =   -7398.06268044 Ry
     estimated scf accuracy    <       0.24224515 Ry

     total magnetization       =    80.19 Bohr mag/cell
     absolute magnetization    =    81.78 Bohr mag/cell

     iteration # 45     ecut=    50.00 Ry     beta= 0.50
     Davidson diagonalization with overlap
     ethr =  1.93E-05,  avg # of iterations =  1.0
 
     Adding external electric field

     Computed dipole along edir(3) : 
        Dipole               -1.3569 Ry au,         -3.4489 Debye
        Dipole field         -0.0008 Ry au, 
 
        Potential amp.        0.0911 Ry
        Total length         54.2615 bohr
 
 
     Adding external electric field

     Computed dipole along edir(3) : 
        Dipole               -1.3569 Ry au,         -3.4489 Debye
        Dipole field         -0.0008 Ry au, 
 
        Potential amp.        0.0911 Ry
        Total length         54.2615 bohr
 

     total cpu time spent up to now is      653.1 secs

     total energy              =   -7398.06083438 Ry
     estimated scf accuracy    <       0.13885684 Ry

     total magnetization       =    80.45 Bohr mag/cell
     absolute magnetization    =    82.05 Bohr mag/cell

     iteration # 46     ecut=    50.00 Ry     beta= 0.50
     Davidson diagonalization with overlap
     ethr =  1.29E-05,  avg # of iterations =  1.5
 
     Adding external electric field

     Computed dipole along edir(3) : 
        Dipole               -1.3237 Ry au,         -3.3644 Debye
        Dipole field         -0.0008 Ry au, 
 
        Potential amp.        0.0888 Ry
        Total length         54.2615 bohr
 
 
     Adding external electric field

     Computed dipole along edir(3) : 
        Dipole               -1.3237 Ry au,         -3.3644 Debye
        Dipole field         -0.0008 Ry au, 
 
        Potential amp.        0.0888 Ry
        Total length         54.2615 bohr
 

     total cpu time spent up to now is      665.7 secs

     total energy              =   -7398.06259218 Ry
     estimated scf accuracy    <       0.19972724 Ry

     total magnetization       =    80.03 Bohr mag/cell
     absolute magnetization    =    81.64 Bohr mag/cell

     iteration # 47     ecut=    50.00 Ry     beta= 0.50
     Davidson diagonalization with overlap
     ethr =  1.29E-05,  avg # of iterations =  1.0
 
     Adding external electric field

     Computed dipole along edir(3) : 
        Dipole               -1.2964 Ry au,         -3.2952 Debye
        Dipole field         -0.0008 Ry au, 
 
        Potential amp.        0.0870 Ry
        Total length         54.2615 bohr
 
 
     Adding external electric field

     Computed dipole along edir(3) : 
        Dipole               -1.2964 Ry au,         -3.2952 Debye
        Dipole field         -0.0008 Ry au, 
 
        Potential amp.        0.0870 Ry
        Total length         54.2615 bohr
 

     total cpu time spent up to now is      677.7 secs

     total energy              =   -7398.06242507 Ry
     estimated scf accuracy    <       0.21906757 Ry

     total magnetization       =    79.93 Bohr mag/cell
     absolute magnetization    =    81.54 Bohr mag/cell

     iteration # 48     ecut=    50.00 Ry     beta= 0.50
     Davidson diagonalization with overlap
     ethr =  1.29E-05,  avg # of iterations =  1.0
 
     Adding external electric field

     Computed dipole along edir(3) : 
        Dipole               -1.2147 Ry au,         -3.0875 Debye
        Dipole field         -0.0008 Ry au, 
 
        Potential amp.        0.0815 Ry
        Total length         54.2615 bohr
 
 
     Adding external electric field

     Computed dipole along edir(3) : 
        Dipole               -1.2147 Ry au,         -3.0875 Debye
        Dipole field         -0.0008 Ry au, 
 
        Potential amp.        0.0815 Ry
        Total length         54.2615 bohr
 

     total cpu time spent up to now is      689.7 secs

     total energy              =   -7398.06397769 Ry
     estimated scf accuracy    <       0.19402678 Ry

     total magnetization       =    80.14 Bohr mag/cell
     absolute magnetization    =    81.73 Bohr mag/cell

     iteration # 49     ecut=    50.00 Ry     beta= 0.50
     Davidson diagonalization with overlap
     ethr =  1.29E-05,  avg # of iterations =  1.0
 
     Adding external electric field

     Computed dipole along edir(3) : 
        Dipole               -1.1854 Ry au,         -3.0131 Debye
        Dipole field         -0.0007 Ry au, 
 
        Potential amp.        0.0796 Ry
        Total length         54.2615 bohr
 
 
     Adding external electric field

     Computed dipole along edir(3) : 
        Dipole               -1.1854 Ry au,         -3.0131 Debye
        Dipole field         -0.0007 Ry au, 
 
        Potential amp.        0.0796 Ry
        Total length         54.2615 bohr
 

     total cpu time spent up to now is      701.9 secs

     total energy              =   -7398.06020697 Ry
     estimated scf accuracy    <       0.19255339 Ry

     total magnetization       =    80.02 Bohr mag/cell
     absolute magnetization    =    81.60 Bohr mag/cell

     iteration # 50     ecut=    50.00 Ry     beta= 0.50
     Davidson diagonalization with overlap
     ethr =  1.29E-05,  avg # of iterations =  1.0
 
     Adding external electric field

     Computed dipole along edir(3) : 
        Dipole               -1.1385 Ry au,         -2.8937 Debye
        Dipole field         -0.0007 Ry au, 
 
        Potential amp.        0.0764 Ry
        Total length         54.2615 bohr
 
 
     Adding external electric field

     Computed dipole along edir(3) : 
        Dipole               -1.1385 Ry au,         -2.8937 Debye
        Dipole field         -0.0007 Ry au, 
 
        Potential amp.        0.0764 Ry
        Total length         54.2615 bohr
 

     total cpu time spent up to now is      713.8 secs

     total energy              =   -7398.06100392 Ry
     estimated scf accuracy    <       0.22220648 Ry

     total magnetization       =    80.26 Bohr mag/cell
     absolute magnetization    =    81.82 Bohr mag/cell

     iteration # 51     ecut=    50.00 Ry     beta= 0.50
     Davidson diagonalization with overlap
     ethr =  1.29E-05,  avg # of iterations =  1.0
 
     Adding external electric field

     Computed dipole along edir(3) : 
        Dipole               -1.2443 Ry au,         -3.1628 Debye
        Dipole field         -0.0008 Ry au, 
 
        Potential amp.        0.0835 Ry
        Total length         54.2615 bohr
 
 
     Adding external electric field

     Computed dipole along edir(3) : 
        Dipole               -1.2443 Ry au,         -3.1628 Debye
        Dipole field         -0.0008 Ry au, 
 
        Potential amp.        0.0835 Ry
        Total length         54.2615 bohr
 

     total cpu time spent up to now is      724.8 secs

     total energy              =   -7398.06220132 Ry
     estimated scf accuracy    <       0.19947638 Ry

     total magnetization       =    80.23 Bohr mag/cell
     absolute magnetization    =    81.78 Bohr mag/cell

     iteration # 52     ecut=    50.00 Ry     beta= 0.50
     Davidson diagonalization with overlap
     ethr =  1.29E-05,  avg # of iterations =  1.0
 
     Adding external electric field

     Computed dipole along edir(3) : 
        Dipole               -1.1271 Ry au,         -2.8648 Debye
        Dipole field         -0.0007 Ry au, 
 
        Potential amp.        0.0756 Ry
        Total length         54.2615 bohr
 
 
     Adding external electric field

     Computed dipole along edir(3) : 
        Dipole               -1.1271 Ry au,         -2.8648 Debye
        Dipole field         -0.0007 Ry au, 
 
        Potential amp.        0.0756 Ry
        Total length         54.2615 bohr
 

     total cpu time spent up to now is      735.7 secs

     total energy              =   -7398.06280330 Ry
     estimated scf accuracy    <       0.14097016 Ry

     total magnetization       =    80.18 Bohr mag/cell
     absolute magnetization    =    81.77 Bohr mag/cell

     iteration # 53     ecut=    50.00 Ry     beta= 0.50
     Davidson diagonalization with overlap
     ethr =  1.29E-05,  avg # of iterations =  1.0
 
     Adding external electric field

     Computed dipole along edir(3) : 
        Dipole               -1.0805 Ry au,         -2.7464 Debye
        Dipole field         -0.0007 Ry au, 
 
        Potential amp.        0.0725 Ry
        Total length         54.2615 bohr
 
 
     Adding external electric field

     Computed dipole along edir(3) : 
        Dipole               -1.0805 Ry au,         -2.7464 Debye
        Dipole field         -0.0007 Ry au, 
 
        Potential amp.        0.0725 Ry
        Total length         54.2615 bohr
 

     total cpu time spent up to now is      746.9 secs

     total energy              =   -7398.06216467 Ry
     estimated scf accuracy    <       0.11312241 Ry

     total magnetization       =    80.31 Bohr mag/cell
     absolute magnetization    =    81.88 Bohr mag/cell

     iteration # 54     ecut=    50.00 Ry     beta= 0.50
     Davidson diagonalization with overlap
     ethr =  1.05E-05,  avg # of iterations =  1.0
 
     Adding external electric field

     Computed dipole along edir(3) : 
        Dipole               -0.8625 Ry au,         -2.1924 Debye
        Dipole field         -0.0005 Ry au, 
 
        Potential amp.        0.0579 Ry
        Total length         54.2615 bohr
 
 
     Adding external electric field

     Computed dipole along edir(3) : 
        Dipole               -0.8625 Ry au,         -2.1924 Debye
        Dipole field         -0.0005 Ry au, 
 
        Potential amp.        0.0579 Ry
        Total length         54.2615 bohr
 

     total cpu time spent up to now is      758.1 secs

     total energy              =   -7398.05954836 Ry
     estimated scf accuracy    <       0.10870699 Ry

     total magnetization       =    80.27 Bohr mag/cell
     absolute magnetization    =    81.84 Bohr mag/cell

     iteration # 55     ecut=    50.00 Ry     beta= 0.50
     Davidson diagonalization with overlap
     ethr =  1.01E-05,  avg # of iterations =  1.0
 
     Adding external electric field

     Computed dipole along edir(3) : 
        Dipole               -1.0966 Ry au,         -2.7874 Debye
        Dipole field         -0.0007 Ry au, 
 
        Potential amp.        0.0736 Ry
        Total length         54.2615 bohr
 
 
     Adding external electric field

     Computed dipole along edir(3) : 
        Dipole               -1.0966 Ry au,         -2.7874 Debye
        Dipole field         -0.0007 Ry au, 
 
        Potential amp.        0.0736 Ry
        Total length         54.2615 bohr
 

     total cpu time spent up to now is      768.3 secs

     total energy              =   -7398.05075475 Ry
     estimated scf accuracy    <       0.07385681 Ry

     total magnetization       =    80.37 Bohr mag/cell
     absolute magnetization    =    81.93 Bohr mag/cell

     iteration # 56     ecut=    50.00 Ry     beta= 0.50
     Davidson diagonalization with overlap
     ethr =  6.85E-06,  avg # of iterations =  2.0
 
     Adding external electric field

     Computed dipole along edir(3) : 
        Dipole               -0.8435 Ry au,         -2.1440 Debye
        Dipole field         -0.0005 Ry au, 
 
        Potential amp.        0.0566 Ry
        Total length         54.2615 bohr
 
 
     Adding external electric field

     Computed dipole along edir(3) : 
        Dipole               -0.8435 Ry au,         -2.1440 Debye
        Dipole field         -0.0005 Ry au, 
 
        Potential amp.        0.0566 Ry
        Total length         54.2615 bohr
 

     total cpu time spent up to now is      780.6 secs

     total energy              =   -7398.04608613 Ry
     estimated scf accuracy    <       0.17770524 Ry

     total magnetization       =    80.29 Bohr mag/cell
     absolute magnetization    =    81.86 Bohr mag/cell

     iteration # 57     ecut=    50.00 Ry     beta= 0.50
     Davidson diagonalization with overlap
     ethr =  6.85E-06,  avg # of iterations =  8.0

     negative rho (up, down):  1.037E-06 8.335E-07
 
     Adding external electric field

     Computed dipole along edir(3) : 
        Dipole               -0.3880 Ry au,         -0.9862 Debye
        Dipole field         -0.0002 Ry au, 
 
        Potential amp.        0.0260 Ry
        Total length         54.2615 bohr
 
 
     Adding external electric field

     Computed dipole along edir(3) : 
        Dipole               -0.3880 Ry au,         -0.9862 Debye
        Dipole field         -0.0002 Ry au, 
 
        Potential amp.        0.0260 Ry
        Total length         54.2615 bohr
 

     total cpu time spent up to now is      797.1 secs

     total energy              =   -7398.03752514 Ry
     estimated scf accuracy    <       0.22130250 Ry

     total magnetization       =    80.27 Bohr mag/cell
     absolute magnetization    =    81.83 Bohr mag/cell

     iteration # 58     ecut=    50.00 Ry     beta= 0.50
     Davidson diagonalization with overlap
     c_bands:  4 eigenvalues not converged
     ethr =  6.85E-06,  avg # of iterations = 19.5

     negative rho (up, down):  1.026E-07 1.031E-07
 
     Adding external electric field

     Computed dipole along edir(3) : 
        Dipole               -0.4535 Ry au,         -1.1528 Debye
        Dipole field         -0.0003 Ry au, 
 
        Potential amp.        0.0304 Ry
        Total length         54.2615 bohr
 
 
     Adding external electric field

     Computed dipole along edir(3) : 
        Dipole               -0.4535 Ry au,         -1.1528 Debye
        Dipole field         -0.0003 Ry au, 
 
        Potential amp.        0.0304 Ry
        Total length         54.2615 bohr
 

     total cpu time spent up to now is      824.2 secs

     total energy              =   -7398.03995223 Ry
     estimated scf accuracy    <       0.31485735 Ry

     total magnetization       =    80.31 Bohr mag/cell
     absolute magnetization    =    81.85 Bohr mag/cell

     iteration # 59     ecut=    50.00 Ry     beta= 0.50
     Davidson diagonalization with overlap
     c_bands:  2 eigenvalues not converged
     ethr =  6.85E-06,  avg # of iterations = 11.0

     negative rho (up, down):  4.662E-07 4.320E-07
 
     Adding external electric field

     Computed dipole along edir(3) : 
        Dipole               -0.3492 Ry au,         -0.8875 Debye
        Dipole field         -0.0002 Ry au, 
 
        Potential amp.        0.0234 Ry
        Total length         54.2615 bohr
 
 
     Adding external electric field

     Computed dipole along edir(3) : 
        Dipole               -0.3492 Ry au,         -0.8875 Debye
[...]
    -5.9478  -5.9392  -5.9188  -5.9129  -5.8984  -5.8504  -5.8160  -5.7993
    -5.7741  -5.7576  -5.7389  -5.7350  -5.7063  -5.6863  -5.6684  -5.6515
    -5.6408  -5.6083  -5.6030  -5.5911  -5.5881  -5.5677  -5.5144  -5.4809
    -5.4525  -5.4228  -5.3953  -5.3756  -5.3607  -5.3510  -5.3238  -5.2523
    -5.2214  -5.2008  -5.1865  -5.1149  -5.1059  -5.0853  -5.0338  -5.0198
    -5.0067  -4.9545  -4.9216  -4.9004  -4.8790  -4.8527  -4.8413  -4.7922
    -4.7803  -4.7393  -4.7019  -4.6779  -4.6526  -4.6249  -4.5491  -4.5387
    -4.4923  -4.4810  -4.4506  -4.4353  -4.4132  -4.3832  -4.3480  -4.3354
    -4.3226  -4.2738  -4.2153  -4.1788  -4.1349  -4.1202  -4.1055  -4.0975
    -4.0462  -4.0060  -3.9896  -3.9753  -3.9451  -3.9146  -3.8976  -3.8702
    -3.8469  -3.8425  -3.7867  -3.7841  -3.7550  -3.7193  -3.7029  -3.6901
    -3.6764  -3.6508  -3.6370  -3.6283  -3.6188  -3.6001  -3.5662  -3.5248
    -3.5048  -3.4998  -3.4817  -3.4742  -3.4664  -3.4590  -3.4287  -3.4221
    -3.4152  -3.3751  -3.3522  -3.3241  -3.3089  -3.2916  -3.2478  -3.2401
    -3.2275  -3.1973  -3.1614  -3.1609  -3.1483  -3.1277  -3.1196  -3.1078
    -3.0766  -3.0716  -3.0325  -2.9975  -2.9883  -2.9748  -2.9595  -2.9186
    -2.9001  -2.8923  -2.8795  -2.8341  -2.8234  -2.8092  -2.7868  -2.7743
    -2.7578  -2.7520  -2.7401  -2.7295  -2.7200  -2.7177  -2.7067  -2.6795
    -2.6596  -2.6426  -2.6319  -2.6246  -2.5977  -2.5828  -2.5709  -2.5464
    -2.5345  -2.5051  -2.5023  -2.4824  -2.4617  -2.4469  -2.4346  -2.4253
    -2.3913  -2.3793  -2.3674  -2.3503  -2.3228  -2.2911  -2.2793  -2.2526
    -2.2449  -2.2269  -2.1980  -2.1798  -2.1718  -2.1442  -2.1150  -2.1082
    -2.0941  -2.0686  -2.0548  -2.0411  -2.0289  -2.0117  -1.9910  -1.9610
    -1.9502  -1.9373  -1.9327  -1.9241  -1.8897  -1.8814  -1.8658  -1.8469
    -1.8224  -1.7793  -1.7741  -1.7389  -1.7298  -1.7024  -1.6856  -1.6780
    -1.6671  -1.6490  -1.6441  -1.5987  -1.5921  -1.5680  -1.5241  -1.5140
    -1.5003  -1.4933  -1.4646  -1.4424  -1.4331  -1.4154  -1.3958  -1.3848
    -1.3646  -1.3433  -1.3205  -1.2804  -1.2716  -1.2446  -1.2238  -1.1984
    -1.1529  -1.1189  -1.0696  -0.9684  -0.9510  -0.9250  -0.8654  -0.8299
    -0.8081  -0.7463  -0.6458  -0.5173  -0.3749  -0.3414  -0.3046  -0.2000
     0.1341   0.1576   0.1871   0.2248   0.2547   0.2753   0.2764   0.2996
     0.3043   0.3200   0.3407   0.3432   0.3498   0.3709   0.3735   0.3749
     0.3868   0.3899   0.4016   0.4076   0.4209   0.4294   0.4327   0.4425
     0.4475   0.4538   0.4606   0.4621   0.4723   0.4756   0.4822   0.4876
     0.5056   0.5088   0.5137   0.5176   0.5233   0.5258   0.5369   0.5434
     0.5597   0.5615   0.5693   0.5718   0.5799   0.5859   0.5994   0.6056
     0.6089   0.6160   0.6229   0.6280   0.6320   0.6468   0.6607   0.6702
     0.6734   0.6807   0.6899   0.6938   0.6959   0.7068   0.7116   0.7238
     0.7349   0.7428   0.7445   0.7479   0.7585   0.7648   0.7649   0.7715
     0.7773   0.7834   0.8140   0.8198   0.8271   0.8361   0.8490   0.8563
     0.8587   0.8751   0.8792   0.8841   0.9006   0.9042   0.9106   0.9212
     0.9271   0.9345   0.9588   0.9605   0.9921   1.0003   1.0161   1.0301
     1.1397   1.1737   1.6100   1.6966   1.7018   1.7311   1.7344   1.7519
     1.7641   1.8598   1.8851   1.9043   1.9210   1.9656   1.9710   1.9914
     2.0016   2.0251   2.0442   2.0646   2.0762   2.0784   2.0976   2.1361
     2.1601   2.1757   2.1850   2.2140   2.2215   2.2568   2.2598   2.2661
     2.2802   2.2882   2.3104   2.3200   2.3287   2.3378   2.3526   2.3595
     2.3745   2.3867   2.3952   2.3981   2.4144   2.4290   2.4487   2.4891
     2.4942   2.5112   2.5193   2.5341   2.5466   2.5513   2.5721   2.5949
     2.6028   2.6127   2.6481   2.6654   2.7048   2.7331   2.7512   2.8122
     2.8304   2.8646   2.8828   2.9280   2.9315   3.3761   3.4047   3.6128
     3.6683   3.8045   3.8668   3.9491   4.0120   4.0317   4.0957   4.6113
     4.6715   4.7799   4.9029   4.9375   4.9633   5.0568   5.4415   6.3434
     6.3687   6.5180   6.6116   6.7316   6.8150   6.8518   6.9044   6.9421
     7.0536   7.0962   7.1370   7.1569   7.3450   7.3956   7.4114   7.4430
     7.5277   7.5864   7.6253   7.7106   7.7521   7.7582   7.8246   7.8537
     7.8923   7.9512   7.9694   8.0041   8.0251   8.0569   8.0842   8.1212
     8.1473   8.1793   8.1923   8.2360   8.2569   8.2822   8.3156   8.3466
     8.3699   8.4079   8.4327   8.4905   8.4946   8.5064   8.5285   8.5437
     8.5564   8.5734   8.5968   8.6099   8.6508   8.6710   8.6802   8.6906
     8.7272   8.7437   8.8076   8.8106   8.8558   8.8734   8.9197

     the Fermi energy is     1.5864 ev

!    total energy              =   -7398.02840204 Ry
     estimated scf accuracy    <       0.00000099 Ry
     smearing contrib. (-TS)   =      -0.01556940 Ry
     internal energy E=F+TS    =   -7398.01283263 Ry

     The total energy is F=E-TS. E is the sum of the following terms:
     one-electron contribution =  -91622.13966699 Ry
     hartree contribution      =   46459.44910346 Ry
     xc contribution           =   -2260.28263554 Ry
     ewald contribution        =   40026.79254699 Ry
     Dispersion Correction     =      -1.83223917 Ry
     electric field correction =       0.00005862 Ry

     total magnetization       =    80.30 Bohr mag/cell
     absolute magnetization    =    81.82 Bohr mag/cell

     convergence has been achieved in  88 iterations

     negative rho (up, down):  9.303E-04 5.486E-04

     Forces acting on atoms (cartesian axes, Ry/au):

     atom    1 type  2   force =     0.00012239   -0.00008339   -0.00029506
     atom    2 type  1   force =    -0.00032249    0.00021740   -0.00004897
     atom    3 type  1   force =    -0.00000359   -0.00070252   -0.00048067
     atom    4 type  1   force =    -0.00021421    0.00034190    0.00026145
     atom    5 type  1   force =    -0.00003427    0.00024320    0.00007651
     atom    6 type  1   force =    -0.00010400   -0.00004909   -0.00001505
     atom    7 type  1   force =     0.00228320   -0.00103418   -0.00275790
     atom    8 type  1   force =     0.00003256   -0.00030867    0.00031019
     atom    9 type  1   force =    -0.00031156    0.00059187   -0.00035879
     atom   10 type  1   force =    -0.00007623   -0.00003461   -0.00023723
     atom   11 type  1   force =    -0.00032907   -0.00062973    0.00005535
     atom   12 type  1   force =     0.00041972    0.00032923   -0.00052611
     atom   13 type  3   force =    -0.00011467    0.00014423   -0.00002767
     atom   14 type  3   force =    -0.00018888   -0.00010724   -0.00030796
     atom   15 type  3   force =     0.00013001    0.00001297   -0.00022855
     atom   16 type  3   force =     0.00076347    0.00007930   -0.00008642
     atom   17 type  4   force =     0.00012191   -0.00011412   -0.00029308
     atom   18 type  4   force =     0.00030270    0.00001689   -0.00025469
     atom   19 type  4   force =    -0.00034289    0.00017703    0.00044189
     atom   20 type  4   force =    -0.00023517    0.00017157    0.00015809
     atom   21 type  4   force =     0.00003942    0.00042882    0.00002395
     atom   22 type  4   force =     0.00014192   -0.00035032   -0.00038542
     atom   23 type  4   force =    -0.00005332    0.00048295   -0.00051479
     atom   24 type  4   force =     0.00029481    0.00017515    0.00032392
     atom   25 type  4   force =     0.00006226   -0.00033213   -0.00006209
     atom   26 type  4   force =    -0.00029644    0.00039099   -0.00001051
     atom   27 type  4   force =     0.00048233   -0.00005445   -0.00015753
     atom   28 type  4   force =     0.00011142    0.00015337    0.00011955
     atom   29 type  4   force =    -0.00038512   -0.00018031    0.00023733
     atom   30 type  4   force =    -0.00007394   -0.00013772   -0.00042023
     atom   31 type  4   force =     0.00003575    0.00001251   -0.00017822
     atom   32 type  4   force =    -0.00028748    0.00039326    0.00013985
     atom   33 type  3   force =    -0.00011912    0.00001187   -0.00033902
     atom   34 type  3   force =     0.00048999   -0.00021824   -0.00061805
     atom   35 type  3   force =     0.00025152    0.00004977   -0.00054649
     atom   36 type  3   force =    -0.00060380    0.00006984    0.00000490
     atom   37 type  4   force =     0.00014304   -0.00001238   -0.00040103
     atom   38 type  4   force =     0.00007685    0.00047718    0.00012240
     atom   39 type  4   force =    -0.00025037   -0.00006720    0.00104273
     atom   40 type  4   force =     0.00028419    0.00008727   -0.00028030
     atom   41 type  4   force =    -0.00023166    0.00005510   -0.00008343
     atom   42 type  4   force =    -0.00047818   -0.00032429   -0.00080357
     atom   43 type  4   force =    -0.00046912   -0.00036850   -0.00044408
     atom   44 type  4   force =     0.00008864    0.00021418   -0.00027325
     atom   45 type  4   force =     0.00010516   -0.00014520   -0.00037024
     atom   46 type  4   force =     0.00025525   -0.00013051   -0.00054260
     atom   47 type  4   force =     0.00000351    0.00016714   -0.00005908
     atom   48 type  4   force =     0.00058476    0.00039698   -0.00005547
     atom   49 type  4   force =    -0.00030261    0.00018432    0.00002493
     atom   50 type  4   force =     0.00032190   -0.00006987   -0.00003491
     atom   51 type  4   force =     0.00008113   -0.00012211    0.00014326
     atom   52 type  4   force =    -0.00023914   -0.00002245   -0.00008297
     atom   53 type  2   force =     0.00244226   -0.00384206    0.00619397
     atom   54 type  1   force =     0.00501462   -0.00225359    0.00407863
     atom   55 type  1   force =     0.00754285   -0.00386585    0.00222722
     atom   56 type  1   force =    -0.00194528    0.01033204    0.00622323
     atom   57 type  1   force =    -0.00006625    0.02307664    0.01501464
     atom   58 type  1   force =     0.00208586   -0.00323078   -0.00151096
     atom   59 type  1   force =     0.00045014   -0.00717562    0.00425304
     atom   60 type  1   force =    -0.00515554   -0.00198147    0.00501124
     atom   61 type  1   force =    -0.00187713   -0.00156196    0.00346779
     atom   62 type  1   force =    -0.00433191    0.00830795    0.00624521
     atom   63 type  1   force =    -0.01108132    0.02586838    0.01874922
     atom   64 type  1   force =    -0.00199897    0.00116590    0.00148309
     atom   65 type  3   force =     0.04625874   -0.11370940   -0.01074492
     atom   66 type  3   force =    -0.00034653   -0.00161689    0.00354184
     atom   67 type  3   force =    -0.03981299    0.12607014    0.01441451
     atom   68 type  3   force =     0.06271677   -0.00164692   -0.00328073
     atom   69 type  4   force =     0.01397744   -0.01837967    0.00379880
     atom   70 type  4   force =    -0.00101775    0.00279876   -0.00126930
     atom   71 type  4   force =    -0.00157100    0.00330825   -0.00549449
     atom   72 type  4   force =     0.00403578    0.00189906   -0.00089852
     atom   73 type  4   force =     0.00101200   -0.01154121    0.00263552
     atom   74 type  4   force =     0.00122113   -0.00021744   -0.00083725
     atom   75 type  4   force =     0.00057716    0.01353297    0.00502014
     atom   76 type  4   force =     0.00834107    0.00521079    0.00915695
     atom   77 type  4   force =     0.00708079   -0.00268808    0.00152781
     atom   78 type  4   force =     0.04430569   -0.14238788   -0.00543194
     atom   79 type  4   force =     0.00185102    0.00191328    0.00138967
     atom   80 type  4   force =     0.00036717    0.00229073   -0.00169778
     atom   81 type  4   force =     0.06779980    0.00093007   -0.00663586
     atom   82 type  4   force =     0.00037686    0.00094891   -0.00121702
     atom   83 type  4   force =    -0.03911817    0.13474371    0.00264088
     atom   84 type  4   force =    -0.00306071   -0.01100676   -0.00412290
     atom   85 type  3   force =     0.04006066   -0.12015676   -0.01816439
     atom   86 type  3   force =    -0.06380958   -0.00050019    0.00762070
     atom   87 type  3   force =    -0.04507027    0.12374510    0.01935925
     atom   88 type  3   force =    -0.00165458    0.00017082    0.00263803
     atom   89 type  4   force =     0.00903274   -0.01529849    0.00391625
     atom   90 type  4   force =    -0.00461011    0.00114181   -0.00001887
     atom   91 type  4   force =    -0.00887376    0.00835583   -0.00642663
     atom   92 type  4   force =    -0.00000576    0.00019825   -0.00078348
     atom   93 type  4   force =    -0.00173017   -0.00835217    0.00732923
     atom   94 type  4   force =    -0.00402026    0.00090137   -0.00085115
     atom   95 type  4   force =    -0.00527364    0.01344254    0.00734353
     atom   96 type  4   force =     0.00413351    0.00516216    0.00955691
     atom   97 type  4   force =    -0.00005606    0.00027576    0.00063596
     atom   98 type  4   force =     0.04029750   -0.14093101   -0.00546873
     atom   99 type  4   force =    -0.06660292    0.00000929    0.00631040
     atom  100 type  4   force =    -0.00193979    0.00353775   -0.00258640
     atom  101 type  4   force =    -0.00007868    0.00081000   -0.00092959
     atom  102 type  4   force =    -0.00610033    0.00445123   -0.00143487
     atom  103 type  4   force =    -0.04028118    0.13340659    0.00427249
     atom  104 type  4   force =    -0.00704929   -0.00989436   -0.00529030
     atom  105 type  2   force =     0.00417802   -0.00656366   -0.01741238
     atom  106 type  1   force =     0.02823913    0.01431293    0.01202433
     atom  107 type  1   force =     0.00867670   -0.00614671   -0.01352377
     atom  108 type  1   force =    -0.02846442    0.02170252    0.01904714
     atom  109 type  1   force =     0.00502539    0.01615617    0.00989935
     atom  110 type  1   force =    -0.00252486   -0.00871850   -0.00628624
     atom  111 type  1   force =    -0.00085158   -0.00949420   -0.01097346
     atom  112 type  1   force =     0.02924402    0.01755745    0.01167309
     atom  113 type  1   force =    -0.00067584   -0.00498925   -0.01334781
     atom  114 type  1   force =    -0.02969144    0.02076237    0.01884511
     atom  115 type  1   force =    -0.00718334    0.01858837    0.01264977
     atom  116 type  1   force =    -0.00553961   -0.00436533   -0.00248830
     atom  117 type  3   force =     0.01425764   -0.17387066   -0.10890990
     atom  118 type  3   force =     0.00519220   -0.00851077   -0.01255503
     atom  119 type  3   force =    -0.04467576    0.12500798   -0.00183495
     atom  120 type  3   force =     0.09507887   -0.04106771   -0.07979488
     atom  121 type  4   force =     0.00607741   -0.01719530    0.03737994
     atom  122 type  4   force =    -0.00361952    0.00383393    0.00433713
     atom  123 type  4   force =    -0.00076520    0.00263316   -0.00301469
     atom  124 type  4   force =     0.00855974    0.00210317    0.02709466
     atom  125 type  4   force =     0.00978222   -0.01705007    0.01556470
     atom  126 type  4   force =    -0.00756981    0.00100800   -0.00323102
     atom  127 type  4   force =     0.00399398    0.00966078    0.00038043
     atom  128 type  4   force =    -0.00053489   -0.00125472    0.02974482
     atom  129 type  4   force =    -0.00753992    0.02574692    0.00112305
     atom  130 type  4   force =     0.04343845   -0.14611043   -0.00192259
     atom  131 type  4   force =    -0.01767281   -0.00035874    0.00281529
     atom  132 type  4   force =     0.00328742    0.00262778    0.00198660
     atom  133 type  4   force =     0.06988609    0.00372270   -0.00192600
     atom  134 type  4   force =     0.00090114    0.00358276    0.00270124
     atom  135 type  4   force =    -0.02770334    0.17247700    0.00598348
     atom  136 type  4   force =     0.01982308   -0.00861559    0.00396142
     atom  137 type  3   force =     0.00908327   -0.16686726   -0.09431498
     atom  138 type  3   force =    -0.06471736   -0.00205889   -0.00488021
     atom  139 type  3   force =    -0.04872094    0.11825685    0.00159220
     atom  140 type  3   force =     0.03145790   -0.04326315   -0.07376578
     atom  141 type  4   force =     0.00459892   -0.01337927    0.03223560
     atom  142 type  4   force =    -0.00549214   -0.00026099    0.00413621
     atom  143 type  4   force =    -0.00811240    0.00817714   -0.00368503
     atom  144 type  4   force =     0.00391751    0.00130005    0.02767107
     atom  145 type  4   force =     0.00682221   -0.01316327    0.03191092
     atom  146 type  4   force =    -0.00873864   -0.00179021   -0.00312764
     atom  147 type  4   force =     0.00033368    0.00988421    0.00257123
     atom  148 type  4   force =    -0.00781646    0.00105575    0.02867525
     atom  149 type  4   force =    -0.01301747    0.02965951    0.00043547
     atom  150 type  4   force =     0.03987107   -0.13841713   -0.00142212
     atom  151 type  4   force =    -0.08642294   -0.00172330    0.00910920
     atom  152 type  4   force =     0.00109487    0.00388324    0.00140684
     atom  153 type  4   force =    -0.00342538    0.00082750    0.00295357
     atom  154 type  4   force =    -0.00593835    0.00591586    0.00128888
     atom  155 type  4   force =    -0.02810482    0.16670143    0.00475801
     atom  156 type  4   force =     0.01081347   -0.00971779   -0.00142935
     atom  157 type  4   force =    -0.00569505   -0.00120180    0.00490714
     atom  158 type  5   force =     0.00317574    0.00276465   -0.00288186

     Total force =     0.671388     Total SCF correction =     0.004927
 
     init_run     :      7.70s CPU      8.53s WALL (       1 calls)
     electrons    :   1169.79s CPU   1235.22s WALL (       1 calls)
     forces       :      3.60s CPU      4.12s WALL (       1 calls)
     force_london :      0.10s CPU      0.10s WALL (       1 calls)

     Called by init_run:
     wfcinit      :      4.54s CPU      4.75s WALL (       1 calls)
     potinit      :      0.53s CPU      0.75s WALL (       1 calls)
     hinit0       :      1.36s CPU      1.46s WALL (       1 calls)

     Called by electrons:
     c_bands      :    934.06s CPU    968.77s WALL (      88 calls)
     sum_band     :    153.87s CPU    170.40s WALL (      88 calls)
     v_of_rho     :     16.23s CPU     17.40s WALL (      89 calls)
     newd         :     43.71s CPU     56.92s WALL (      89 calls)
     mix_rho      :     21.10s CPU     21.20s WALL (      88 calls)
     energy_londo :      0.10s CPU      0.10s WALL (       1 calls)

     Called by c_bands:
     init_us_2    :      2.72s CPU      2.78s WALL (     356 calls)
     init_us_2:cp :      2.71s CPU      2.78s WALL (     356 calls)
     regterg      :    912.46s CPU    944.83s WALL (     177 calls)

     Called by *egterg:
     rdiaghg      :    298.84s CPU    314.13s WALL (     790 calls)
     h_psi        :    346.08s CPU    353.93s WALL (     792 calls)
     s_psi        :     70.14s CPU     70.20s WALL (     792 calls)
     g_psi        :      0.51s CPU      0.51s WALL (     613 calls)

     Called by h_psi:
     h_psi:calbec :     89.50s CPU     96.26s WALL (     792 calls)
     vloc_psi     :    185.16s CPU    186.08s WALL (     792 calls)
     add_vuspsi   :     70.63s CPU     70.77s WALL (     792 calls)

     General routines
     calbec       :    132.27s CPU    142.25s WALL (     976 calls)
     fft          :     15.31s CPU     16.79s WALL (    1615 calls)
     ffts         :     13.08s CPU     13.11s WALL (    9825 calls)
     fftw         :    211.15s CPU    212.13s WALL (  296218 calls)
     interpolate  :      1.35s CPU      1.42s WALL (     178 calls)
 
     Parallel routines
 
     PWSCF        :  19m43.20s CPU  20m50.29s WALL

 
   This run was terminated on:   1:40: 7  20Nov2025            

=------------------------------------------------------------------------------=
   JOB DONE.
=------------------------------------------------------------------------------=
