
     Program PWSCF v.7.2 starts on 20Nov2025 at  0:13: 2 

     This program is part of the open-source Quantum ESPRESSO suite
     for quantum simulation of materials; please cite
         "P. Giannozzi et al., J. Phys.:Condens. Matter 21 395502 (2009);
         "P. Giannozzi et al., J. Phys.:Condens. Matter 29 465901 (2017);
         "P. Giannozzi et al., J. Chem. Phys. 152 154105 (2020);
          URL http://www.quantum-espresso.org", 
     in publications or presentations arising from this work. More details at
     http://www.quantum-espresso.org/quote

     Parallel version (MPI), running on    64 processors

     MPI processes distributed on     4 nodes
     370496 MiB available memory on the printing compute node when the environment starts
 
     Reading input from PWINPUT_atm157_xm

     Current dimensions of program PWSCF are:
     Max number of different atomic species (ntypx) = 10
     Max number of k-points (npk) =  40000
     Max angular momentum in pseudopotentials (lmaxx) =  4
     Presently no symmetry can be used with electric field

     file Ni.pbe-n-rrkjus_psl.1.0.0.UPF: wavefunction(s)  3D renormalized
     file Mn.pbe-spn-rrkjus_psl.0.3.1.UPF: wavefunction(s)  3D renormalized
     file O.pbe-rrkjus.UPF: wavefunction(s)  2S renormalized
     file H.pbe-rrkjus.UPF: wavefunction(s)  1S renormalized

     gamma-point specific algorithms are used
 
     R & G space division:  proc/nbgrp/npool/nimage =      64
     Subspace diagonalization in iterative solution of the eigenvalue problem:
     one sub-group per band group will be used
     custom distributed-memory algorithm (size of sub-group:  6*  6 procs)

 
     Parallelization info
     --------------------
     sticks:   dense  smooth     PW     G-vecs:    dense   smooth      PW
     Min         208      82     20                59912    15118    1876
     Max         210      84     22                59974    15196    1926
     Sum       13399    5355   1345              3836275   970529  121367
 
     Using Slab Decomposition
 


     bravais-lattice index     =            0
     lattice parameter (alat)  =      17.7004  a.u.
     unit-cell volume          =   20319.7251 (a.u.)^3
     number of atoms/cell      =          158
     number of atomic types    =            5
     number of electrons       =      1078.00
     number of Kohn-Sham states=          647
     kinetic-energy cutoff     =      50.0000  Ry
     charge density cutoff     =     500.0000  Ry
     scf convergence threshold =      1.0E-06
     mixing beta               =       0.5000
     number of iterations used =            8  local-TF  mixing
     Exchange-correlation=  SLA  PW   PBE  PBE
                           (   1   4   3   4   0   0   0)

     celldm(1)=  17.700384  celldm(2)=   0.000000  celldm(3)=   0.000000
     celldm(4)=   0.000000  celldm(5)=   0.000000  celldm(6)=   0.000000

     crystal axes: (cart. coord. in units of alat)
               a(1) = (   1.000000   0.000000   0.000000 )  
               a(2) = (   0.000000   1.075730   0.000000 )  
               a(3) = (   0.000000   0.000000   3.406172 )  

     reciprocal axes: (cart. coord. in units 2 pi/alat)
               b(1) = (  1.000000  0.000000  0.000000 )  
               b(2) = (  0.000000  0.929602  0.000000 )  
               b(3) = (  0.000000  0.000000  0.293585 )  


     PseudoPot. # 1 for Ni read from file:
     ~/PSEUDO/Ni.pbe-n-rrkjus_psl.1.0.0.UPF
     MD5 check sum: Not computed, couldn't open file
     Pseudo is Ultrasoft + core correction, Zval = 10.0
     Generated using "atomic" code by A. Dal Corso  v.5.1.2
     Using radial grid of 1195 points,  6 beta functions with: 
                l(1) =   0
                l(2) =   0
                l(3) =   1
                l(4) =   1
                l(5) =   2
                l(6) =   2
     Q(r) pseudized with 0 coefficients 


     PseudoPot. # 2 for Mn read from file:
     ~/PSEUDO/Mn.pbe-spn-rrkjus_psl.0.3.1.UPF
     MD5 check sum: Not computed, couldn't open file
     Pseudo is Ultrasoft + core correction, Zval = 15.0
     Generated using &quot;atomic&quot; code by A. Dal Corso  v.6.2.2
     Using radial grid of 1187 points,  6 beta functions with: 
                l(1) =   0
                l(2) =   0
                l(3) =   1
                l(4) =   1
                l(5) =   2
                l(6) =   2
     Q(r) pseudized with 0 coefficients 


     PseudoPot. # 3 for P  read from file:
     ~/PSEUDO/P.pbe-n-rrkjus_psl.1.0.0.UPF
     MD5 check sum: Not computed, couldn't open file
     Pseudo is Ultrasoft + core correction, Zval =  5.0
     Generated using "atomic" code by A. Dal Corso  v.5.1
     Using radial grid of 1147 points,  6 beta functions with: 
                l(1) =   0
                l(2) =   0
                l(3) =   1
                l(4) =   1
                l(5) =   2
                l(6) =   2
     Q(r) pseudized with 0 coefficients 


     PseudoPot. # 4 for O  read from file:
     ~/PSEUDO/O.pbe-rrkjus.UPF
     MD5 check sum: Not computed, couldn't open file
     Pseudo is Ultrasoft, Zval =  6.0
     Generated by new atomic code, or converted to UPF format
     Using radial grid of 1269 points,  4 beta functions with: 
                l(1) =   0
                l(2) =   0
                l(3) =   1
                l(4) =   1
     Q(r) pseudized with 0 coefficients 


     PseudoPot. # 5 for H  read from file:
     ~/PSEUDO/H.pbe-rrkjus.UPF
     MD5 check sum: Not computed, couldn't open file
     Pseudo is Ultrasoft, Zval =  1.0
     Generated by new atomic code, or converted to UPF format
     Using radial grid of 1061 points,  2 beta functions with: 
                l(1) =   0
                l(2) =   0
     Q(r) pseudized with 0 coefficients 


     atomic species   valence    mass     pseudopotential
     Ni               10.00    58.69300     Ni( 1.00)
     Mn               15.00    54.93800     Mn( 1.00)
     P                 5.00    30.97300     P ( 1.00)
     O                 6.00    15.99900     O ( 1.00)
     H                 1.00     1.00790     H ( 1.00)

     Starting magnetic structure 
     atomic species   magnetization
     Ni              1.000
     Mn              1.000
     P               1.000
     O               1.000
     H               0.000

     No symmetry found



   Cartesian axes

     site n.     atom                  positions (alat units)
         1        Mn     tau(   1) = (   0.2487148   0.8375267   1.6951957  )
         2        Ni     tau(   2) = (   0.4985680   0.7741854   1.3708613  )
         3        Ni     tau(   3) = (  -0.0011545   0.3006174   1.6748188  )
         4        Ni     tau(   4) = (   0.2613034   0.2387656   1.3682654  )
         5        Ni     tau(   5) = (   0.9963341   1.0779630   1.5338071  )
         6        Ni     tau(   6) = (   0.2553410   0.5376272   1.5302552  )
         7        Ni     tau(   7) = (   0.7421076   0.8435707   1.7073254  )
         8        Ni     tau(   8) = (   0.9925505   0.7752294   1.3710528  )
         9        Ni     tau(   9) = (   0.5021333   0.2954136   1.6750756  )
        10        Ni     tau(  10) = (   0.7611689   0.2373559   1.3675061  )
        11        Ni     tau(  11) = (   0.5009702   1.0742604   1.5366496  )
        12        Ni     tau(  12) = (   0.7544547   0.5384375   1.5322894  )
        13        P      tau(  13) = (   0.2115511   0.9728651   1.3803029  )
        14        P      tau(  14) = (   0.4665848   0.6401311   1.6901980  )
        15        P      tau(  15) = (   0.2857882   0.1150193   1.6956783  )
        16        P      tau(  16) = (   0.0437806   0.4336934   1.3698950  )
        17        O      tau(  17) = (   0.1341895   0.9017796   1.5160649  )
        18        O      tau(  18) = (   0.3918354   0.7064542   1.5480543  )
        19        O      tau(  19) = (   0.3659047   0.1699051   1.5489901  )
        20        O      tau(  20) = (   0.1220478   0.3634760   1.5065536  )
        21        O      tau(  21) = (   0.1491769   0.8830546   1.2562069  )
        22        O      tau(  22) = (   0.4014483   0.7325987   1.8096174  )
        23        O      tau(  23) = (   0.3477141   0.2121598   1.8095684  )
        24        O      tau(  24) = (   0.1043448   0.3449385   1.2442231  )
        25        O      tau(  25) = (   0.1038610   0.5888479   1.3734716  )
        26        O      tau(  26) = (   0.3384087   1.0313531   1.6992469  )
        27        O      tau(  27) = (   0.3808703   0.4260931   1.3818057  )
        28        O      tau(  28) = (   0.1211112   0.1186251   1.6801879  )
        29        O      tau(  29) = (   0.1290557   0.6512937   1.6784404  )
        30        O      tau(  30) = (   0.4077914   0.4842311   1.6878311  )
        31        O      tau(  31) = (   0.1525182   0.0517135   1.3798448  )
        32        O      tau(  32) = (   0.3752655   0.9631458   1.3897289  )
        33        P      tau(  33) = (   0.7115935   0.9699435   1.3754512  )
        34        P      tau(  34) = (   0.9627941   0.6488001   1.6882550  )
        35        P      tau(  35) = (   0.7877941   0.1135143   1.6933997  )
        36        P      tau(  36) = (   0.5450057   0.4319961   1.3698026  )
        37        O      tau(  37) = (   0.6347424   0.8975550   1.5107968  )
        38        O      tau(  38) = (   0.8874360   0.7086109   1.5448689  )
        39        O      tau(  39) = (   0.8663690   0.1747348   1.5464995  )
        40        O      tau(  40) = (   0.6223636   0.3611942   1.5061123  )
        41        O      tau(  41) = (   0.6513775   0.8826145   1.2479475  )
        42        O      tau(  42) = (   0.9079471   0.7471932   1.8059270  )
        43        O      tau(  43) = (   0.8460393   0.2141480   1.8067812  )
        44        O      tau(  44) = (   0.6057326   0.3434800   1.2439494  )
        45        O      tau(  45) = (   0.6051788   0.5869386   1.3743458  )
        46        O      tau(  46) = (   0.8485507   1.0338148   1.6901252  )
        47        O      tau(  47) = (   0.8800306   0.4271144   1.3821281  )
        48        O      tau(  48) = (   0.6230808   0.1160198   1.6767091  )
        49        O      tau(  49) = (   0.6309458   0.6452848   1.6833570  )
        50        O      tau(  50) = (   0.9073287   0.4911282   1.6902526  )
        51        O      tau(  51) = (   0.6516592   0.0493454   1.3784195  )
        52        O      tau(  52) = (   0.8758524   0.9648084   1.3850114  )
        53        Mn     tau(  53) = (   0.2404744   0.8246335   1.0701417  )
        54        Ni     tau(  54) = (   0.4968126   0.7601755   0.7454373  )
        55        Ni     tau(  55) = (   0.0066150   0.2811828   1.0628866  )
        56        Ni     tau(  56) = (   0.2585722   0.2230943   0.7421070  )
        57        Ni     tau(  57) = (   0.9987350   1.0571496   0.9014992  )
        58        Ni     tau(  58) = (   0.2517397   0.5205596   0.9040596  )
        59        Ni     tau(  59) = (   0.7451645   0.8212628   1.0648168  )
        60        Ni     tau(  60) = (   0.9939181   0.7613889   0.7462324  )
        61        Ni     tau(  61) = (   0.5111533   0.2799173   1.0618053  )
        62        Ni     tau(  62) = (   0.7606326   0.2194352   0.7418547  )
        63        Ni     tau(  63) = (   0.5024065   1.0563218   0.8999416  )
        64        Ni     tau(  64) = (   0.7529977   0.5192985   0.9024691  )
        65        P      tau(  65) = (   0.2092944   0.9606182   0.7524883  )
        66        P      tau(  66) = (   0.4655727   0.6234620   1.0595283  )
        67        P      tau(  67) = (   0.2910699   0.0902448   1.0573821  )
        68        P      tau(  68) = (   0.0396216   0.4163480   0.7471080  )
        69        O      tau(  69) = (   0.1294378   0.8888345   0.8859300  )
        70        O      tau(  70) = (   0.3874505   0.6929859   0.9232915  )
        71        O      tau(  71) = (   0.3702540   0.1589885   0.9209891  )
        72        O      tau(  72) = (   0.1184398   0.3458043   0.8831565  )
        73        O      tau(  73) = (   0.1451572   0.8725966   0.6282341  )
        74        O      tau(  74) = (   0.4048762   0.7120670   1.1852426  )
        75        O      tau(  75) = (   0.3523506   0.1775664   1.1834175  )
        76        O      tau(  76) = (   0.1017610   0.3285569   0.6213347  )
        77        O      tau(  77) = (   0.0975396   0.5724373   0.7511996  )
        78        O      tau(  78) = (   0.3483552   1.0190030   1.0599597  )
        79        O      tau(  79) = (   0.3784305   0.4100203   0.7560991  )
        80        O      tau(  80) = (   0.1268237   0.0943029   1.0477175  )
        81        O      tau(  81) = (   0.1212267   0.6299255   1.0507023  )
        82        O      tau(  82) = (   0.4053315   0.4684472   1.0569297  )
        83        O      tau(  83) = (   0.1536621   0.0322003   0.7496532  )
        84        O      tau(  84) = (   0.3732349   0.9506802   0.7613277  )
        85        P      tau(  85) = (   0.7119823   0.9571059   0.7496908  )
        86        P      tau(  86) = (   0.9615208   0.6238477   1.0606987  )
        87        P      tau(  87) = (   0.7927710   0.0845145   1.0577754  )
        88        P      tau(  88) = (   0.5426404   0.4144760   0.7459181  )
        89        O      tau(  89) = (   0.6326879   0.8866267   0.8856678  )
        90        O      tau(  90) = (   0.8842163   0.6958291   0.9244764  )
        91        O      tau(  91) = (   0.8716178   0.1552836   0.9216415  )
        92        O      tau(  92) = (   0.6212010   0.3433751   0.8818834  )
        93        O      tau(  93) = (   0.6507714   0.8687427   0.6238197  )
        94        O      tau(  94) = (   0.9014054   0.7139543   1.1859242  )
        95        O      tau(  95) = (   0.8548963   0.1722994   1.1834447  )
        96        O      tau(  96) = (   0.6044469   0.3253792   0.6209553  )
        97        O      tau(  97) = (   0.6024424   0.5698225   0.7490903  )
        98        O      tau(  98) = (   0.8498940   1.0129567   1.0594762  )
        99        O      tau(  99) = (   0.8798395   0.4080910   0.7564148  )
       100        O      tau( 100) = (   0.6286921   0.0909721   1.0472573  )
       101        O      tau( 101) = (   0.6294973   0.6302838   1.0497366  )
       102        O      tau( 102) = (   0.9024339   0.4685397   1.0573501  )
       103        O      tau( 103) = (   0.6547812   0.0286072   0.7473283  )
       104        O      tau( 104) = (   0.8760507   0.9507690   0.7605412  )
       105        Mn     tau( 105) = (   0.2404744   0.8121420   0.4502541  )
       106        Ni     tau( 106) = (   0.4968126   0.7476840   0.1255496  )
       107        Ni     tau( 107) = (   0.0066150   0.2686914   0.4429989  )
       108        Ni     tau( 108) = (   0.2585722   0.2106028   0.1222194  )
       109        Ni     tau( 109) = (   0.9987350   1.0446581   0.2816116  )
       110        Ni     tau( 110) = (   0.2517397   0.5080681   0.2841720  )
       111        Ni     tau( 111) = (   0.7451645   0.8087713   0.4449291  )
       112        Ni     tau( 112) = (   0.9939181   0.7488974   0.1263448  )
       113        Ni     tau( 113) = (   0.5111533   0.2674258   0.4419177  )
       114        Ni     tau( 114) = (   0.7606326   0.2069438   0.1219670  )
       115        Ni     tau( 115) = (   0.5024065   1.0438304   0.2800540  )
       116        Ni     tau( 116) = (   0.7529977   0.5068070   0.2825815  )
       117        P      tau( 117) = (   0.2092944   0.9481267   0.1326007  )
       118        P      tau( 118) = (   0.4655727   0.6109705   0.4396407  )
       119        P      tau( 119) = (   0.2910699   0.0777534   0.4374945  )
       120        P      tau( 120) = (   0.0396216   0.4038566   0.1272204  )
       121        O      tau( 121) = (   0.1294378   0.8763430   0.2660424  )
       122        O      tau( 122) = (   0.3874505   0.6804944   0.3034039  )
       123        O      tau( 123) = (   0.3702540   0.1464970   0.3011014  )
       124        O      tau( 124) = (   0.1184398   0.3333129   0.2632689  )
       125        O      tau( 125) = (   0.1451572   0.8601051   0.0083464  )
       126        O      tau( 126) = (   0.4048762   0.6995756   0.5653550  )
       127        O      tau( 127) = (   0.3523506   0.1650749   0.5635298  )
       128        O      tau( 128) = (   0.1017610   0.3160655   0.0014470  )
       129        O      tau( 129) = (   0.0975396   0.5599458   0.1313120  )
       130        O      tau( 130) = (   0.3483552   1.0065115   0.4400720  )
       131        O      tau( 131) = (   0.3784305   0.3975288   0.1362114  )
       132        O      tau( 132) = (   0.1268237   0.0818115   0.4278298  )
       133        O      tau( 133) = (   0.1212267   0.6174340   0.4308146  )
       134        O      tau( 134) = (   0.4053315   0.4559557   0.4370420  )
       135        O      tau( 135) = (   0.1536621   0.0197088   0.1297656  )
       136        O      tau( 136) = (   0.3732349   0.9381887   0.1414400  )
       137        P      tau( 137) = (   0.7119823   0.9446144   0.1298032  )
       138        P      tau( 138) = (   0.9615208   0.6113562   0.4408111  )
       139        P      tau( 139) = (   0.7927710   0.0720230   0.4378878  )
       140        P      tau( 140) = (   0.5426404   0.4019845   0.1260304  )
       141        O      tau( 141) = (   0.6326879   0.8741353   0.2657802  )
       142        O      tau( 142) = (   0.8842163   0.6833376   0.3045887  )
       143        O      tau( 143) = (   0.8716178   0.1427921   0.3017538  )
       144        O      tau( 144) = (   0.6212010   0.3308836   0.2619957  )
       145        O      tau( 145) = (   0.6507714   0.8562512   0.0039320  )
       146        O      tau( 146) = (   0.9014054   0.7014628   0.5660366  )
       147        O      tau( 147) = (   0.8548963   0.1598079   0.5635571  )
       148        O      tau( 148) = (   0.6044469   0.3128877   0.0010676  )
       149        O      tau( 149) = (   0.6024424   0.5573310   0.1292027  )
       150        O      tau( 150) = (   0.8498940   1.0004653   0.4395886  )
       151        O      tau( 151) = (   0.8798395   0.3955995   0.1365272  )
       152        O      tau( 152) = (   0.6286921   0.0784807   0.4273696  )
       153        O      tau( 153) = (   0.6294973   0.6177923   0.4298489  )
       154        O      tau( 154) = (   0.9024339   0.4560482   0.4374624  )
       155        O      tau( 155) = (   0.6547812   0.0161158   0.1274406  )
       156        O      tau( 156) = (   0.8760507   0.9382775   0.1406535  )
       157        O      tau( 157) = (   0.6280265   0.9242713   1.8436369  )
       158        H      tau( 158) = (   0.5523937   0.8599107   1.8761737  )

     -------------------------------------------------
     Parameters for Dispersion (Grimme-D2) Correction:
     -------------------------------------------------
       atom      VdW radius       C_6     

        Ni         2.952        374.666
        Mn         2.952        374.666
        P          3.222        271.980
        O          2.536         24.284
        H          1.892          4.857

     number of k points=     1  Gaussian smearing, width (Ry)=  0.0100
                       cart. coord. in units 2pi/alat
        k(    1) = (   0.0000000   0.0000000   0.0000000), wk =   1.0000000

     Dense  grid:  1918138 G-vectors     FFT dimensions: ( 125, 135, 432)

     Smooth grid:   485265 G-vectors     FFT dimensions: (  80,  90, 288)

     Estimated max dynamical RAM per process >     320.12 MB

     Estimated total dynamical RAM >      20.01 GB
     Generating pointlists ...
     new r_m :   0.0805 (alat units)  1.4253 (a.u.) for type    1
     new r_m :   0.0869 (alat units)  1.5388 (a.u.) for type    2
     new r_m :   0.0650 (alat units)  1.1499 (a.u.) for type    3
     new r_m :   0.0431 (alat units)  0.7630 (a.u.) for type    4
     new r_m :   0.0431 (alat units)  0.7630 (a.u.) for type    5

     Initial potential from superposition of free atoms

     starting charge    1077.8900, renormalised to    1078.0000

     negative rho (up, down):  1.227E-03 4.512E-04
 
     Adding external electric field

     Computed dipole along edir(3) : 
        Dipole                1.6379 Ry au,          4.1630 Debye
        Dipole field          0.0010 Ry au, 
 
        Potential amp.       -0.1099 Ry
        Total length         54.2615 bohr
 
 
     Adding external electric field

     Computed dipole along edir(3) : 
        Dipole                1.6379 Ry au,          4.1630 Debye
        Dipole field          0.0010 Ry au, 
 
        Potential amp.       -0.1099 Ry
        Total length         54.2615 bohr
 
     Starting wfcs are  812 randomized atomic wfcs

     total cpu time spent up to now is       11.5 secs

     Self-consistent Calculation

     iteration #  1     ecut=    50.00 Ry     beta= 0.50
     Davidson diagonalization with overlap
     ethr =  1.00E-02,  avg # of iterations =  6.0

     negative rho (up, down):  2.419E+00 1.440E-05
 
     Adding external electric field

     Computed dipole along edir(3) : 
        Dipole              -22.6049 Ry au,        -57.4560 Debye
        Dipole field         -0.0140 Ry au, 
 
        Potential amp.        1.5171 Ry
        Total length         54.2615 bohr
 
 
     Adding external electric field

     Computed dipole along edir(3) : 
        Dipole              -22.6049 Ry au,        -57.4560 Debye
        Dipole field         -0.0140 Ry au, 
 
        Potential amp.        1.5171 Ry
        Total length         54.2615 bohr
 

     total cpu time spent up to now is       41.4 secs

     total energy              =   -7209.14983281 Ry
     estimated scf accuracy    <     731.53794165 Ry

     total magnetization       =   216.00 Bohr mag/cell
     absolute magnetization    =   298.15 Bohr mag/cell

     iteration #  2     ecut=    50.00 Ry     beta= 0.50
     Davidson diagonalization with overlap
     ethr =  1.00E-02,  avg # of iterations =  8.5

     negative rho (up, down):  2.232E+00 9.305E-05
 
     Adding external electric field

     Computed dipole along edir(3) : 
        Dipole                0.1507 Ry au,          0.3830 Debye
        Dipole field          0.0001 Ry au, 
 
        Potential amp.       -0.0101 Ry
        Total length         54.2615 bohr
 
 
     Adding external electric field

     Computed dipole along edir(3) : 
        Dipole                0.1507 Ry au,          0.3830 Debye
        Dipole field          0.0001 Ry au, 
 
        Potential amp.       -0.0101 Ry
        Total length         54.2615 bohr
 

     total cpu time spent up to now is       75.6 secs

     total energy              =   -7302.99483778 Ry
     estimated scf accuracy    <    7413.76001569 Ry

     total magnetization       =   129.32 Bohr mag/cell
     absolute magnetization    =   164.88 Bohr mag/cell

     iteration #  3     ecut=    50.00 Ry     beta= 0.50
     Davidson diagonalization with overlap
     ethr =  1.00E-02,  avg # of iterations =  4.5

     negative rho (up, down):  1.556E+00 2.748E-04
 
     Adding external electric field

     Computed dipole along edir(3) : 
        Dipole               -2.0019 Ry au,         -5.0884 Debye
        Dipole field         -0.0012 Ry au, 
 
        Potential amp.        0.1344 Ry
        Total length         54.2615 bohr
 
 
     Adding external electric field

     Computed dipole along edir(3) : 
        Dipole               -2.0019 Ry au,         -5.0884 Debye
        Dipole field         -0.0012 Ry au, 
 
        Potential amp.        0.1344 Ry
        Total length         54.2615 bohr
 

     total cpu time spent up to now is       94.6 secs

     total energy              =   -7363.42402259 Ry
     estimated scf accuracy    <     656.02929775 Ry

     total magnetization       =   122.52 Bohr mag/cell
     absolute magnetization    =   164.01 Bohr mag/cell

     iteration #  4     ecut=    50.00 Ry     beta= 0.50
     Davidson diagonalization with overlap
     ethr =  1.00E-02,  avg # of iterations =  2.0

     negative rho (up, down):  1.261E+00 3.305E-04
 
     Adding external electric field

     Computed dipole along edir(3) : 
        Dipole               -2.3329 Ry au,         -5.9295 Debye
        Dipole field         -0.0014 Ry au, 
 
        Potential amp.        0.1566 Ry
        Total length         54.2615 bohr
 
 
     Adding external electric field

     Computed dipole along edir(3) : 
        Dipole               -2.3329 Ry au,         -5.9295 Debye
        Dipole field         -0.0014 Ry au, 
 
        Potential amp.        0.1566 Ry
        Total length         54.2615 bohr
 

     total cpu time spent up to now is      110.1 secs

     total energy              =   -7377.10569893 Ry
     estimated scf accuracy    <     162.00473573 Ry

     total magnetization       =    85.18 Bohr mag/cell
     absolute magnetization    =   131.19 Bohr mag/cell

     iteration #  5     ecut=    50.00 Ry     beta= 0.50
     Davidson diagonalization with overlap
     ethr =  1.00E-02,  avg # of iterations =  1.0

     negative rho (up, down):  5.393E-01 2.900E-05
 
     Adding external electric field

     Computed dipole along edir(3) : 
        Dipole               -2.6903 Ry au,         -6.8381 Debye
        Dipole field         -0.0017 Ry au, 
 
        Potential amp.        0.1806 Ry
        Total length         54.2615 bohr
 
 
     Adding external electric field

     Computed dipole along edir(3) : 
        Dipole               -2.6903 Ry au,         -6.8381 Debye
        Dipole field         -0.0017 Ry au, 
 
        Potential amp.        0.1806 Ry
        Total length         54.2615 bohr
 

     total cpu time spent up to now is      123.5 secs

     total energy              =   -7390.11705108 Ry
     estimated scf accuracy    <      38.00932617 Ry

     total magnetization       =    82.15 Bohr mag/cell
     absolute magnetization    =   121.87 Bohr mag/cell

     iteration #  6     ecut=    50.00 Ry     beta= 0.50
     Davidson diagonalization with overlap
     ethr =  3.53E-03,  avg # of iterations =  2.0

     negative rho (up, down):  1.891E-01 6.608E-06
 
     Adding external electric field

     Computed dipole along edir(3) : 
        Dipole               -2.9333 Ry au,         -7.4558 Debye
        Dipole field         -0.0018 Ry au, 
 
        Potential amp.        0.1969 Ry
        Total length         54.2615 bohr
 
 
     Adding external electric field

     Computed dipole along edir(3) : 
        Dipole               -2.9333 Ry au,         -7.4558 Debye
        Dipole field         -0.0018 Ry au, 
 
        Potential amp.        0.1969 Ry
        Total length         54.2615 bohr
 

     total cpu time spent up to now is      138.9 secs

     total energy              =   -7393.41903775 Ry
     estimated scf accuracy    <      36.14865300 Ry

     total magnetization       =    82.00 Bohr mag/cell
     absolute magnetization    =   109.12 Bohr mag/cell

     iteration #  7     ecut=    50.00 Ry     beta= 0.50
     Davidson diagonalization with overlap
     ethr =  3.35E-03,  avg # of iterations =  2.0

     negative rho (up, down):  1.009E-03 5.171E-04
 
     Adding external electric field

     Computed dipole along edir(3) : 
        Dipole               -3.4175 Ry au,         -8.6865 Debye
        Dipole field         -0.0021 Ry au, 
 
        Potential amp.        0.2294 Ry
        Total length         54.2615 bohr
 
 
     Adding external electric field

     Computed dipole along edir(3) : 
        Dipole               -3.4175 Ry au,         -8.6865 Debye
        Dipole field         -0.0021 Ry au, 
 
        Potential amp.        0.2294 Ry
        Total length         54.2615 bohr
 

     total cpu time spent up to now is      154.1 secs

     total energy              =   -7396.48314874 Ry
     estimated scf accuracy    <      22.57551439 Ry

     total magnetization       =    80.03 Bohr mag/cell
     absolute magnetization    =    98.33 Bohr mag/cell

     iteration #  8     ecut=    50.00 Ry     beta= 0.50
     Davidson diagonalization with overlap
     ethr =  2.09E-03,  avg # of iterations =  2.0

     negative rho (up, down):  2.878E-04 2.419E-03
 
     Adding external electric field

     Computed dipole along edir(3) : 
        Dipole               -3.5056 Ry au,         -8.9103 Debye
        Dipole field         -0.0022 Ry au, 
 
        Potential amp.        0.2353 Ry
        Total length         54.2615 bohr
 
 
     Adding external electric field

     Computed dipole along edir(3) : 
        Dipole               -3.5056 Ry au,         -8.9103 Debye
        Dipole field         -0.0022 Ry au, 
 
        Potential amp.        0.2353 Ry
        Total length         54.2615 bohr
 

     total cpu time spent up to now is      170.2 secs

     total energy              =   -7397.04819433 Ry
     estimated scf accuracy    <      37.07683738 Ry

     total magnetization       =    75.65 Bohr mag/cell
     absolute magnetization    =    86.84 Bohr mag/cell

     iteration #  9     ecut=    50.00 Ry     beta= 0.50
     Davidson diagonalization with overlap
     ethr =  2.09E-03,  avg # of iterations =  2.0

     negative rho (up, down):  3.323E-04 2.493E-03
 
     Adding external electric field

     Computed dipole along edir(3) : 
        Dipole               -3.5122 Ry au,         -8.9270 Debye
        Dipole field         -0.0022 Ry au, 
 
        Potential amp.        0.2357 Ry
        Total length         54.2615 bohr
 
 
     Adding external electric field

     Computed dipole along edir(3) : 
        Dipole               -3.5122 Ry au,         -8.9270 Debye
        Dipole field         -0.0022 Ry au, 
 
        Potential amp.        0.2357 Ry
        Total length         54.2615 bohr
 

     total cpu time spent up to now is      185.5 secs

     total energy              =   -7397.93199906 Ry
     estimated scf accuracy    <       4.47278914 Ry

     total magnetization       =    77.41 Bohr mag/cell
     absolute magnetization    =    85.13 Bohr mag/cell

     iteration # 10     ecut=    50.00 Ry     beta= 0.50
     Davidson diagonalization with overlap
     ethr =  4.15E-04,  avg # of iterations =  7.0

     negative rho (up, down):  6.363E-04 4.174E-03
 
     Adding external electric field

     Computed dipole along edir(3) : 
        Dipole               -3.5133 Ry au,         -8.9299 Debye
        Dipole field         -0.0022 Ry au, 
 
        Potential amp.        0.2358 Ry
        Total length         54.2615 bohr
 
 
     Adding external electric field

     Computed dipole along edir(3) : 
        Dipole               -3.5133 Ry au,         -8.9299 Debye
        Dipole field         -0.0022 Ry au, 
 
        Potential amp.        0.2358 Ry
        Total length         54.2615 bohr
 

     total cpu time spent up to now is      208.7 secs

     total energy              =   -7398.03191151 Ry
     estimated scf accuracy    <       2.71321115 Ry

     total magnetization       =    79.53 Bohr mag/cell
     absolute magnetization    =    86.21 Bohr mag/cell

     iteration # 11     ecut=    50.00 Ry     beta= 0.50
     Davidson diagonalization with overlap
     ethr =  2.52E-04,  avg # of iterations = 10.0

     negative rho (up, down):  7.494E-06 2.169E-04
 
     Adding external electric field

     Computed dipole along edir(3) : 
        Dipole               -3.2925 Ry au,         -8.3686 Debye
        Dipole field         -0.0020 Ry au, 
 
        Potential amp.        0.2210 Ry
        Total length         54.2615 bohr
 
 
     Adding external electric field

     Computed dipole along edir(3) : 
        Dipole               -3.2925 Ry au,         -8.3686 Debye
        Dipole field         -0.0020 Ry au, 
 
        Potential amp.        0.2210 Ry
        Total length         54.2615 bohr
 

     total cpu time spent up to now is      231.5 secs

     total energy              =   -7398.05421210 Ry
     estimated scf accuracy    <       4.61325985 Ry

     total magnetization       =    78.96 Bohr mag/cell
     absolute magnetization    =    83.91 Bohr mag/cell

     iteration # 12     ecut=    50.00 Ry     beta= 0.50
     Davidson diagonalization with overlap
     ethr =  2.52E-04,  avg # of iterations =  1.0

     negative rho (up, down):  3.668E-06 1.945E-04
 
     Adding external electric field

     Computed dipole along edir(3) : 
        Dipole               -3.2360 Ry au,         -8.2252 Debye
        Dipole field         -0.0020 Ry au, 
 
        Potential amp.        0.2172 Ry
        Total length         54.2615 bohr
 
 
     Adding external electric field

     Computed dipole along edir(3) : 
        Dipole               -3.2360 Ry au,         -8.2252 Debye
        Dipole field         -0.0020 Ry au, 
 
        Potential amp.        0.2172 Ry
        Total length         54.2615 bohr
 

     total cpu time spent up to now is      244.3 secs

     total energy              =   -7398.03051120 Ry
     estimated scf accuracy    <       6.49132501 Ry

     total magnetization       =    76.87 Bohr mag/cell
     absolute magnetization    =    80.58 Bohr mag/cell

     iteration # 13     ecut=    50.00 Ry     beta= 0.50
     Davidson diagonalization with overlap
     ethr =  2.52E-04,  avg # of iterations =  1.5

     negative rho (up, down):  2.082E-08 7.377E-09
 
     Adding external electric field

     Computed dipole along edir(3) : 
        Dipole               -2.8832 Ry au,         -7.3284 Debye
        Dipole field         -0.0018 Ry au, 
 
        Potential amp.        0.1935 Ry
        Total length         54.2615 bohr
 
 
     Adding external electric field

     Computed dipole along edir(3) : 
        Dipole               -2.8832 Ry au,         -7.3284 Debye
        Dipole field         -0.0018 Ry au, 
 
        Potential amp.        0.1935 Ry
        Total length         54.2615 bohr
 

     total cpu time spent up to now is      257.7 secs

     total energy              =   -7398.04408838 Ry
     estimated scf accuracy    <       3.02391131 Ry

     total magnetization       =    78.41 Bohr mag/cell
     absolute magnetization    =    82.57 Bohr mag/cell

     iteration # 14     ecut=    50.00 Ry     beta= 0.50
     Davidson diagonalization with overlap
     ethr =  2.52E-04,  avg # of iterations =  1.5

     negative rho (up, down):  7.430E-09 6.829E-06
 
     Adding external electric field

     Computed dipole along edir(3) : 
        Dipole               -2.6858 Ry au,         -6.8265 Debye
        Dipole field         -0.0017 Ry au, 
 
        Potential amp.        0.1803 Ry
        Total length         54.2615 bohr
 
 
     Adding external electric field

     Computed dipole along edir(3) : 
        Dipole               -2.6858 Ry au,         -6.8265 Debye
        Dipole field         -0.0017 Ry au, 
 
        Potential amp.        0.1803 Ry
        Total length         54.2615 bohr
 

     total cpu time spent up to now is      271.4 secs

     total energy              =   -7397.99191551 Ry
     estimated scf accuracy    <      13.04595544 Ry

     total magnetization       =    79.09 Bohr mag/cell
     absolute magnetization    =    82.49 Bohr mag/cell

     iteration # 15     ecut=    50.00 Ry     beta= 0.50
     Davidson diagonalization with overlap
     ethr =  2.52E-04,  avg # of iterations =  1.0

     negative rho (up, down):  7.090E-09 2.465E-03
 
     Adding external electric field

     Computed dipole along edir(3) : 
        Dipole               -2.1155 Ry au,         -5.3770 Debye
        Dipole field         -0.0013 Ry au, 
 
        Potential amp.        0.1420 Ry
        Total length         54.2615 bohr
 
 
     Adding external electric field

     Computed dipole along edir(3) : 
        Dipole               -2.1155 Ry au,         -5.3770 Debye
        Dipole field         -0.0013 Ry au, 
 
        Potential amp.        0.1420 Ry
        Total length         54.2615 bohr
 

     total cpu time spent up to now is      283.8 secs

     total energy              =   -7398.04486542 Ry
     estimated scf accuracy    <       7.57619556 Ry

     total magnetization       =    80.04 Bohr mag/cell
     absolute magnetization    =    83.09 Bohr mag/cell

     iteration # 16     ecut=    50.00 Ry     beta= 0.50
     Davidson diagonalization with overlap
     ethr =  2.52E-04,  avg # of iterations =  1.5
 
     Adding external electric field

     Computed dipole along edir(3) : 
        Dipole               -2.1787 Ry au,         -5.5378 Debye
        Dipole field         -0.0013 Ry au, 
 
        Potential amp.        0.1462 Ry
        Total length         54.2615 bohr
 
 
     Adding external electric field

     Computed dipole along edir(3) : 
        Dipole               -2.1787 Ry au,         -5.5378 Debye
        Dipole field         -0.0013 Ry au, 
 
        Potential amp.        0.1462 Ry
        Total length         54.2615 bohr
 

     total cpu time spent up to now is      297.9 secs

     total energy              =   -7397.94986126 Ry
     estimated scf accuracy    <       2.96612720 Ry

     total magnetization       =    80.17 Bohr mag/cell
     absolute magnetization    =    82.43 Bohr mag/cell

     iteration # 17     ecut=    50.00 Ry     beta= 0.50
     Davidson diagonalization with overlap
     ethr =  2.52E-04,  avg # of iterations =  2.0
 
     Adding external electric field

     Computed dipole along edir(3) : 
        Dipole               -2.4930 Ry au,         -6.3366 Debye
        Dipole field         -0.0015 Ry au, 
 
        Potential amp.        0.1673 Ry
        Total length         54.2615 bohr
 
 
     Adding external electric field

     Computed dipole along edir(3) : 
        Dipole               -2.4930 Ry au,         -6.3366 Debye
        Dipole field         -0.0015 Ry au, 
 
        Potential amp.        0.1673 Ry
        Total length         54.2615 bohr
 

     total cpu time spent up to now is      312.8 secs

     total energy              =   -7397.97684888 Ry
     estimated scf accuracy    <       1.32733566 Ry

     total magnetization       =    78.72 Bohr mag/cell
     absolute magnetization    =    80.71 Bohr mag/cell

     iteration # 18     ecut=    50.00 Ry     beta= 0.50
     Davidson diagonalization with overlap
     ethr =  1.23E-04,  avg # of iterations =  2.0
 
     Adding external electric field

     Computed dipole along edir(3) : 
        Dipole               -2.0681 Ry au,         -5.2567 Debye
        Dipole field         -0.0013 Ry au, 
 
        Potential amp.        0.1388 Ry
        Total length         54.2615 bohr
 
 
     Adding external electric field

     Computed dipole along edir(3) : 
        Dipole               -2.0681 Ry au,         -5.2567 Debye
        Dipole field         -0.0013 Ry au, 
 
        Potential amp.        0.1388 Ry
        Total length         54.2615 bohr
 

     total cpu time spent up to now is      327.1 secs

     total energy              =   -7398.04240163 Ry
     estimated scf accuracy    <       2.12925040 Ry

     total magnetization       =    79.41 Bohr mag/cell
     absolute magnetization    =    81.66 Bohr mag/cell

     iteration # 19     ecut=    50.00 Ry     beta= 0.50
     Davidson diagonalization with overlap
     ethr =  1.23E-04,  avg # of iterations =  1.5
 
     Adding external electric field

     Computed dipole along edir(3) : 
        Dipole               -1.9665 Ry au,         -4.9984 Debye
        Dipole field         -0.0012 Ry au, 
 
        Potential amp.        0.1320 Ry
        Total length         54.2615 bohr
 
 
     Adding external electric field

     Computed dipole along edir(3) : 
        Dipole               -1.9665 Ry au,         -4.9984 Debye
        Dipole field         -0.0012 Ry au, 
 
        Potential amp.        0.1320 Ry
        Total length         54.2615 bohr
 

     total cpu time spent up to now is      341.0 secs

     total energy              =   -7398.06149819 Ry
     estimated scf accuracy    <       0.46355202 Ry

     total magnetization       =    80.39 Bohr mag/cell
     absolute magnetization    =    82.08 Bohr mag/cell

     iteration # 20     ecut=    50.00 Ry     beta= 0.50
     Davidson diagonalization with overlap
     ethr =  4.30E-05,  avg # of iterations =  2.0
 
     Adding external electric field

     Computed dipole along edir(3) : 
        Dipole               -1.8606 Ry au,         -4.7292 Debye
        Dipole field         -0.0012 Ry au, 
 
        Potential amp.        0.1249 Ry
        Total length         54.2615 bohr
 
 
     Adding external electric field

     Computed dipole along edir(3) : 
        Dipole               -1.8606 Ry au,         -4.7292 Debye
        Dipole field         -0.0012 Ry au, 
 
        Potential amp.        0.1249 Ry
        Total length         54.2615 bohr
 

     total cpu time spent up to now is      355.6 secs

     total energy              =   -7398.06466153 Ry
     estimated scf accuracy    <       0.20576810 Ry

     total magnetization       =    80.62 Bohr mag/cell
     absolute magnetization    =    82.30 Bohr mag/cell

     iteration # 21     ecut=    50.00 Ry     beta= 0.50
     Davidson diagonalization with overlap
     ethr =  1.91E-05,  avg # of iterations = 21.5
 
     Adding external electric field

     Computed dipole along edir(3) : 
        Dipole               -1.5249 Ry au,         -3.8758 Debye
        Dipole field         -0.0009 Ry au, 
 
        Potential amp.        0.1023 Ry
        Total length         54.2615 bohr
 
 
     Adding external electric field

     Computed dipole along edir(3) : 
        Dipole               -1.5249 Ry au,         -3.8758 Debye
        Dipole field         -0.0009 Ry au, 
 
        Potential amp.        0.1023 Ry
        Total length         54.2615 bohr
 

     total cpu time spent up to now is      397.4 secs

     total energy              =   -7398.05966457 Ry
     estimated scf accuracy    <       0.15310768 Ry

     total magnetization       =    80.38 Bohr mag/cell
     absolute magnetization    =    81.99 Bohr mag/cell

     iteration # 22     ecut=    50.00 Ry     beta= 0.50
     Davidson diagonalization with overlap
     ethr =  1.42E-05,  avg # of iterations =  2.0
 
     Adding external electric field

     Computed dipole along edir(3) : 
        Dipole               -1.4067 Ry au,         -3.5756 Debye
        Dipole field         -0.0009 Ry au, 
 
        Potential amp.        0.0944 Ry
        Total length         54.2615 bohr
 
 
     Adding external electric field

     Computed dipole along edir(3) : 
        Dipole               -1.4067 Ry au,         -3.5756 Debye
        Dipole field         -0.0009 Ry au, 
 
        Potential amp.        0.0944 Ry
        Total length         54.2615 bohr
 

     total cpu time spent up to now is      411.4 secs

     total energy              =   -7398.06011256 Ry
     estimated scf accuracy    <       0.15283671 Ry

     total magnetization       =    80.35 Bohr mag/cell
     absolute magnetization    =    81.89 Bohr mag/cell

     iteration # 23     ecut=    50.00 Ry     beta= 0.50
     Davidson diagonalization with overlap
     ethr =  1.42E-05,  avg # of iterations =  1.0
 
     Adding external electric field

     Computed dipole along edir(3) : 
        Dipole               -1.3300 Ry au,         -3.3805 Debye
        Dipole field         -0.0008 Ry au, 
 
        Potential amp.        0.0893 Ry
        Total length         54.2615 bohr
 
 
     Adding external electric field

     Computed dipole along edir(3) : 
        Dipole               -1.3300 Ry au,         -3.3805 Debye
        Dipole field         -0.0008 Ry au, 
 
        Potential amp.        0.0893 Ry
        Total length         54.2615 bohr
 

     total cpu time spent up to now is      423.5 secs

     total energy              =   -7398.05806768 Ry
     estimated scf accuracy    <       0.19338670 Ry

     total magnetization       =    80.20 Bohr mag/cell
     absolute magnetization    =    81.74 Bohr mag/cell

     iteration # 24     ecut=    50.00 Ry     beta= 0.50
     Davidson diagonalization with overlap
     ethr =  1.42E-05,  avg # of iterations =  2.0
 
     Adding external electric field

     Computed dipole along edir(3) : 
        Dipole               -1.4805 Ry au,         -3.7631 Debye
        Dipole field         -0.0009 Ry au, 
 
        Potential amp.        0.0994 Ry
        Total length         54.2615 bohr
 
 
     Adding external electric field

     Computed dipole along edir(3) : 
        Dipole               -1.4805 Ry au,         -3.7631 Debye
        Dipole field         -0.0009 Ry au, 
 
        Potential amp.        0.0994 Ry
        Total length         54.2615 bohr
 

     total cpu time spent up to now is      437.1 secs

     total energy              =   -7398.05809049 Ry
     estimated scf accuracy    <       0.16166779 Ry

     total magnetization       =    80.56 Bohr mag/cell
     absolute magnetization    =    82.13 Bohr mag/cell

     iteration # 25     ecut=    50.00 Ry     beta= 0.50
     Davidson diagonalization with overlap
     ethr =  1.42E-05,  avg # of iterations =  1.0
 
     Adding external electric field

     Computed dipole along edir(3) : 
        Dipole               -1.3023 Ry au,         -3.3100 Debye
        Dipole field         -0.0008 Ry au, 
 
        Potential amp.        0.0874 Ry
        Total length         54.2615 bohr
 
 
     Adding external electric field

     Computed dipole along edir(3) : 
        Dipole               -1.3023 Ry au,         -3.3100 Debye
        Dipole field         -0.0008 Ry au, 
 
        Potential amp.        0.0874 Ry
        Total length         54.2615 bohr
 

     total cpu time spent up to now is      449.4 secs

     total energy              =   -7398.05501456 Ry
     estimated scf accuracy    <       0.09073383 Ry

     total magnetization       =    80.69 Bohr mag/cell
     absolute magnetization    =    82.30 Bohr mag/cell

     iteration # 26     ecut=    50.00 Ry     beta= 0.50
     Davidson diagonalization with overlap
     ethr =  8.42E-06,  avg # of iterations =  2.0
 
     Adding external electric field

     Computed dipole along edir(3) : 
        Dipole               -1.2288 Ry au,         -3.1233 Debye
        Dipole field         -0.0008 Ry au, 
 
        Potential amp.        0.0825 Ry
        Total length         54.2615 bohr
 
 
     Adding external electric field

     Computed dipole along edir(3) : 
        Dipole               -1.2288 Ry au,         -3.1233 Debye
        Dipole field         -0.0008 Ry au, 
 
        Potential amp.        0.0825 Ry
        Total length         54.2615 bohr
 

     total cpu time spent up to now is      463.8 secs

     total energy              =   -7398.05386842 Ry
     estimated scf accuracy    <       0.13212812 Ry

     total magnetization       =    80.71 Bohr mag/cell
     absolute magnetization    =    82.32 Bohr mag/cell

     iteration # 27     ecut=    50.00 Ry     beta= 0.50
     Davidson diagonalization with overlap
     ethr =  8.42E-06,  avg # of iterations =  1.5
 
     Adding external electric field

     Computed dipole along edir(3) : 
        Dipole               -1.2785 Ry au,         -3.2495 Debye
        Dipole field         -0.0008 Ry au, 
 
        Potential amp.        0.0858 Ry
        Total length         54.2615 bohr
 
 
     Adding external electric field

     Computed dipole along edir(3) : 
        Dipole               -1.2785 Ry au,         -3.2495 Debye
        Dipole field         -0.0008 Ry au, 
 
        Potential amp.        0.0858 Ry
        Total length         54.2615 bohr
 

     total cpu time spent up to now is      476.6 secs

     total energy              =   -7398.05378634 Ry
     estimated scf accuracy    <       0.14743466 Ry

     total magnetization       =    80.54 Bohr mag/cell
     absolute magnetization    =    82.17 Bohr mag/cell

     iteration # 28     ecut=    50.00 Ry     beta= 0.50
     Davidson diagonalization with overlap
     ethr =  8.42E-06,  avg # of iterations =  2.0
 
     Adding external electric field

     Computed dipole along edir(3) : 
        Dipole               -1.1990 Ry au,         -3.0475 Debye
        Dipole field         -0.0007 Ry au, 
 
        Potential amp.        0.0805 Ry
        Total length         54.2615 bohr
 
 
     Adding external electric field

     Computed dipole along edir(3) : 
        Dipole               -1.1990 Ry au,         -3.0475 Debye
        Dipole field         -0.0007 Ry au, 
 
        Potential amp.        0.0805 Ry
        Total length         54.2615 bohr
 

     total cpu time spent up to now is      490.2 secs

     total energy              =   -7398.05031954 Ry
     estimated scf accuracy    <       0.12006683 Ry

     total magnetization       =    80.45 Bohr mag/cell
     absolute magnetization    =    82.05 Bohr mag/cell

     iteration # 29     ecut=    50.00 Ry     beta= 0.50
     Davidson diagonalization with overlap
     ethr =  8.42E-06,  avg # of iterations =  2.0
 
     Adding external electric field

     Computed dipole along edir(3) : 
        Dipole               -1.0179 Ry au,         -2.5872 Debye
        Dipole field         -0.0006 Ry au, 
 
        Potential amp.        0.0683 Ry
        Total length         54.2615 bohr
 
 
     Adding external electric field

     Computed dipole along edir(3) : 
        Dipole               -1.0179 Ry au,         -2.5872 Debye
        Dipole field         -0.0006 Ry au, 
 
        Potential amp.        0.0683 Ry
        Total length         54.2615 bohr
 

     total cpu time spent up to now is      504.2 secs

     total energy              =   -7398.04492157 Ry
     estimated scf accuracy    <       0.07672678 Ry

     total magnetization       =    80.48 Bohr mag/cell
     absolute magnetization    =    82.09 Bohr mag/cell

     iteration # 30     ecut=    50.00 Ry     beta= 0.50
     Davidson diagonalization with overlap
     ethr =  7.12E-06,  avg # of iterations =  2.0
 
     Adding external electric field

     Computed dipole along edir(3) : 
        Dipole               -0.6149 Ry au,         -1.5629 Debye
        Dipole field         -0.0004 Ry au, 
 
        Potential amp.        0.0413 Ry
        Total length         54.2615 bohr
 
 
     Adding external electric field

     Computed dipole along edir(3) : 
        Dipole               -0.6149 Ry au,         -1.5629 Debye
        Dipole field         -0.0004 Ry au, 
 
        Potential amp.        0.0413 Ry
        Total length         54.2615 bohr
 

     total cpu time spent up to now is      518.8 secs

     total energy              =   -7398.03568386 Ry
     estimated scf accuracy    <       0.06991080 Ry

     total magnetization       =    80.45 Bohr mag/cell
     absolute magnetization    =    82.07 Bohr mag/cell

     iteration # 31     ecut=    50.00 Ry     beta= 0.50
     Davidson diagonalization with overlap
     ethr =  6.49E-06,  avg # of iterations = 18.5

     negative rho (up, down):  4.602E-07 1.782E-06
 
     Adding external electric field

     Computed dipole along edir(3) : 
        Dipole               -0.0811 Ry au,         -0.2060 Debye
        Dipole field         -0.0001 Ry au, 
 
        Potential amp.        0.0054 Ry
        Total length         54.2615 bohr
 
 
     Adding external electric field

     Computed dipole along edir(3) : 
        Dipole               -0.0811 Ry au,         -0.2060 Debye
        Dipole field         -0.0001 Ry au, 
 
        Potential amp.        0.0054 Ry
        Total length         54.2615 bohr
 

     total cpu time spent up to now is      552.1 secs

     total energy              =   -7398.02936237 Ry
     estimated scf accuracy    <       0.05218757 Ry

     total magnetization       =    80.41 Bohr mag/cell
     absolute magnetization    =    82.00 Bohr mag/cell

     iteration # 32     ecut=    50.00 Ry     beta= 0.50
     Davidson diagonalization with overlap
     ethr =  4.84E-06,  avg # of iterations = 11.5

     negative rho (up, down):  1.264E-04 1.854E-04
 
     Adding external electric field

     Computed dipole along edir(3) : 
        Dipole                0.1373 Ry au,          0.3490 Debye
        Dipole field          0.0001 Ry au, 
 
        Potential amp.       -0.0092 Ry
        Total length         54.2615 bohr
 
 
     Adding external electric field

     Computed dipole along edir(3) : 
        Dipole                0.1373 Ry au,          0.3490 Debye
        Dipole field          0.0001 Ry au, 
 
        Potential amp.       -0.0092 Ry
        Total length         54.2615 bohr
 

     total cpu time spent up to now is      574.2 secs

     total energy              =   -7398.02833312 Ry
     estimated scf accuracy    <       0.03208851 Ry

     total magnetization       =    80.14 Bohr mag/cell
     absolute magnetization    =    81.69 Bohr mag/cell

     iteration # 33     ecut=    50.00 Ry     beta= 0.50
     Davidson diagonalization with overlap
     ethr =  2.98E-06,  avg # of iterations = 10.5

     negative rho (up, down):  3.933E-04 3.443E-04
 
     Adding external electric field

     Computed dipole along edir(3) : 
        Dipole                0.1979 Ry au,          0.5031 Debye
        Dipole field          0.0001 Ry au, 
 
        Potential amp.       -0.0133 Ry
        Total length         54.2615 bohr
 
 
     Adding external electric field

     Computed dipole along edir(3) : 
        Dipole                0.1979 Ry au,          0.5031 Debye
        Dipole field          0.0001 Ry au, 
 
        Potential amp.       -0.0133 Ry
        Total length         54.2615 bohr
 

     total cpu time spent up to now is      596.2 secs

     total energy              =   -7398.02811302 Ry
     estimated scf accuracy    <       0.02729116 Ry

     total magnetization       =    80.14 Bohr mag/cell
     absolute magnetization    =    81.65 Bohr mag/cell

     iteration # 34     ecut=    50.00 Ry     beta= 0.50
     Davidson diagonalization with overlap
     ethr =  2.53E-06,  avg # of iterations =  2.0

     negative rho (up, down):  9.726E-04 8.070E-04
 
     Adding external electric field

     Computed dipole along edir(3) : 
        Dipole                0.2236 Ry au,          0.5683 Debye
        Dipole field          0.0001 Ry au, 
 
        Potential amp.       -0.0150 Ry
        Total length         54.2615 bohr
 
 
     Adding external electric field

     Computed dipole along edir(3) : 
        Dipole                0.2236 Ry au,          0.5683 Debye
        Dipole field          0.0001 Ry au, 
 
        Potential amp.       -0.0150 Ry
        Total length         54.2615 bohr
 

     total cpu time spent up to now is      610.1 secs

     total energy              =   -7398.02820492 Ry
     estimated scf accuracy    <       0.00740492 Ry

     total magnetization       =    80.35 Bohr mag/cell
     absolute magnetization    =    81.84 Bohr mag/cell

     iteration # 35     ecut=    50.00 Ry     beta= 0.50
     Davidson diagonalization with overlap
     ethr =  6.87E-07,  avg # of iterations =  9.0

     negative rho (up, down):  3.315E-04 1.280E-04
 
     Adding external electric field

     Computed dipole along edir(3) : 
        Dipole                0.2126 Ry au,          0.5405 Debye
        Dipole field          0.0001 Ry au, 
 
        Potential amp.       -0.0143 Ry
        Total length         54.2615 bohr
 
 
     Adding external electric field

     Computed dipole along edir(3) : 
        Dipole                0.2126 Ry au,          0.5405 Debye
        Dipole field          0.0001 Ry au, 
 
        Potential amp.       -0.0143 Ry
        Total length         54.2615 bohr
 

     total cpu time spent up to now is      629.2 secs

     total energy              =   -7398.02825862 Ry
     estimated scf accuracy    <       0.00587301 Ry

     total magnetization       =    80.13 Bohr mag/cell
     absolute magnetization    =    81.63 Bohr mag/cell

     iteration # 36     ecut=    50.00 Ry     beta= 0.50
     Davidson diagonalization with overlap
     ethr =  5.45E-07,  avg # of iterations =  2.0

     negative rho (up, down):  2.513E-04 8.669E-05
 
     Adding external electric field

     Computed dipole along edir(3) : 
        Dipole                0.2046 Ry au,          0.5202 Debye
        Dipole field          0.0001 Ry au, 
 
        Potential amp.       -0.0137 Ry
        Total length         54.2615 bohr
 
 
     Adding external electric field

     Computed dipole along edir(3) : 
        Dipole                0.2046 Ry au,          0.5202 Debye
        Dipole field          0.0001 Ry au, 
 
        Potential amp.       -0.0137 Ry
        Total length         54.2615 bohr
 

     total cpu time spent up to now is      643.4 secs

     total energy              =   -7398.02824128 Ry
     estimated scf accuracy    <       0.00291931 Ry

     total magnetization       =    80.30 Bohr mag/cell
     absolute magnetization    =    81.80 Bohr mag/cell

     iteration # 37     ecut=    50.00 Ry     beta= 0.50
     Davidson diagonalization with overlap
     ethr =  2.71E-07,  avg # of iterations =  2.0

     negative rho (up, down):  1.122E-03 8.005E-04
 
     Adding external electric field

     Computed dipole along edir(3) : 
        Dipole                0.2389 Ry au,          0.6071 Debye
        Dipole field          0.0001 Ry au, 
 
        Potential amp.       -0.0160 Ry
        Total length         54.2615 bohr
 
 
     Adding external electric field

     Computed dipole along edir(3) : 
        Dipole                0.2389 Ry au,          0.6071 Debye
        Dipole field          0.0001 Ry au, 
 
        Potential amp.       -0.0160 Ry
        Total length         54.2615 bohr
 

     total cpu time spent up to now is      658.1 secs

     total energy              =   -7398.02827621 Ry
     estimated scf accuracy    <       0.00223883 Ry

     total magnetization       =    80.30 Bohr mag/cell
     absolute magnetization    =    81.81 Bohr mag/cell

     iteration # 38     ecut=    50.00 Ry     beta= 0.50
     Davidson diagonalization with overlap
     ethr =  2.08E-07,  avg # of iterations =  2.0

     negative rho (up, down):  1.328E-03 1.070E-03
 
     Adding external electric field

     Computed dipole along edir(3) : 
        Dipole                0.2459 Ry au,          0.6250 Debye
        Dipole field          0.0002 Ry au, 
 
        Potential amp.       -0.0165 Ry
        Total length         54.2615 bohr
 
 
     Adding external electric field

     Computed dipole along edir(3) : 
        Dipole                0.2459 Ry au,          0.6250 Debye
        Dipole field          0.0002 Ry au, 
 
        Potential amp.       -0.0165 Ry
        Total length         54.2615 bohr
 

     total cpu time spent up to now is      672.8 secs

     total energy              =   -7398.02825964 Ry
     estimated scf accuracy    <       0.00125633 Ry

     total magnetization       =    80.27 Bohr mag/cell
     absolute magnetization    =    81.79 Bohr mag/cell

     iteration # 39     ecut=    50.00 Ry     beta= 0.50
     Davidson diagonalization with overlap
     ethr =  1.17E-07,  avg # of iterations =  2.0

     negative rho (up, down):  2.424E-03 2.206E-03
 
     Adding external electric field

     Computed dipole along edir(3) : 
        Dipole                0.2644 Ry au,          0.6720 Debye
        Dipole field          0.0002 Ry au, 
 
        Potential amp.       -0.0177 Ry
        Total length         54.2615 bohr
 
 
     Adding external electric field

     Computed dipole along edir(3) : 
        Dipole                0.2644 Ry au,          0.6720 Debye
        Dipole field          0.0002 Ry au, 
 
        Potential amp.       -0.0177 Ry
        Total length         54.2615 bohr
 

     total cpu time spent up to now is      687.3 secs

     total energy              =   -7398.02829941 Ry
     estimated scf accuracy    <       0.00145531 Ry

     total magnetization       =    80.33 Bohr mag/cell
     absolute magnetization    =    81.85 Bohr mag/cell

     iteration # 40     ecut=    50.00 Ry     beta= 0.50
     Davidson diagonalization with overlap
     ethr =  1.17E-07,  avg # of iterations =  1.5

     negative rho (up, down):  2.291E-03 2.115E-03
 
     Adding external electric field

     Computed dipole along edir(3) : 
        Dipole                0.2695 Ry au,          0.6849 Debye
        Dipole field          0.0002 Ry au, 
 
        Potential amp.       -0.0181 Ry
        Total length         54.2615 bohr
 
 
     Adding external electric field

     Computed dipole along edir(3) : 
        Dipole                0.2695 Ry au,          0.6849 Debye
        Dipole field          0.0002 Ry au, 
 
        Potential amp.       -0.0181 Ry
        Total length         54.2615 bohr
 

     total cpu time spent up to now is      700.7 secs

     total energy              =   -7398.02832571 Ry
     estimated scf accuracy    <       0.00042915 Ry

     total magnetization       =    80.31 Bohr mag/cell
     absolute magnetization    =    81.84 Bohr mag/cell

     iteration # 41     ecut=    50.00 Ry     beta= 0.50
     Davidson diagonalization with overlap
     ethr =  3.98E-08,  avg # of iterations =  2.0

     negative rho (up, down):  2.783E-03 2.687E-03
 
     Adding external electric field

     Computed dipole along edir(3) : 
        Dipole                0.2787 Ry au,          0.7084 Debye
        Dipole field          0.0002 Ry au, 
 
        Potential amp.       -0.0187 Ry
        Total length         54.2615 bohr
 
 
     Adding external electric field

     Computed dipole along edir(3) : 
        Dipole                0.2787 Ry au,          0.7084 Debye
        Dipole field          0.0002 Ry au, 
 
        Potential amp.       -0.0187 Ry
        Total length         54.2615 bohr
 

     total cpu time spent up to now is      715.5 secs

     total energy              =   -7398.02832898 Ry
     estimated scf accuracy    <       0.00025969 Ry

     total magnetization       =    80.31 Bohr mag/cell
     absolute magnetization    =    81.84 Bohr mag/cell

     iteration # 42     ecut=    50.00 Ry     beta= 0.50
     Davidson diagonalization with overlap
     ethr =  2.41E-08,  avg # of iterations =  2.0

     negative rho (up, down):  2.882E-03 2.785E-03
 
     Adding external electric field

     Computed dipole along edir(3) : 
        Dipole                0.2829 Ry au,          0.7191 Debye
        Dipole field          0.0002 Ry au, 
 
        Potential amp.       -0.0190 Ry
        Total length         54.2615 bohr
 
 
     Adding external electric field

     Computed dipole along edir(3) : 
        Dipole                0.2829 Ry au,          0.7191 Debye
        Dipole field          0.0002 Ry au, 
 
        Potential amp.       -0.0190 Ry
        Total length         54.2615 bohr
 

     total cpu time spent up to now is      729.7 secs

     total energy              =   -7398.02833076 Ry
     estimated scf accuracy    <       0.00015198 Ry

     total magnetization       =    80.31 Bohr mag/cell
     absolute magnetization    =    81.84 Bohr mag/cell

     iteration # 43     ecut=    50.00 Ry     beta= 0.50
     Davidson diagonalization with overlap
     ethr =  1.41E-08,  avg # of iterations =  2.0

     negative rho (up, down):  2.795E-03 2.666E-03
 
     Adding external electric field

     Computed dipole along edir(3) : 
        Dipole                0.2879 Ry au,          0.7317 Debye
        Dipole field          0.0002 Ry au, 
 
        Potential amp.       -0.0193 Ry
        Total length         54.2615 bohr
 
 
     Adding external electric field

     Computed dipole along edir(3) : 
        Dipole                0.2879 Ry au,          0.7317 Debye
        Dipole field          0.0002 Ry au, 
 
        Potential amp.       -0.0193 Ry
        Total length         54.2615 bohr
 

     total cpu time spent up to now is      744.2 secs

     total energy              =   -7398.02833000 Ry
     estimated scf accuracy    <       0.00009923 Ry

     total magnetization       =    80.30 Bohr mag/cell
     absolute magnetization    =    81.83 Bohr mag/cell

     iteration # 44     ecut=    50.00 Ry     beta= 0.50
     Davidson diagonalization with overlap
     ethr =  9.20E-09,  avg # of iterations =  2.0

     negative rho (up, down):  2.432E-03 2.236E-03
 
     Adding external electric field

     Computed dipole along edir(3) : 
        Dipole                0.2853 Ry au,          0.7252 Debye
        Dipole field          0.0002 Ry au, 
 
        Potential amp.       -0.0191 Ry
        Total length         54.2615 bohr
 
 
     Adding external electric field

     Computed dipole along edir(3) : 
        Dipole                0.2853 Ry au,          0.7252 Debye
        Dipole field          0.0002 Ry au, 
 
        Potential amp.       -0.0191 Ry
        Total length         54.2615 bohr
 

     total cpu time spent up to now is      758.7 secs

     total energy              =   -7398.02832898 Ry
     estimated scf accuracy    <       0.00003002 Ry

     total magnetization       =    80.29 Bohr mag/cell
     absolute magnetization    =    81.82 Bohr mag/cell

     iteration # 45     ecut=    50.00 Ry     beta= 0.50
     Davidson diagonalization with overlap
     ethr =  2.79E-09,  avg # of iterations =  2.0

     negative rho (up, down):  2.298E-03 2.081E-03
 
     Adding external electric field

     Computed dipole along edir(3) : 
        Dipole                0.2840 Ry au,          0.7218 Debye
        Dipole field          0.0002 Ry au, 
 
        Potential amp.       -0.0191 Ry
        Total length         54.2615 bohr
 
 
     Adding external electric field

     Computed dipole along edir(3) : 
        Dipole                0.2840 Ry au,          0.7218 Debye
        Dipole field          0.0002 Ry au, 
 
        Potential amp.       -0.0191 Ry
        Total length         54.2615 bohr
 

     total cpu time spent up to now is      773.3 secs

     total energy              =   -7398.02832899 Ry
     estimated scf accuracy    <       0.00010445 Ry

     total magnetization       =    80.29 Bohr mag/cell
     absolute magnetization    =    81.82 Bohr mag/cell

     iteration # 46     ecut=    50.00 Ry     beta= 0.50
     Davidson diagonalization with overlap
     ethr =  2.79E-09,  avg # of iterations =  1.0

     negative rho (up, down):  2.230E-03 2.009E-03
 
     Adding external electric field

     Computed dipole along edir(3) : 
        Dipole                0.2847 Ry au,          0.7236 Debye
        Dipole field          0.0002 Ry au, 
 
        Potential amp.       -0.0191 Ry
        Total length         54.2615 bohr
 
 
     Adding external electric field

     Computed dipole along edir(3) : 
        Dipole                0.2847 Ry au,          0.7236 Debye
        Dipole field          0.0002 Ry au, 
 
        Potential amp.       -0.0191 Ry
        Total length         54.2615 bohr
 

     total cpu time spent up to now is      785.5 secs

     total energy              =   -7398.02832760 Ry
     estimated scf accuracy    <       0.00013323 Ry

     total magnetization       =    80.29 Bohr mag/cell
     absolute magnetization    =    81.82 Bohr mag/cell

     iteration # 47     ecut=    50.00 Ry     beta= 0.50
     Davidson diagonalization with overlap
     ethr =  2.79E-09,  avg # of iterations =  1.5

     negative rho (up, down):  1.619E-03 1.302E-03
 
     Adding external electric field

     Computed dipole along edir(3) : 
        Dipole                0.2764 Ry au,          0.7025 Debye
        Dipole field          0.0002 Ry au, 
 
        Potential amp.       -0.0186 Ry
        Total length         54.2615 bohr
 
 
     Adding external electric field

     Computed dipole along edir(3) : 
        Dipole                0.2764 Ry au,          0.7025 Debye
        Dipole field          0.0002 Ry au, 
 
        Potential amp.       -0.0186 Ry
        Total length         54.2615 bohr
 

     total cpu time spent up to now is      803.2 secs

     total energy              =   -7398.02832271 Ry
     estimated scf accuracy    <       0.00007506 Ry

     total magnetization       =    80.29 Bohr mag/cell
     absolute magnetization    =    81.82 Bohr mag/cell

     iteration # 48     ecut=    50.00 Ry     beta= 0.50
     Davidson diagonalization with overlap
     ethr =  2.79E-09,  avg # of iterations =  1.5

     negative rho (up, down):  1.125E-03 7.490E-04
 
     Adding external electric field

     Computed dipole along edir(3) : 
        Dipole                0.2734 Ry au,          0.6950 Debye
        Dipole field          0.0002 Ry au, 
 
        Potential amp.       -0.0184 Ry
        Total length         54.2615 bohr
 
 
     Adding external electric field

     Computed dipole along edir(3) : 
        Dipole                0.2734 Ry au,          0.6950 Debye
        Dipole field          0.0002 Ry au, 
 
        Potential amp.       -0.0184 Ry
        Total length         54.2615 bohr
 

     total cpu time spent up to now is      819.2 secs

     total energy              =   -7398.02831861 Ry
     estimated scf accuracy    <       0.00009253 Ry

     total magnetization       =    80.30 Bohr mag/cell
     absolute magnetization    =    81.83 Bohr mag/cell

     iteration # 49     ecut=    50.00 Ry     beta= 0.50
     Davidson diagonalization with overlap
     ethr =  2.79E-09,  avg # of iterations =  1.5

     negative rho (up, down):  1.039E-03 6.565E-04
 
     Adding external electric field

     Computed dipole along edir(3) : 
        Dipole                0.2747 Ry au,          0.6981 Debye
        Dipole field          0.0002 Ry au, 
 
        Potential amp.       -0.0184 Ry
        Total length         54.2615 bohr
 
 
     Adding external electric field

     Computed dipole along edir(3) : 
        Dipole                0.2747 Ry au,          0.6981 Debye
        Dipole field          0.0002 Ry au, 
 
        Potential amp.       -0.0184 Ry
        Total length         54.2615 bohr
 

     total cpu time spent up to now is      832.4 secs

     total energy              =   -7398.02831855 Ry
     estimated scf accuracy    <       0.00001025 Ry

     total magnetization       =    80.29 Bohr mag/cell
     absolute magnetization    =    81.82 Bohr mag/cell

     iteration # 50     ecut=    50.00 Ry     beta= 0.50
     Davidson diagonalization with overlap
     ethr =  9.50E-10,  avg # of iterations =  1.5

     negative rho (up, down):  1.020E-03 6.372E-04
 
     Adding external electric field

     Computed dipole along edir(3) : 
        Dipole                0.2753 Ry au,          0.6997 Debye
        Dipole field          0.0002 Ry au, 
 
        Potential amp.       -0.0185 Ry
        Total length         54.2615 bohr
 
 
     Adding external electric field

     Computed dipole along edir(3) : 
        Dipole                0.2753 Ry au,          0.6997 Debye
        Dipole field          0.0002 Ry au, 
 
        Potential amp.       -0.0185 Ry
        Total length         54.2615 bohr
 

     total cpu time spent up to now is      845.1 secs

     total energy              =   -7398.02831844 Ry
     estimated scf accuracy    <       0.00000573 Ry

     total magnetization       =    80.29 Bohr mag/cell
     absolute magnetization    =    81.82 Bohr mag/cell

     iteration # 51     ecut=    50.00 Ry     beta= 0.50
     Davidson diagonalization with overlap
     ethr =  5.31E-10,  avg # of iterations =  1.0

     negative rho (up, down):  9.780E-04 5.941E-04
 
     Adding external electric field

     Computed dipole along edir(3) : 
        Dipole                0.2754 Ry au,          0.6999 Debye
        Dipole field          0.0002 Ry au, 
 
        Potential amp.       -0.0185 Ry
        Total length         54.2615 bohr
 
 
     Adding external electric field

     Computed dipole along edir(3) : 
        Dipole                0.2754 Ry au,          0.6999 Debye
        Dipole field          0.0002 Ry au, 
 
        Potential amp.       -0.0185 Ry
        Total length         54.2615 bohr
 

     total cpu time spent up to now is      857.1 secs

     total energy              =   -7398.02831819 Ry
     estimated scf accuracy    <       0.00000191 Ry

     total magnetization       =    80.29 Bohr mag/cell
     absolute magnetization    =    81.82 Bohr mag/cell

     iteration # 52     ecut=    50.00 Ry     beta= 0.50
     Davidson diagonalization with overlap
     ethr =  1.77E-10,  avg # of iterations =  1.5

     negative rho (up, down):  9.267E-04 5.434E-04
 
     Adding external electric field

     Computed dipole along edir(3) : 
        Dipole                0.2750 Ry au,          0.6989 Debye
        Dipole field          0.0002 Ry au, 
 
        Potential amp.       -0.0185 Ry
        Total length         54.2615 bohr
 
 
     Adding external electric field

     Computed dipole along edir(3) : 
        Dipole                0.2750 Ry au,          0.6989 Debye
        Dipole field          0.0002 Ry au, 
 
        Potential amp.       -0.0185 Ry
        Total length         54.2615 bohr
 

     total cpu time spent up to now is      869.9 secs

     total energy              =   -7398.02831784 Ry
     estimated scf accuracy    <       0.00000124 Ry

     total magnetization       =    80.29 Bohr mag/cell
     absolute magnetization    =    81.82 Bohr mag/cell

     iteration # 53     ecut=    50.00 Ry     beta= 0.50
     Davidson diagonalization with overlap
     ethr =  1.15E-10,  avg # of iterations =  1.5

     negative rho (up, down):  9.302E-04 5.485E-04
 
     Adding external electric field

     Computed dipole along edir(3) : 
        Dipole                0.2722 Ry au,          0.6919 Debye
        Dipole field          0.0002 Ry au, 
 
        Potential amp.       -0.0183 Ry
        Total length         54.2615 bohr
 
 
     Adding external electric field

     Computed dipole along edir(3) : 
        Dipole                0.2722 Ry au,          0.6919 Debye
        Dipole field          0.0002 Ry au, 
 
        Potential amp.       -0.0183 Ry
        Total length         54.2615 bohr
 
 
     Magnetic moment per site  (integrated on atomic sphere of radius R)
     atom   1 (R=0.087)  charge= 12.0155  magn=  3.7449
     atom   2 (R=0.081)  charge=  7.1432  magn=  1.5410
     atom   3 (R=0.081)  charge=  7.1581  magn=  1.4675
     atom   4 (R=0.081)  charge=  7.1410  magn=  1.5445
     atom   5 (R=0.081)  charge=  7.1607  magn=  1.5090
     atom   6 (R=0.081)  charge=  7.1627  magn=  1.4986
     atom   7 (R=0.081)  charge=  7.1099  magn=  1.6481
     atom   8 (R=0.081)  charge=  7.1423  magn=  1.5395
     atom   9 (R=0.081)  charge=  7.1591  magn=  1.4711
     atom  10 (R=0.081)  charge=  7.1407  magn=  1.5527
     atom  11 (R=0.081)  charge=  7.1583  magn=  1.5043
     atom  12 (R=0.081)  charge=  7.1606  magn=  1.4991
     atom  13 (R=0.065)  charge=  0.7302  magn=  0.0076
     atom  14 (R=0.065)  charge=  0.7272  magn=  0.0055
     atom  15 (R=0.065)  charge=  0.7266  magn=  0.0047
     atom  16 (R=0.065)  charge=  0.7271  magn=  0.0050
     atom  17 (R=0.043)  charge=  1.9305  magn=  0.0542
     atom  18 (R=0.043)  charge=  1.9289  magn=  0.0737
     atom  19 (R=0.043)  charge=  1.9214  magn=  0.0965
     atom  20 (R=0.043)  charge=  1.9280  magn=  0.0765
     atom  21 (R=0.043)  charge=  1.9393  magn=  0.0415
     atom  22 (R=0.043)  charge=  1.9309  magn=  0.0285
     atom  23 (R=0.043)  charge=  1.9197  magn=  0.0413
     atom  24 (R=0.043)  charge=  1.9325  magn=  0.0547
     atom  25 (R=0.043)  charge=  1.9296  magn=  0.0568
     atom  26 (R=0.043)  charge=  1.9285  magn=  0.0424
     atom  27 (R=0.043)  charge=  1.9310  magn=  0.0476
     atom  28 (R=0.043)  charge=  1.9300  magn=  0.0470
     atom  29 (R=0.043)  charge=  1.9326  magn=  0.0370
     atom  30 (R=0.043)  charge=  1.9298  magn=  0.0510
     atom  31 (R=0.043)  charge=  1.9336  magn=  0.0525
     atom  32 (R=0.043)  charge=  1.9322  magn=  0.0437
     atom  33 (R=0.065)  charge=  0.7271  magn=  0.0050
     atom  34 (R=0.065)  charge=  0.7275  magn=  0.0053
     atom  35 (R=0.065)  charge=  0.7254  magn=  0.0034
     atom  36 (R=0.065)  charge=  0.7276  magn=  0.0055
     atom  37 (R=0.043)  charge=  1.9226  magn=  0.0783
     atom  38 (R=0.043)  charge=  1.9272  magn=  0.0728
     atom  39 (R=0.043)  charge=  1.9234  magn=  0.1075
     atom  40 (R=0.043)  charge=  1.9282  magn=  0.0772
     atom  41 (R=0.043)  charge=  1.9318  magn=  0.0556
     atom  42 (R=0.043)  charge=  1.9261  magn=  0.0533
     atom  43 (R=0.043)  charge=  1.9231  magn=  0.0447
     atom  44 (R=0.043)  charge=  1.9330  magn=  0.0546
     atom  45 (R=0.043)  charge=  1.9309  magn=  0.0565
     atom  46 (R=0.043)  charge=  1.9308  magn=  0.0638
     atom  47 (R=0.043)  charge=  1.9334  magn=  0.0468
     atom  48 (R=0.043)  charge=  1.9323  magn=  0.0492
     atom  49 (R=0.043)  charge=  1.9317  magn=  0.0493
     atom  50 (R=0.043)  charge=  1.9263  magn=  0.0483
     atom  51 (R=0.043)  charge=  1.9314  magn=  0.0598
     atom  52 (R=0.043)  charge=  1.9329  magn=  0.0495
     atom  53 (R=0.087)  charge= 12.0511  magn=  3.8735
     atom  54 (R=0.081)  charge=  7.1444  magn=  1.5407
     atom  55 (R=0.081)  charge=  7.1435  magn=  1.5479
     atom  56 (R=0.081)  charge=  7.1449  magn=  1.5471
     atom  57 (R=0.081)  charge=  7.1717  magn=  1.5067
     atom  58 (R=0.081)  charge=  7.1626  magn=  1.5047
     atom  59 (R=0.081)  charge=  7.1439  magn=  1.5414
     atom  60 (R=0.081)  charge=  7.1463  magn=  1.5402
     atom  61 (R=0.081)  charge=  7.1428  magn=  1.5490
     atom  62 (R=0.081)  charge=  7.1465  magn=  1.5436
     atom  63 (R=0.081)  charge=  7.1678  magn=  1.5038
     atom  64 (R=0.081)  charge=  7.1643  magn=  1.5062
     atom  65 (R=0.065)  charge=  0.7503  magn=  0.0079
     atom  66 (R=0.065)  charge=  0.7286  magn=  0.0061
     atom  67 (R=0.065)  charge=  0.7478  magn=  0.0062
     atom  68 (R=0.065)  charge=  0.7366  magn=  0.0055
     atom  69 (R=0.043)  charge=  1.9339  magn=  0.0629
     atom  70 (R=0.043)  charge=  1.9306  magn=  0.0660
     atom  71 (R=0.043)  charge=  1.9273  magn=  0.0776
     atom  72 (R=0.043)  charge=  1.9275  magn=  0.0785
     atom  73 (R=0.043)  charge=  1.9425  magn=  0.0471
     atom  74 (R=0.043)  charge=  1.9332  magn=  0.0451
     atom  75 (R=0.043)  charge=  1.9339  magn=  0.0556
     atom  76 (R=0.043)  charge=  1.9351  magn=  0.0571
     atom  77 (R=0.043)  charge=  1.9322  magn=  0.0566
     atom  78 (R=0.043)  charge=  1.9549  magn=  0.0427
     atom  79 (R=0.043)  charge=  1.9332  magn=  0.0497
     atom  80 (R=0.043)  charge=  1.9323  magn=  0.0487
     atom  81 (R=0.043)  charge=  1.9454  magn=  0.0363
     atom  82 (R=0.043)  charge=  1.9322  magn=  0.0550
     atom  83 (R=0.043)  charge=  1.9515  magn=  0.0524
     atom  84 (R=0.043)  charge=  1.9319  magn=  0.0467
     atom  85 (R=0.065)  charge=  0.7481  magn=  0.0056
     atom  86 (R=0.065)  charge=  0.7369  magn=  0.0064
     atom  87 (R=0.065)  charge=  0.7467  magn=  0.0054
     atom  88 (R=0.065)  charge=  0.7268  magn=  0.0057
     atom  89 (R=0.043)  charge=  1.9289  magn=  0.0796
     atom  90 (R=0.043)  charge=  1.9261  magn=  0.0796
     atom  91 (R=0.043)  charge=  1.9296  magn=  0.0810
     atom  92 (R=0.043)  charge=  1.9273  magn=  0.0787
     atom  93 (R=0.043)  charge=  1.9353  magn=  0.0565
     atom  94 (R=0.043)  charge=  1.9297  magn=  0.0565
     atom  95 (R=0.043)  charge=  1.9345  magn=  0.0568
     atom  96 (R=0.043)  charge=  1.9350  magn=  0.0567
     atom  97 (R=0.043)  charge=  1.9325  magn=  0.0574
     atom  98 (R=0.043)  charge=  1.9527  magn=  0.0543
     atom  99 (R=0.043)  charge=  1.9421  magn=  0.0466
     atom 100 (R=0.043)  charge=  1.9329  magn=  0.0485
     atom 101 (R=0.043)  charge=  1.9338  magn=  0.0476
[...]
    -5.9518  -5.9429  -5.9226  -5.9169  -5.9016  -5.8542  -5.8201  -5.8033
    -5.7782  -5.7617  -5.7428  -5.7380  -5.7090  -5.6903  -5.6719  -5.6557
    -5.6445  -5.6119  -5.6066  -5.5938  -5.5924  -5.5718  -5.5174  -5.4848
    -5.4550  -5.4266  -5.3991  -5.3791  -5.3636  -5.3543  -5.3279  -5.2549
    -5.2245  -5.2049  -5.1897  -5.1186  -5.1084  -5.0893  -5.0373  -5.0201
    -5.0109  -4.9584  -4.9243  -4.9039  -4.8812  -4.8565  -4.8444  -4.7942
    -4.7831  -4.7419  -4.7060  -4.6806  -4.6563  -4.6292  -4.5510  -4.5345
    -4.4959  -4.4845  -4.4545  -4.4368  -4.4147  -4.3857  -4.3516  -4.3396
    -4.3161  -4.2771  -4.2196  -4.1824  -4.1389  -4.1228  -4.1083  -4.1005
    -4.0505  -4.0097  -3.9933  -3.9788  -3.9476  -3.9182  -3.9018  -3.8741
    -3.8499  -3.8460  -3.7905  -3.7874  -3.7581  -3.7233  -3.7066  -3.6933
    -3.6793  -3.6546  -3.6410  -3.6320  -3.6225  -3.6036  -3.5691  -3.5284
    -3.5083  -3.5025  -3.4849  -3.4777  -3.4698  -3.4616  -3.4327  -3.4258
    -3.4188  -3.3790  -3.3564  -3.3273  -3.3131  -3.2931  -3.2512  -3.2437
    -3.2298  -3.2012  -3.1652  -3.1649  -3.1519  -3.1318  -3.1236  -3.1100
    -3.0805  -3.0751  -3.0357  -3.0011  -2.9916  -2.9781  -2.9622  -2.9223
    -2.9040  -2.8958  -2.8837  -2.8369  -2.8271  -2.8123  -2.7908  -2.7783
    -2.7619  -2.7553  -2.7441  -2.7335  -2.7233  -2.7218  -2.7104  -2.6830
    -2.6629  -2.6452  -2.6356  -2.6276  -2.6013  -2.5858  -2.5746  -2.5502
    -2.5384  -2.5083  -2.5057  -2.4864  -2.4655  -2.4504  -2.4377  -2.4286
    -2.3951  -2.3825  -2.3711  -2.3536  -2.3263  -2.2936  -2.2830  -2.2566
    -2.2475  -2.2308  -2.2017  -2.1831  -2.1754  -2.1471  -2.1178  -2.1107
    -2.0975  -2.0718  -2.0586  -2.0450  -2.0329  -2.0152  -1.9934  -1.9649
    -1.9542  -1.9384  -1.9363  -1.9271  -1.8933  -1.8850  -1.8694  -1.8510
    -1.8262  -1.7825  -1.7769  -1.7423  -1.7331  -1.7039  -1.6884  -1.6780
    -1.6707  -1.6506  -1.6458  -1.6014  -1.5956  -1.5715  -1.5280  -1.5176
    -1.5039  -1.4956  -1.4675  -1.4434  -1.4365  -1.4185  -1.3998  -1.3877
    -1.3668  -1.3468  -1.3247  -1.2837  -1.2720  -1.2490  -1.2240  -1.2003
    -1.1560  -1.1187  -1.0731  -0.9724  -0.9549  -0.9070  -0.8693  -0.8275
    -0.8119  -0.7388  -0.6465  -0.5212  -0.3788  -0.3085  -0.3034  -0.2039
     0.1296   0.1531   0.1826   0.2204   0.2502   0.2708   0.2732   0.2966
     0.2999   0.3159   0.3364   0.3391   0.3458   0.3670   0.3694   0.3708
     0.3833   0.3863   0.3975   0.4040   0.4165   0.4256   0.4289   0.4384
     0.4437   0.4502   0.4567   0.4590   0.4681   0.4716   0.4786   0.4837
     0.5015   0.5048   0.5100   0.5136   0.5193   0.5220   0.5335   0.5396
     0.5559   0.5575   0.5652   0.5680   0.5766   0.5835   0.5970   0.6021
     0.6053   0.6125   0.6198   0.6239   0.6280   0.6426   0.6566   0.6662
     0.6694   0.6770   0.6859   0.6905   0.6928   0.7034   0.7077   0.7201
     0.7319   0.7395   0.7408   0.7451   0.7549   0.7606   0.7609   0.7679
     0.7744   0.7794   0.8107   0.8158   0.8233   0.8323   0.8451   0.8526
     0.8552   0.8710   0.8752   0.8801   0.8969   0.9005   0.9064   0.9187
     0.9241   0.9305   0.9546   0.9561   0.9895   0.9972   1.0121   1.0261
     1.1358   1.1698   1.6047   1.6927   1.6977   1.7271   1.7311   1.7480
     1.7607   1.8555   1.8809   1.8999   1.9168   1.9615   1.9667   1.9873
     2.0000   2.0208   2.0400   2.0607   2.0724   2.0743   2.0943   2.1323
     2.1564   2.1721   2.1811   2.2100   2.2177   2.2527   2.2559   2.2621
     2.2759   2.2844   2.3062   2.3157   2.3248   2.3342   2.3484   2.3557
     2.3708   2.3829   2.3924   2.3943   2.4102   2.4255   2.4445   2.4850
     2.4912   2.5078   2.5151   2.5306   2.5428   2.5470   2.5677   2.5906
     2.5986   2.6084   2.6435   2.6626   2.7006   2.7287   2.7465   2.8080
     2.8264   2.8605   2.8784   2.9238   2.9275   3.3711   3.3995   3.6071
     3.6635   3.8001   3.8626   3.9448   4.0077   4.0274   4.0914   4.6048
     4.6677   4.7755   4.8985   4.9340   4.9594   5.0526   5.4385   6.3409
     6.3648   6.5141   6.6080   6.7279   6.8130   6.8485   6.9018   6.9411
     7.0501   7.0930   7.1341   7.1535   7.3417   7.3921   7.4084   7.4396
     7.5262   7.5897   7.6217   7.7080   7.7485   7.7550   7.8207   7.8502
     7.8886   7.9481   7.9682   8.0017   8.0214   8.0540   8.0802   8.1181
     8.1430   8.1766   8.1889   8.2340   8.2536   8.2789   8.3125   8.3432
     8.3672   8.4062   8.4308   8.4880   8.4913   8.5058   8.5250   8.5408
     8.5551   8.5698   8.5933   8.6065   8.6472   8.6682   8.6769   8.6895
     8.7251   8.7424   8.8053   8.8070   8.8549   8.8706   8.9171

     the Fermi energy is     1.5823 ev

!    total energy              =   -7398.02831764 Ry
     estimated scf accuracy    <       0.00000031 Ry
     smearing contrib. (-TS)   =      -0.01554513 Ry
     internal energy E=F+TS    =   -7398.01277252 Ry

     The total energy is F=E-TS. E is the sum of the following terms:
     one-electron contribution =  -91618.17992116 Ry
     hartree contribution      =   46457.41535799 Ry
     xc contribution           =   -2260.28422244 Ry
     ewald contribution        =   40024.86817509 Ry
     Dispersion Correction     =      -1.83220782 Ry
     electric field correction =       0.00004583 Ry

     total magnetization       =    80.29 Bohr mag/cell
     absolute magnetization    =    81.82 Bohr mag/cell

     convergence has been achieved in  53 iterations

     negative rho (up, down):  9.302E-04 5.485E-04

     Forces acting on atoms (cartesian axes, Ry/au):

     atom    1 type  2   force =     0.00033747   -0.00036682   -0.00027997
     atom    2 type  1   force =    -0.00033384    0.00005083   -0.00002694
     atom    3 type  1   force =    -0.00003070   -0.00054187   -0.00058022
     atom    4 type  1   force =    -0.00019343    0.00054184    0.00019235
     atom    5 type  1   force =    -0.00005450    0.00027147   -0.00005561
     atom    6 type  1   force =    -0.00009506   -0.00005335   -0.00010584
     atom    7 type  1   force =    -0.00175001    0.00163263    0.00159468
     atom    8 type  1   force =    -0.00000941   -0.00051305    0.00030839
     atom    9 type  1   force =    -0.00033298    0.00075773   -0.00045355
     atom   10 type  1   force =    -0.00008568    0.00011220   -0.00033169
     atom   11 type  1   force =    -0.00032260   -0.00058619   -0.00006880
     atom   12 type  1   force =     0.00042962    0.00033942   -0.00059432
     atom   13 type  3   force =    -0.00005514    0.00017270    0.00003718
     atom   14 type  3   force =    -0.00029678    0.00016841    0.00015856
     atom   15 type  3   force =     0.00016487   -0.00005582    0.00001211
     atom   16 type  3   force =     0.00074935    0.00010592    0.00001891
     atom   17 type  4   force =     0.00006202   -0.00025293   -0.00004001
     atom   18 type  4   force =     0.00020183    0.00007748   -0.00047039
     atom   19 type  4   force =    -0.00026082    0.00029188    0.00032210
     atom   20 type  4   force =    -0.00018103    0.00012143    0.00025182
     atom   21 type  4   force =    -0.00003249    0.00035619   -0.00002682
     atom   22 type  4   force =    -0.00045086   -0.00061608   -0.00058172
     atom   23 type  4   force =     0.00000927    0.00068615   -0.00027104
     atom   24 type  4   force =     0.00034717    0.00012442    0.00028632
     atom   25 type  4   force =     0.00010521   -0.00027055   -0.00005158
     atom   26 type  4   force =    -0.00030386    0.00014039   -0.00003849
     atom   27 type  4   force =     0.00037746   -0.00006014   -0.00014220
     atom   28 type  4   force =    -0.00014910    0.00016221    0.00014297
     atom   29 type  4   force =    -0.00009418   -0.00019128    0.00024488
     atom   30 type  4   force =    -0.00015368   -0.00038962   -0.00042735
     atom   31 type  4   force =    -0.00003239    0.00015197   -0.00017623
     atom   32 type  4   force =    -0.00015702    0.00038574    0.00013748
     atom   33 type  3   force =    -0.00011357    0.00000929   -0.00015274
     atom   34 type  3   force =     0.00030844    0.00002545   -0.00026045
     atom   35 type  3   force =     0.00013984    0.00005658   -0.00030807
     atom   36 type  3   force =    -0.00062177    0.00008783    0.00011907
     atom   37 type  4   force =     0.00008472   -0.00004762   -0.00003591
     atom   38 type  4   force =     0.00004984    0.00048667   -0.00007107
     atom   39 type  4   force =    -0.00015758   -0.00000375    0.00095696
     atom   40 type  4   force =     0.00033830    0.00003014   -0.00018146
     atom   41 type  4   force =    -0.00030338   -0.00001210   -0.00014203
     atom   42 type  4   force =    -0.00049540   -0.00020700   -0.00044193
     atom   43 type  4   force =    -0.00038404   -0.00018842   -0.00019912
     atom   44 type  4   force =     0.00013725    0.00015960   -0.00031749
     atom   45 type  4   force =     0.00014899   -0.00005718   -0.00035484
     atom   46 type  4   force =    -0.00020042   -0.00071975   -0.00013483
     atom   47 type  4   force =    -0.00009694    0.00015917   -0.00004750
     atom   48 type  4   force =     0.00042528    0.00033548   -0.00000343
     atom   49 type  4   force =     0.00001711    0.00031574    0.00005791
     atom   50 type  4   force =     0.00025264   -0.00027109   -0.00001039
     atom   51 type  4   force =     0.00002053    0.00001514    0.00012877
     atom   52 type  4   force =    -0.00010018   -0.00001250   -0.00008795
     atom   53 type  2   force =     0.00241334   -0.00389901    0.00625026
     atom   54 type  1   force =     0.00502072   -0.00225162    0.00398378
     atom   55 type  1   force =     0.00756193   -0.00381406    0.00233263
     atom   56 type  1   force =    -0.00195711    0.01031086    0.00613264
     atom   57 type  1   force =    -0.00008024    0.02312166    0.01500508
     atom   58 type  1   force =     0.00206681   -0.00326168   -0.00145037
     atom   59 type  1   force =     0.00047942   -0.00722461    0.00429763
     atom   60 type  1   force =    -0.00519459   -0.00200826    0.00490064
     atom   61 type  1   force =    -0.00187988   -0.00150884    0.00359407
     atom   62 type  1   force =    -0.00430260    0.00829205    0.00615219
     atom   63 type  1   force =    -0.01108483    0.02592352    0.01875323
     atom   64 type  1   force =    -0.00195832    0.00117265    0.00155889
     atom   65 type  3   force =     0.04623788   -0.11372135   -0.01067111
     atom   66 type  3   force =    -0.00035428   -0.00161410    0.00364830
     atom   67 type  3   force =    -0.03980932    0.12606278    0.01451695
     atom   68 type  3   force =     0.06271903   -0.00164639   -0.00319315
     atom   69 type  4   force =     0.01392825   -0.01842403    0.00389764
     atom   70 type  4   force =    -0.00105861    0.00283664   -0.00130348
     atom   71 type  4   force =    -0.00153719    0.00335642   -0.00551783
     atom   72 type  4   force =     0.00405628    0.00186437   -0.00080105
     atom   73 type  4   force =     0.00095782   -0.01154298    0.00264230
     atom   74 type  4   force =     0.00117905   -0.00018362   -0.00069892
     atom   75 type  4   force =     0.00061847    0.01358580    0.00512795
     atom   76 type  4   force =     0.00834505    0.00520195    0.00914214
     atom   77 type  4   force =     0.00709980   -0.00263517    0.00154430
     atom   78 type  4   force =     0.04437416   -0.14248962   -0.00536723
     atom   79 type  4   force =     0.00177622    0.00191703    0.00140969
     atom   80 type  4   force =     0.00025888    0.00229355   -0.00164433
     atom   81 type  4   force =     0.06789124    0.00090318   -0.00658020
     atom   82 type  4   force =     0.00033216    0.00086748   -0.00115008
     atom   83 type  4   force =    -0.03915571    0.13482071    0.00264990
     atom   84 type  4   force =    -0.00297770   -0.01100023   -0.00410612
     atom   85 type  3   force =     0.04005547   -0.12015084   -0.01807893
     atom   86 type  3   force =    -0.06379752   -0.00050136    0.00772337
     atom   87 type  3   force =    -0.04507054    0.12374620    0.01946115
     atom   88 type  3   force =    -0.00165545    0.00016855    0.00272619
     atom   89 type  4   force =     0.00900452   -0.01534130    0.00401527
     atom   90 type  4   force =    -0.00465151    0.00117920   -0.00003593
     atom   91 type  4   force =    -0.00884070    0.00840280   -0.00644678
     atom   92 type  4   force =     0.00001886    0.00016194   -0.00068183
     atom   93 type  4   force =    -0.00174255   -0.00836439    0.00730840
     atom   94 type  4   force =    -0.00407111    0.00093551   -0.00074542
     atom   95 type  4   force =    -0.00522898    0.01349168    0.00745700
     atom   96 type  4   force =     0.00414627    0.00514965    0.00953661
     atom   97 type  4   force =    -0.00002166    0.00034456    0.00064691
     atom   98 type  4   force =     0.04034779   -0.14104054   -0.00540411
     atom   99 type  4   force =    -0.06667201    0.00001263    0.00632974
     atom  100 type  4   force =    -0.00204615    0.00353872   -0.00253073
     atom  101 type  4   force =     0.00002351    0.00079825   -0.00086916
     atom  102 type  4   force =    -0.00614330    0.00437314   -0.00137118
     atom  103 type  4   force =    -0.04031568    0.13347659    0.00427828
     atom  104 type  4   force =    -0.00699077   -0.00989203   -0.00527541
     atom  105 type  2   force =     0.00412180   -0.00655213   -0.01808389
     atom  106 type  1   force =     0.02818480    0.01428315    0.01165558
     atom  107 type  1   force =     0.00871564   -0.00612898   -0.01404541
     atom  108 type  1   force =    -0.02840645    0.02167860    0.01869172
     atom  109 type  1   force =     0.00506261    0.01612299    0.00937068
     atom  110 type  1   force =    -0.00254706   -0.00879087   -0.00686520
     atom  111 type  1   force =    -0.00084268   -0.00949906   -0.01152697
     atom  112 type  1   force =     0.02917406    0.01751996    0.01134613
     atom  113 type  1   force =    -0.00070437   -0.00499476   -0.01387984
     atom  114 type  1   force =    -0.02965806    0.02073937    0.01851242
     atom  115 type  1   force =    -0.00719806    0.01854438    0.01209271
     atom  116 type  1   force =    -0.00553856   -0.00432152   -0.00300466
     atom  117 type  3   force =     0.01426853   -0.17388773   -0.10881937
     atom  118 type  3   force =     0.00517293   -0.00849959   -0.01247678
     atom  119 type  3   force =    -0.04466897    0.12498814   -0.00175463
     atom  120 type  3   force =     0.09507142   -0.04105635   -0.07972055
     atom  121 type  4   force =     0.00611583   -0.01710544    0.03717990
     atom  122 type  4   force =    -0.00351696    0.00373968    0.00440525
     atom  123 type  4   force =    -0.00086554    0.00255774   -0.00291832
     atom  124 type  4   force =     0.00850608    0.00218281    0.02690043
     atom  125 type  4   force =     0.00988000   -0.01689310    0.01599953
     atom  126 type  4   force =    -0.00755849    0.00100048   -0.00319835
     atom  127 type  4   force =     0.00398608    0.00966288    0.00037791
     atom  128 type  4   force =    -0.00061229   -0.00108242    0.03020384
     atom  129 type  4   force =    -0.00769052    0.02549263    0.00118192
     atom  130 type  4   force =     0.04342306   -0.14600313   -0.00196227
     atom  131 type  4   force =    -0.01738613   -0.00040067    0.00284861
     atom  132 type  4   force =     0.00338246    0.00264553    0.00195328
     atom  133 type  4   force =     0.06977109    0.00368777   -0.00196077
     atom  134 type  4   force =     0.00093400    0.00364765    0.00266808
     atom  135 type  4   force =    -0.02752679    0.17220241    0.00605877
     atom  136 type  4   force =     0.01954059   -0.00863417    0.00400250
     atom  137 type  3   force =     0.00909907   -0.16687151   -0.09423847
     atom  138 type  3   force =    -0.06470499   -0.00205821   -0.00480124
     atom  139 type  3   force =    -0.04871990    0.11825947    0.00166729
     atom  140 type  3   force =     0.03145138   -0.04325643   -0.07368632
     atom  141 type  4   force =     0.00465129   -0.01330321    0.03204082
     atom  142 type  4   force =    -0.00541847   -0.00034290    0.00423751
     atom  143 type  4   force =    -0.00817832    0.00809662   -0.00357902
     atom  144 type  4   force =     0.00383798    0.00139062    0.02752112
     atom  145 type  4   force =     0.00690165   -0.01300182    0.03237755
     atom  146 type  4   force =    -0.00874273   -0.00179319   -0.00313051
     atom  147 type  4   force =     0.00033117    0.00988263    0.00257003
     atom  148 type  4   force =    -0.00792317    0.00123153    0.02909146
     atom  149 type  4   force =    -0.01318770    0.02942008    0.00049986
     atom  150 type  4   force =     0.03982400   -0.13833767   -0.00145553
     atom  151 type  4   force =    -0.08612668   -0.00172333    0.00914314
     atom  152 type  4   force =     0.00118223    0.00388678    0.00138034
     atom  153 type  4   force =    -0.00351544    0.00083727    0.00291879
     atom  154 type  4   force =    -0.00590029    0.00598821    0.00126033
     atom  155 type  4   force =    -0.02796855    0.16641626    0.00483345
     atom  156 type  4   force =     0.01053197   -0.00974539   -0.00138406
     atom  157 type  4   force =     0.01309769    0.00784521   -0.00653346
     atom  158 type  5   force =    -0.01028523   -0.00837631    0.00343647

     Total force =     0.671469     Total SCF correction =     0.002712
 
     init_run     :      8.38s CPU      9.17s WALL (       1 calls)
     electrons    :    821.40s CPU    870.89s WALL (       1 calls)
     forces       :      4.14s CPU      4.66s WALL (       1 calls)
     force_london :      0.11s CPU      0.11s WALL (       1 calls)

     Called by init_run:
     wfcinit      :      5.01s CPU      5.21s WALL (       1 calls)
     potinit      :      0.61s CPU      0.80s WALL (       1 calls)
     hinit0       :      1.28s CPU      1.38s WALL (       1 calls)

     Called by electrons:
     c_bands      :    665.03s CPU    693.92s WALL (      53 calls)
     sum_band     :    100.97s CPU    111.86s WALL (      53 calls)
     v_of_rho     :     11.66s CPU     12.55s WALL (      54 calls)
     newd         :     29.17s CPU     38.17s WALL (      54 calls)
     mix_rho      :     14.35s CPU     14.45s WALL (      53 calls)
     energy_londo :      0.10s CPU      0.10s WALL (       1 calls)

     Called by c_bands:
     init_us_2    :      2.16s CPU      2.19s WALL (     216 calls)
     init_us_2:cp :      2.16s CPU      2.19s WALL (     216 calls)
     regterg      :    651.30s CPU    673.22s WALL (     108 calls)

     Called by *egterg:
     rdiaghg      :    221.41s CPU    231.43s WALL (     468 calls)
     h_psi        :    240.26s CPU    245.66s WALL (     470 calls)
     s_psi        :     48.58s CPU     48.65s WALL (     470 calls)
     g_psi        :      0.34s CPU      0.35s WALL (     360 calls)

     Called by h_psi:
     h_psi:calbec :     60.74s CPU     65.25s WALL (     470 calls)
     vloc_psi     :    129.40s CPU    130.14s WALL (     470 calls)
     add_vuspsi   :     49.46s CPU     49.60s WALL (     470 calls)

     General routines
     calbec       :     89.17s CPU     95.77s WALL (     584 calls)
     fft          :     10.45s CPU     11.55s WALL (     985 calls)
     ffts         :      7.95s CPU      7.97s WALL (    5665 calls)
     fftw         :    140.88s CPU    141.62s WALL (  183376 calls)
     interpolate  :      0.94s CPU      1.01s WALL (     108 calls)
 
     Parallel routines
 
     PWSCF        :  13m56.05s CPU  14m47.23s WALL

 
   This run was terminated on:   0:27:49  20Nov2025            

=------------------------------------------------------------------------------=
   JOB DONE.
=------------------------------------------------------------------------------=
