
     Program PWSCF v.7.2 starts on 20Nov2025 at  2:57:33 

     This program is part of the open-source Quantum ESPRESSO suite
     for quantum simulation of materials; please cite
         "P. Giannozzi et al., J. Phys.:Condens. Matter 21 395502 (2009);
         "P. Giannozzi et al., J. Phys.:Condens. Matter 29 465901 (2017);
         "P. Giannozzi et al., J. Chem. Phys. 152 154105 (2020);
          URL http://www.quantum-espresso.org", 
     in publications or presentations arising from this work. More details at
     http://www.quantum-espresso.org/quote

     Parallel version (MPI), running on    64 processors

     MPI processes distributed on     4 nodes
     386401 MiB available memory on the printing compute node when the environment starts
 
     Reading input from PWINPUT_atm158_zp

     Current dimensions of program PWSCF are:
     Max number of different atomic species (ntypx) = 10
     Max number of k-points (npk) =  40000
     Max angular momentum in pseudopotentials (lmaxx) =  4
     Presently no symmetry can be used with electric field

     file Ni.pbe-n-rrkjus_psl.1.0.0.UPF: wavefunction(s)  3D renormalized
     file Mn.pbe-spn-rrkjus_psl.0.3.1.UPF: wavefunction(s)  3D renormalized
     file O.pbe-rrkjus.UPF: wavefunction(s)  2S renormalized
     file H.pbe-rrkjus.UPF: wavefunction(s)  1S renormalized

     gamma-point specific algorithms are used
 
     R & G space division:  proc/nbgrp/npool/nimage =      64
     Subspace diagonalization in iterative solution of the eigenvalue problem:
     one sub-group per band group will be used
     custom distributed-memory algorithm (size of sub-group:  6*  6 procs)

 
     Parallelization info
     --------------------
     sticks:   dense  smooth     PW     G-vecs:    dense   smooth      PW
     Min         208      82     20                59912    15118    1876
     Max         210      84     22                59974    15196    1926
     Sum       13399    5355   1345              3836275   970529  121367
 
     Using Slab Decomposition
 


     bravais-lattice index     =            0
     lattice parameter (alat)  =      17.7004  a.u.
     unit-cell volume          =   20319.7251 (a.u.)^3
     number of atoms/cell      =          158
     number of atomic types    =            5
     number of electrons       =      1078.00
     number of Kohn-Sham states=          647
     kinetic-energy cutoff     =      50.0000  Ry
     charge density cutoff     =     500.0000  Ry
     scf convergence threshold =      1.0E-06
     mixing beta               =       0.5000
     number of iterations used =            8  local-TF  mixing
     Exchange-correlation=  SLA  PW   PBE  PBE
                           (   1   4   3   4   0   0   0)

     celldm(1)=  17.700384  celldm(2)=   0.000000  celldm(3)=   0.000000
     celldm(4)=   0.000000  celldm(5)=   0.000000  celldm(6)=   0.000000

     crystal axes: (cart. coord. in units of alat)
               a(1) = (   1.000000   0.000000   0.000000 )  
               a(2) = (   0.000000   1.075730   0.000000 )  
               a(3) = (   0.000000   0.000000   3.406172 )  

     reciprocal axes: (cart. coord. in units 2 pi/alat)
               b(1) = (  1.000000  0.000000  0.000000 )  
               b(2) = (  0.000000  0.929602  0.000000 )  
               b(3) = (  0.000000  0.000000  0.293585 )  


     PseudoPot. # 1 for Ni read from file:
     ~/PSEUDO/Ni.pbe-n-rrkjus_psl.1.0.0.UPF
     MD5 check sum: Not computed, couldn't open file
     Pseudo is Ultrasoft + core correction, Zval = 10.0
     Generated using "atomic" code by A. Dal Corso  v.5.1.2
     Using radial grid of 1195 points,  6 beta functions with: 
                l(1) =   0
                l(2) =   0
                l(3) =   1
                l(4) =   1
                l(5) =   2
                l(6) =   2
     Q(r) pseudized with 0 coefficients 


     PseudoPot. # 2 for Mn read from file:
     ~/PSEUDO/Mn.pbe-spn-rrkjus_psl.0.3.1.UPF
     MD5 check sum: Not computed, couldn't open file
     Pseudo is Ultrasoft + core correction, Zval = 15.0
     Generated using &quot;atomic&quot; code by A. Dal Corso  v.6.2.2
     Using radial grid of 1187 points,  6 beta functions with: 
                l(1) =   0
                l(2) =   0
                l(3) =   1
                l(4) =   1
                l(5) =   2
                l(6) =   2
     Q(r) pseudized with 0 coefficients 


     PseudoPot. # 3 for P  read from file:
     ~/PSEUDO/P.pbe-n-rrkjus_psl.1.0.0.UPF
     MD5 check sum: Not computed, couldn't open file
     Pseudo is Ultrasoft + core correction, Zval =  5.0
     Generated using "atomic" code by A. Dal Corso  v.5.1
     Using radial grid of 1147 points,  6 beta functions with: 
                l(1) =   0
                l(2) =   0
                l(3) =   1
                l(4) =   1
                l(5) =   2
                l(6) =   2
     Q(r) pseudized with 0 coefficients 


     PseudoPot. # 4 for O  read from file:
     ~/PSEUDO/O.pbe-rrkjus.UPF
     MD5 check sum: Not computed, couldn't open file
     Pseudo is Ultrasoft, Zval =  6.0
     Generated by new atomic code, or converted to UPF format
     Using radial grid of 1269 points,  4 beta functions with: 
                l(1) =   0
                l(2) =   0
                l(3) =   1
                l(4) =   1
     Q(r) pseudized with 0 coefficients 


     PseudoPot. # 5 for H  read from file:
     ~/PSEUDO/H.pbe-rrkjus.UPF
     MD5 check sum: Not computed, couldn't open file
     Pseudo is Ultrasoft, Zval =  1.0
     Generated by new atomic code, or converted to UPF format
     Using radial grid of 1061 points,  2 beta functions with: 
                l(1) =   0
                l(2) =   0
     Q(r) pseudized with 0 coefficients 


     atomic species   valence    mass     pseudopotential
     Ni               10.00    58.69300     Ni( 1.00)
     Mn               15.00    54.93800     Mn( 1.00)
     P                 5.00    30.97300     P ( 1.00)
     O                 6.00    15.99900     O ( 1.00)
     H                 1.00     1.00790     H ( 1.00)

     Starting magnetic structure 
     atomic species   magnetization
     Ni              1.000
     Mn              1.000
     P               1.000
     O               1.000
     H               0.000

     No symmetry found



   Cartesian axes

     site n.     atom                  positions (alat units)
         1        Mn     tau(   1) = (   0.2487148   0.8375267   1.6951957  )
         2        Ni     tau(   2) = (   0.4985680   0.7741854   1.3708613  )
         3        Ni     tau(   3) = (  -0.0011545   0.3006174   1.6748188  )
         4        Ni     tau(   4) = (   0.2613034   0.2387656   1.3682654  )
         5        Ni     tau(   5) = (   0.9963341   1.0779630   1.5338071  )
         6        Ni     tau(   6) = (   0.2553410   0.5376272   1.5302552  )
         7        Ni     tau(   7) = (   0.7421076   0.8435707   1.7073254  )
         8        Ni     tau(   8) = (   0.9925505   0.7752294   1.3710528  )
         9        Ni     tau(   9) = (   0.5021333   0.2954136   1.6750756  )
        10        Ni     tau(  10) = (   0.7611689   0.2373559   1.3675061  )
        11        Ni     tau(  11) = (   0.5009702   1.0742604   1.5366496  )
        12        Ni     tau(  12) = (   0.7544547   0.5384375   1.5322894  )
        13        P      tau(  13) = (   0.2115511   0.9728651   1.3803029  )
        14        P      tau(  14) = (   0.4665848   0.6401311   1.6901980  )
        15        P      tau(  15) = (   0.2857882   0.1150193   1.6956783  )
        16        P      tau(  16) = (   0.0437806   0.4336934   1.3698950  )
        17        O      tau(  17) = (   0.1341895   0.9017796   1.5160649  )
        18        O      tau(  18) = (   0.3918354   0.7064542   1.5480543  )
        19        O      tau(  19) = (   0.3659047   0.1699051   1.5489901  )
        20        O      tau(  20) = (   0.1220478   0.3634760   1.5065536  )
        21        O      tau(  21) = (   0.1491769   0.8830546   1.2562069  )
        22        O      tau(  22) = (   0.4014483   0.7325987   1.8096174  )
        23        O      tau(  23) = (   0.3477141   0.2121598   1.8095684  )
        24        O      tau(  24) = (   0.1043448   0.3449385   1.2442231  )
        25        O      tau(  25) = (   0.1038610   0.5888479   1.3734716  )
        26        O      tau(  26) = (   0.3384087   1.0313531   1.6992469  )
        27        O      tau(  27) = (   0.3808703   0.4260931   1.3818057  )
        28        O      tau(  28) = (   0.1211112   0.1186251   1.6801879  )
        29        O      tau(  29) = (   0.1290557   0.6512937   1.6784404  )
        30        O      tau(  30) = (   0.4077914   0.4842311   1.6878311  )
        31        O      tau(  31) = (   0.1525182   0.0517135   1.3798448  )
        32        O      tau(  32) = (   0.3752655   0.9631458   1.3897289  )
        33        P      tau(  33) = (   0.7115935   0.9699435   1.3754512  )
        34        P      tau(  34) = (   0.9627941   0.6488001   1.6882550  )
        35        P      tau(  35) = (   0.7877941   0.1135143   1.6933997  )
        36        P      tau(  36) = (   0.5450057   0.4319961   1.3698026  )
        37        O      tau(  37) = (   0.6347424   0.8975550   1.5107968  )
        38        O      tau(  38) = (   0.8874360   0.7086109   1.5448689  )
        39        O      tau(  39) = (   0.8663690   0.1747348   1.5464995  )
        40        O      tau(  40) = (   0.6223636   0.3611942   1.5061123  )
        41        O      tau(  41) = (   0.6513775   0.8826145   1.2479475  )
        42        O      tau(  42) = (   0.9079471   0.7471932   1.8059270  )
        43        O      tau(  43) = (   0.8460393   0.2141480   1.8067812  )
        44        O      tau(  44) = (   0.6057326   0.3434800   1.2439494  )
        45        O      tau(  45) = (   0.6051788   0.5869386   1.3743458  )
        46        O      tau(  46) = (   0.8485507   1.0338148   1.6901252  )
        47        O      tau(  47) = (   0.8800306   0.4271144   1.3821281  )
        48        O      tau(  48) = (   0.6230808   0.1160198   1.6767091  )
        49        O      tau(  49) = (   0.6309458   0.6452848   1.6833570  )
        50        O      tau(  50) = (   0.9073287   0.4911282   1.6902526  )
        51        O      tau(  51) = (   0.6516592   0.0493454   1.3784195  )
        52        O      tau(  52) = (   0.8758524   0.9648084   1.3850114  )
        53        Mn     tau(  53) = (   0.2404744   0.8246335   1.0701417  )
        54        Ni     tau(  54) = (   0.4968126   0.7601755   0.7454373  )
        55        Ni     tau(  55) = (   0.0066150   0.2811828   1.0628866  )
        56        Ni     tau(  56) = (   0.2585722   0.2230943   0.7421070  )
        57        Ni     tau(  57) = (   0.9987350   1.0571496   0.9014992  )
        58        Ni     tau(  58) = (   0.2517397   0.5205596   0.9040596  )
        59        Ni     tau(  59) = (   0.7451645   0.8212628   1.0648168  )
        60        Ni     tau(  60) = (   0.9939181   0.7613889   0.7462324  )
        61        Ni     tau(  61) = (   0.5111533   0.2799173   1.0618053  )
        62        Ni     tau(  62) = (   0.7606326   0.2194352   0.7418547  )
        63        Ni     tau(  63) = (   0.5024065   1.0563218   0.8999416  )
        64        Ni     tau(  64) = (   0.7529977   0.5192985   0.9024691  )
        65        P      tau(  65) = (   0.2092944   0.9606182   0.7524883  )
        66        P      tau(  66) = (   0.4655727   0.6234620   1.0595283  )
        67        P      tau(  67) = (   0.2910699   0.0902448   1.0573821  )
        68        P      tau(  68) = (   0.0396216   0.4163480   0.7471080  )
        69        O      tau(  69) = (   0.1294378   0.8888345   0.8859300  )
        70        O      tau(  70) = (   0.3874505   0.6929859   0.9232915  )
        71        O      tau(  71) = (   0.3702540   0.1589885   0.9209891  )
        72        O      tau(  72) = (   0.1184398   0.3458043   0.8831565  )
        73        O      tau(  73) = (   0.1451572   0.8725966   0.6282341  )
        74        O      tau(  74) = (   0.4048762   0.7120670   1.1852426  )
        75        O      tau(  75) = (   0.3523506   0.1775664   1.1834175  )
        76        O      tau(  76) = (   0.1017610   0.3285569   0.6213347  )
        77        O      tau(  77) = (   0.0975396   0.5724373   0.7511996  )
        78        O      tau(  78) = (   0.3483552   1.0190030   1.0599597  )
        79        O      tau(  79) = (   0.3784305   0.4100203   0.7560991  )
        80        O      tau(  80) = (   0.1268237   0.0943029   1.0477175  )
        81        O      tau(  81) = (   0.1212267   0.6299255   1.0507023  )
        82        O      tau(  82) = (   0.4053315   0.4684472   1.0569297  )
        83        O      tau(  83) = (   0.1536621   0.0322003   0.7496532  )
        84        O      tau(  84) = (   0.3732349   0.9506802   0.7613277  )
        85        P      tau(  85) = (   0.7119823   0.9571059   0.7496908  )
        86        P      tau(  86) = (   0.9615208   0.6238477   1.0606987  )
        87        P      tau(  87) = (   0.7927710   0.0845145   1.0577754  )
        88        P      tau(  88) = (   0.5426404   0.4144760   0.7459181  )
        89        O      tau(  89) = (   0.6326879   0.8866267   0.8856678  )
        90        O      tau(  90) = (   0.8842163   0.6958291   0.9244764  )
        91        O      tau(  91) = (   0.8716178   0.1552836   0.9216415  )
        92        O      tau(  92) = (   0.6212010   0.3433751   0.8818834  )
        93        O      tau(  93) = (   0.6507714   0.8687427   0.6238197  )
        94        O      tau(  94) = (   0.9014054   0.7139543   1.1859242  )
        95        O      tau(  95) = (   0.8548963   0.1722994   1.1834447  )
        96        O      tau(  96) = (   0.6044469   0.3253792   0.6209553  )
        97        O      tau(  97) = (   0.6024424   0.5698225   0.7490903  )
        98        O      tau(  98) = (   0.8498940   1.0129567   1.0594762  )
        99        O      tau(  99) = (   0.8798395   0.4080910   0.7564148  )
       100        O      tau( 100) = (   0.6286921   0.0909721   1.0472573  )
       101        O      tau( 101) = (   0.6294973   0.6302838   1.0497366  )
       102        O      tau( 102) = (   0.9024339   0.4685397   1.0573501  )
       103        O      tau( 103) = (   0.6547812   0.0286072   0.7473283  )
       104        O      tau( 104) = (   0.8760507   0.9507690   0.7605412  )
       105        Mn     tau( 105) = (   0.2404744   0.8121420   0.4502541  )
       106        Ni     tau( 106) = (   0.4968126   0.7476840   0.1255496  )
       107        Ni     tau( 107) = (   0.0066150   0.2686914   0.4429989  )
       108        Ni     tau( 108) = (   0.2585722   0.2106028   0.1222194  )
       109        Ni     tau( 109) = (   0.9987350   1.0446581   0.2816116  )
       110        Ni     tau( 110) = (   0.2517397   0.5080681   0.2841720  )
       111        Ni     tau( 111) = (   0.7451645   0.8087713   0.4449291  )
       112        Ni     tau( 112) = (   0.9939181   0.7488974   0.1263448  )
       113        Ni     tau( 113) = (   0.5111533   0.2674258   0.4419177  )
       114        Ni     tau( 114) = (   0.7606326   0.2069438   0.1219670  )
       115        Ni     tau( 115) = (   0.5024065   1.0438304   0.2800540  )
       116        Ni     tau( 116) = (   0.7529977   0.5068070   0.2825815  )
       117        P      tau( 117) = (   0.2092944   0.9481267   0.1326007  )
       118        P      tau( 118) = (   0.4655727   0.6109705   0.4396407  )
       119        P      tau( 119) = (   0.2910699   0.0777534   0.4374945  )
       120        P      tau( 120) = (   0.0396216   0.4038566   0.1272204  )
       121        O      tau( 121) = (   0.1294378   0.8763430   0.2660424  )
       122        O      tau( 122) = (   0.3874505   0.6804944   0.3034039  )
       123        O      tau( 123) = (   0.3702540   0.1464970   0.3011014  )
       124        O      tau( 124) = (   0.1184398   0.3333129   0.2632689  )
       125        O      tau( 125) = (   0.1451572   0.8601051   0.0083464  )
       126        O      tau( 126) = (   0.4048762   0.6995756   0.5653550  )
       127        O      tau( 127) = (   0.3523506   0.1650749   0.5635298  )
       128        O      tau( 128) = (   0.1017610   0.3160655   0.0014470  )
       129        O      tau( 129) = (   0.0975396   0.5599458   0.1313120  )
       130        O      tau( 130) = (   0.3483552   1.0065115   0.4400720  )
       131        O      tau( 131) = (   0.3784305   0.3975288   0.1362114  )
       132        O      tau( 132) = (   0.1268237   0.0818115   0.4278298  )
       133        O      tau( 133) = (   0.1212267   0.6174340   0.4308146  )
       134        O      tau( 134) = (   0.4053315   0.4559557   0.4370420  )
       135        O      tau( 135) = (   0.1536621   0.0197088   0.1297656  )
       136        O      tau( 136) = (   0.3732349   0.9381887   0.1414400  )
       137        P      tau( 137) = (   0.7119823   0.9446144   0.1298032  )
       138        P      tau( 138) = (   0.9615208   0.6113562   0.4408111  )
       139        P      tau( 139) = (   0.7927710   0.0720230   0.4378878  )
       140        P      tau( 140) = (   0.5426404   0.4019845   0.1260304  )
       141        O      tau( 141) = (   0.6326879   0.8741353   0.2657802  )
       142        O      tau( 142) = (   0.8842163   0.6833376   0.3045887  )
       143        O      tau( 143) = (   0.8716178   0.1427921   0.3017538  )
       144        O      tau( 144) = (   0.6212010   0.3308836   0.2619957  )
       145        O      tau( 145) = (   0.6507714   0.8562512   0.0039320  )
       146        O      tau( 146) = (   0.9014054   0.7014628   0.5660366  )
       147        O      tau( 147) = (   0.8548963   0.1598079   0.5635571  )
       148        O      tau( 148) = (   0.6044469   0.3128877   0.0010676  )
       149        O      tau( 149) = (   0.6024424   0.5573310   0.1292027  )
       150        O      tau( 150) = (   0.8498940   1.0004653   0.4395886  )
       151        O      tau( 151) = (   0.8798395   0.3955995   0.1365272  )
       152        O      tau( 152) = (   0.6286921   0.0784807   0.4273696  )
       153        O      tau( 153) = (   0.6294973   0.6177923   0.4298489  )
       154        O      tau( 154) = (   0.9024339   0.4560482   0.4374624  )
       155        O      tau( 155) = (   0.6547812   0.0161158   0.1274406  )
       156        O      tau( 156) = (   0.8760507   0.9382775   0.1406535  )
       157        O      tau( 157) = (   0.6290941   0.9242713   1.8436369  )
       158        H      tau( 158) = (   0.5523937   0.8599107   1.8772414  )

     -------------------------------------------------
     Parameters for Dispersion (Grimme-D2) Correction:
     -------------------------------------------------
       atom      VdW radius       C_6     

        Ni         2.952        374.666
        Mn         2.952        374.666
        P          3.222        271.980
        O          2.536         24.284
        H          1.892          4.857

     number of k points=     1  Gaussian smearing, width (Ry)=  0.0100
                       cart. coord. in units 2pi/alat
        k(    1) = (   0.0000000   0.0000000   0.0000000), wk =   1.0000000

     Dense  grid:  1918138 G-vectors     FFT dimensions: ( 125, 135, 432)

     Smooth grid:   485265 G-vectors     FFT dimensions: (  80,  90, 288)

     Estimated max dynamical RAM per process >     320.12 MB

     Estimated total dynamical RAM >      20.01 GB
     Generating pointlists ...
     new r_m :   0.0803 (alat units)  1.4208 (a.u.) for type    1
     new r_m :   0.0869 (alat units)  1.5388 (a.u.) for type    2
     new r_m :   0.0650 (alat units)  1.1499 (a.u.) for type    3
     new r_m :   0.0436 (alat units)  0.7711 (a.u.) for type    4
     new r_m :   0.0436 (alat units)  0.7711 (a.u.) for type    5

     Initial potential from superposition of free atoms

     starting charge    1077.8900, renormalised to    1078.0000

     negative rho (up, down):  1.226E-03 4.512E-04
 
     Adding external electric field

     Computed dipole along edir(3) : 
        Dipole                1.6397 Ry au,          4.1676 Debye
        Dipole field          0.0010 Ry au, 
 
        Potential amp.       -0.1100 Ry
        Total length         54.2615 bohr
 
 
     Adding external electric field

     Computed dipole along edir(3) : 
        Dipole                1.6397 Ry au,          4.1676 Debye
        Dipole field          0.0010 Ry au, 
 
        Potential amp.       -0.1100 Ry
        Total length         54.2615 bohr
 
     Starting wfcs are  812 randomized atomic wfcs

     total cpu time spent up to now is       10.3 secs

     Self-consistent Calculation

     iteration #  1     ecut=    50.00 Ry     beta= 0.50
     Davidson diagonalization with overlap
     ethr =  1.00E-02,  avg # of iterations =  6.0

     negative rho (up, down):  2.308E+00 1.489E-06
 
     Adding external electric field

     Computed dipole along edir(3) : 
        Dipole              -24.4310 Ry au,        -62.0974 Debye
        Dipole field         -0.0151 Ry au, 
 
        Potential amp.        1.6397 Ry
        Total length         54.2615 bohr
 
 
     Adding external electric field

     Computed dipole along edir(3) : 
        Dipole              -24.4310 Ry au,        -62.0974 Debye
        Dipole field         -0.0151 Ry au, 
 
        Potential amp.        1.6397 Ry
        Total length         54.2615 bohr
 

     total cpu time spent up to now is       37.9 secs

     total energy              =   -7195.62530050 Ry
     estimated scf accuracy    <     731.70943776 Ry

     total magnetization       =   216.00 Bohr mag/cell
     absolute magnetization    =   298.21 Bohr mag/cell

     iteration #  2     ecut=    50.00 Ry     beta= 0.50
     Davidson diagonalization with overlap
     ethr =  1.00E-02,  avg # of iterations =  7.5

     negative rho (up, down):  2.417E+00 1.187E-05
 
     Adding external electric field

     Computed dipole along edir(3) : 
        Dipole               -0.0990 Ry au,         -0.2516 Debye
        Dipole field         -0.0001 Ry au, 
 
        Potential amp.        0.0066 Ry
        Total length         54.2615 bohr
 
 
     Adding external electric field

     Computed dipole along edir(3) : 
        Dipole               -0.0990 Ry au,         -0.2516 Debye
        Dipole field         -0.0001 Ry au, 
 
        Potential amp.        0.0066 Ry
        Total length         54.2615 bohr
 

     total cpu time spent up to now is       66.3 secs

     total energy              =   -7291.65890262 Ry
     estimated scf accuracy    <    9331.93228130 Ry

     total magnetization       =   102.17 Bohr mag/cell
     absolute magnetization    =   151.15 Bohr mag/cell

     iteration #  3     ecut=    50.00 Ry     beta= 0.50
     Davidson diagonalization with overlap
     ethr =  1.00E-02,  avg # of iterations =  6.0

     negative rho (up, down):  1.788E+00 8.448E-06
 
     Adding external electric field

     Computed dipole along edir(3) : 
        Dipole               -2.4303 Ry au,         -6.1773 Debye
        Dipole field         -0.0015 Ry au, 
 
        Potential amp.        0.1631 Ry
        Total length         54.2615 bohr
 
 
     Adding external electric field

     Computed dipole along edir(3) : 
        Dipole               -2.4303 Ry au,         -6.1773 Debye
        Dipole field         -0.0015 Ry au, 
 
        Potential amp.        0.1631 Ry
        Total length         54.2615 bohr
 

     total cpu time spent up to now is       85.3 secs

     total energy              =   -7362.64466682 Ry
     estimated scf accuracy    <     717.31214424 Ry

     total magnetization       =   122.17 Bohr mag/cell
     absolute magnetization    =   164.65 Bohr mag/cell

     iteration #  4     ecut=    50.00 Ry     beta= 0.50
     Davidson diagonalization with overlap
     ethr =  1.00E-02,  avg # of iterations =  4.0

     negative rho (up, down):  1.150E+00 7.143E-06
 
     Adding external electric field

     Computed dipole along edir(3) : 
        Dipole               -2.9217 Ry au,         -7.4263 Debye
        Dipole field         -0.0018 Ry au, 
 
        Potential amp.        0.1961 Ry
        Total length         54.2615 bohr
 
 
     Adding external electric field

     Computed dipole along edir(3) : 
        Dipole               -2.9217 Ry au,         -7.4263 Debye
        Dipole field         -0.0018 Ry au, 
 
        Potential amp.        0.1961 Ry
        Total length         54.2615 bohr
 

     total cpu time spent up to now is      100.3 secs

     total energy              =   -7380.63952819 Ry
     estimated scf accuracy    <      77.47819358 Ry

     total magnetization       =    82.03 Bohr mag/cell
     absolute magnetization    =   128.53 Bohr mag/cell

     iteration #  5     ecut=    50.00 Ry     beta= 0.50
     Davidson diagonalization with overlap
     ethr =  7.19E-03,  avg # of iterations =  1.5

     negative rho (up, down):  4.732E-01 0.000E+00
 
     Adding external electric field

     Computed dipole along edir(3) : 
        Dipole               -3.1342 Ry au,         -7.9662 Debye
        Dipole field         -0.0019 Ry au, 
 
        Potential amp.        0.2103 Ry
        Total length         54.2615 bohr
 
 
     Adding external electric field

     Computed dipole along edir(3) : 
        Dipole               -3.1342 Ry au,         -7.9662 Debye
        Dipole field         -0.0019 Ry au, 
 
        Potential amp.        0.2103 Ry
        Total length         54.2615 bohr
 

     total cpu time spent up to now is      111.7 secs

     total energy              =   -7389.68486072 Ry
     estimated scf accuracy    <      78.75394309 Ry

     total magnetization       =    80.00 Bohr mag/cell
     absolute magnetization    =   116.05 Bohr mag/cell

     iteration #  6     ecut=    50.00 Ry     beta= 0.50
     Davidson diagonalization with overlap
     ethr =  7.19E-03,  avg # of iterations =  1.5

     negative rho (up, down):  3.430E-01 0.000E+00
 
     Adding external electric field

     Computed dipole along edir(3) : 
        Dipole               -3.4139 Ry au,         -8.6774 Debye
        Dipole field         -0.0021 Ry au, 
 
        Potential amp.        0.2291 Ry
        Total length         54.2615 bohr
 
 
     Adding external electric field

     Computed dipole along edir(3) : 
        Dipole               -3.4139 Ry au,         -8.6774 Debye
        Dipole field         -0.0021 Ry au, 
 
        Potential amp.        0.2291 Ry
        Total length         54.2615 bohr
 

     total cpu time spent up to now is      123.0 secs

     total energy              =   -7392.05542023 Ry
     estimated scf accuracy    <      55.62926165 Ry

     total magnetization       =    78.66 Bohr mag/cell
     absolute magnetization    =   103.69 Bohr mag/cell

     iteration #  7     ecut=    50.00 Ry     beta= 0.50
     Davidson diagonalization with overlap
     ethr =  5.16E-03,  avg # of iterations =  2.5

     negative rho (up, down):  1.573E-05 5.827E-03
 
     Adding external electric field

     Computed dipole along edir(3) : 
        Dipole               -3.9098 Ry au,         -9.9378 Debye
        Dipole field         -0.0024 Ry au, 
 
        Potential amp.        0.2624 Ry
        Total length         54.2615 bohr
 
 
     Adding external electric field

     Computed dipole along edir(3) : 
        Dipole               -3.9098 Ry au,         -9.9378 Debye
        Dipole field         -0.0024 Ry au, 
 
        Potential amp.        0.2624 Ry
        Total length         54.2615 bohr
 

     total cpu time spent up to now is      134.6 secs

     total energy              =   -7396.06197087 Ry
     estimated scf accuracy    <      39.10218779 Ry

     total magnetization       =    81.89 Bohr mag/cell
     absolute magnetization    =   102.91 Bohr mag/cell

     iteration #  8     ecut=    50.00 Ry     beta= 0.50
     Davidson diagonalization with overlap
     ethr =  3.63E-03,  avg # of iterations =  1.5

     negative rho (up, down):  2.938E-06 1.128E-02
 
     Adding external electric field

     Computed dipole along edir(3) : 
        Dipole               -3.9604 Ry au,        -10.0664 Debye
        Dipole field         -0.0024 Ry au, 
 
        Potential amp.        0.2658 Ry
        Total length         54.2615 bohr
 
 
     Adding external electric field

     Computed dipole along edir(3) : 
        Dipole               -3.9604 Ry au,        -10.0664 Debye
        Dipole field         -0.0024 Ry au, 
 
        Potential amp.        0.2658 Ry
        Total length         54.2615 bohr
 

     total cpu time spent up to now is      145.9 secs

     total energy              =   -7397.47471837 Ry
     estimated scf accuracy    <      38.84006102 Ry

     total magnetization       =    75.37 Bohr mag/cell
     absolute magnetization    =    85.76 Bohr mag/cell

     iteration #  9     ecut=    50.00 Ry     beta= 0.50
     Davidson diagonalization with overlap
     ethr =  3.60E-03,  avg # of iterations =  1.0

     negative rho (up, down):  5.575E-06 1.652E-02
 
     Adding external electric field

     Computed dipole along edir(3) : 
        Dipole               -4.0031 Ry au,        -10.1748 Debye
        Dipole field         -0.0025 Ry au, 
 
        Potential amp.        0.2687 Ry
        Total length         54.2615 bohr
 
 
     Adding external electric field

     Computed dipole along edir(3) : 
        Dipole               -4.0031 Ry au,        -10.1748 Debye
        Dipole field         -0.0025 Ry au, 
 
        Potential amp.        0.2687 Ry
        Total length         54.2615 bohr
 

     total cpu time spent up to now is      156.9 secs

     total energy              =   -7397.82563969 Ry
     estimated scf accuracy    <      13.13526942 Ry

     total magnetization       =    77.40 Bohr mag/cell
     absolute magnetization    =    86.10 Bohr mag/cell

     iteration # 10     ecut=    50.00 Ry     beta= 0.50
     Davidson diagonalization with overlap
     ethr =  1.22E-03,  avg # of iterations =  2.0

     negative rho (up, down):  1.721E-05 2.762E-02
 
     Adding external electric field

     Computed dipole along edir(3) : 
        Dipole               -4.0100 Ry au,        -10.1925 Debye
        Dipole field         -0.0025 Ry au, 
 
        Potential amp.        0.2691 Ry
        Total length         54.2615 bohr
 
 
     Adding external electric field

     Computed dipole along edir(3) : 
        Dipole               -4.0100 Ry au,        -10.1925 Debye
        Dipole field         -0.0025 Ry au, 
 
        Potential amp.        0.2691 Ry
        Total length         54.2615 bohr
 

     total cpu time spent up to now is      168.7 secs

     total energy              =   -7398.03149286 Ry
     estimated scf accuracy    <       5.88537866 Ry

     total magnetization       =    79.19 Bohr mag/cell
     absolute magnetization    =    86.25 Bohr mag/cell

     iteration # 11     ecut=    50.00 Ry     beta= 0.50
     Davidson diagonalization with overlap
     ethr =  5.46E-04,  avg # of iterations =  8.0

     negative rho (up, down):  0.000E+00 6.148E-03
 
     Adding external electric field

     Computed dipole along edir(3) : 
        Dipole               -3.6711 Ry au,         -9.3310 Debye
        Dipole field         -0.0023 Ry au, 
 
        Potential amp.        0.2464 Ry
        Total length         54.2615 bohr
 
 
     Adding external electric field

     Computed dipole along edir(3) : 
        Dipole               -3.6711 Ry au,         -9.3310 Debye
        Dipole field         -0.0023 Ry au, 
 
        Potential amp.        0.2464 Ry
        Total length         54.2615 bohr
 

     total cpu time spent up to now is      186.3 secs

     total energy              =   -7398.08944972 Ry
     estimated scf accuracy    <      14.65872381 Ry

     total magnetization       =    76.84 Bohr mag/cell
     absolute magnetization    =    82.06 Bohr mag/cell

     iteration # 12     ecut=    50.00 Ry     beta= 0.50
     Davidson diagonalization with overlap
     ethr =  5.46E-04,  avg # of iterations =  1.5

     negative rho (up, down):  7.754E-10 1.381E-03
 
     Adding external electric field

     Computed dipole along edir(3) : 
        Dipole               -3.6138 Ry au,         -9.1853 Debye
        Dipole field         -0.0022 Ry au, 
 
        Potential amp.        0.2425 Ry
        Total length         54.2615 bohr
 
 
     Adding external electric field

     Computed dipole along edir(3) : 
        Dipole               -3.6138 Ry au,         -9.1853 Debye
        Dipole field         -0.0022 Ry au, 
 
        Potential amp.        0.2425 Ry
        Total length         54.2615 bohr
 

     total cpu time spent up to now is      197.7 secs

     total energy              =   -7398.13223693 Ry
     estimated scf accuracy    <      19.13052147 Ry

     total magnetization       =    74.53 Bohr mag/cell
     absolute magnetization    =    78.52 Bohr mag/cell

     iteration # 13     ecut=    50.00 Ry     beta= 0.50
     Davidson diagonalization with overlap
     ethr =  5.46E-04,  avg # of iterations =  1.5

     negative rho (up, down):  1.416E-05 3.750E-07
 
     Adding external electric field

     Computed dipole along edir(3) : 
        Dipole               -3.4406 Ry au,         -8.7452 Debye
        Dipole field         -0.0021 Ry au, 
 
        Potential amp.        0.2309 Ry
        Total length         54.2615 bohr
 
 
     Adding external electric field

     Computed dipole along edir(3) : 
        Dipole               -3.4406 Ry au,         -8.7452 Debye
        Dipole field         -0.0021 Ry au, 
 
        Potential amp.        0.2309 Ry
        Total length         54.2615 bohr
 

     total cpu time spent up to now is      209.2 secs

     total energy              =   -7398.09024388 Ry
     estimated scf accuracy    <      37.25780242 Ry

     total magnetization       =    75.87 Bohr mag/cell
     absolute magnetization    =    80.77 Bohr mag/cell

     iteration # 14     ecut=    50.00 Ry     beta= 0.50
     Davidson diagonalization with overlap
     ethr =  5.46E-04,  avg # of iterations =  1.5

     negative rho (up, down):  3.628E-05 1.223E-04
 
     Adding external electric field

     Computed dipole along edir(3) : 
        Dipole               -2.8550 Ry au,         -7.2567 Debye
        Dipole field         -0.0018 Ry au, 
 
        Potential amp.        0.1916 Ry
        Total length         54.2615 bohr
 
 
     Adding external electric field

     Computed dipole along edir(3) : 
        Dipole               -2.8550 Ry au,         -7.2567 Debye
        Dipole field         -0.0018 Ry au, 
 
        Potential amp.        0.1916 Ry
        Total length         54.2615 bohr
 

     total cpu time spent up to now is      220.8 secs

     total energy              =   -7397.89965013 Ry
     estimated scf accuracy    <      32.14113249 Ry

     total magnetization       =    77.04 Bohr mag/cell
     absolute magnetization    =    81.94 Bohr mag/cell

     iteration # 15     ecut=    50.00 Ry     beta= 0.50
     Davidson diagonalization with overlap
     ethr =  5.46E-04,  avg # of iterations =  1.5

     negative rho (up, down):  7.731E-06 1.585E-04
 
     Adding external electric field

     Computed dipole along edir(3) : 
        Dipole               -2.7134 Ry au,         -6.8969 Debye
        Dipole field         -0.0017 Ry au, 
 
        Potential amp.        0.1821 Ry
        Total length         54.2615 bohr
 
 
     Adding external electric field

     Computed dipole along edir(3) : 
        Dipole               -2.7134 Ry au,         -6.8969 Debye
        Dipole field         -0.0017 Ry au, 
 
        Potential amp.        0.1821 Ry
        Total length         54.2615 bohr
 

     total cpu time spent up to now is      232.1 secs

     total energy              =   -7397.98243443 Ry
     estimated scf accuracy    <       6.07771721 Ry

     total magnetization       =    76.56 Bohr mag/cell
     absolute magnetization    =    79.80 Bohr mag/cell

     iteration # 16     ecut=    50.00 Ry     beta= 0.50
     Davidson diagonalization with overlap
     ethr =  5.46E-04,  avg # of iterations =  1.5

     negative rho (up, down):  1.275E-06 9.137E-08
 
     Adding external electric field

     Computed dipole along edir(3) : 
        Dipole               -2.6500 Ry au,         -6.7357 Debye
        Dipole field         -0.0016 Ry au, 
 
        Potential amp.        0.1779 Ry
        Total length         54.2615 bohr
 
 
     Adding external electric field

     Computed dipole along edir(3) : 
        Dipole               -2.6500 Ry au,         -6.7357 Debye
        Dipole field         -0.0016 Ry au, 
 
        Potential amp.        0.1779 Ry
        Total length         54.2615 bohr
 

     total cpu time spent up to now is      243.0 secs

     total energy              =   -7397.97618434 Ry
     estimated scf accuracy    <       8.66267251 Ry

     total magnetization       =    80.20 Bohr mag/cell
     absolute magnetization    =    81.87 Bohr mag/cell

     iteration # 17     ecut=    50.00 Ry     beta= 0.50
     Davidson diagonalization with overlap
     ethr =  5.46E-04,  avg # of iterations =  1.5

     negative rho (up, down):  4.248E-07 8.253E-08
 
     Adding external electric field

     Computed dipole along edir(3) : 
        Dipole               -2.3776 Ry au,         -6.0433 Debye
        Dipole field         -0.0015 Ry au, 
 
        Potential amp.        0.1596 Ry
        Total length         54.2615 bohr
 
 
     Adding external electric field

     Computed dipole along edir(3) : 
        Dipole               -2.3776 Ry au,         -6.0433 Debye
        Dipole field         -0.0015 Ry au, 
 
        Potential amp.        0.1596 Ry
        Total length         54.2615 bohr
 

     total cpu time spent up to now is      253.7 secs

     total energy              =   -7398.02745279 Ry
     estimated scf accuracy    <       2.82567701 Ry

     total magnetization       =    78.45 Bohr mag/cell
     absolute magnetization    =    80.65 Bohr mag/cell

     iteration # 18     ecut=    50.00 Ry     beta= 0.50
     Davidson diagonalization with overlap
     ethr =  2.62E-04,  avg # of iterations =  1.5

     negative rho (up, down):  1.302E-07 0.000E+00
 
     Adding external electric field

     Computed dipole along edir(3) : 
        Dipole               -2.1494 Ry au,         -5.4633 Debye
        Dipole field         -0.0013 Ry au, 
 
        Potential amp.        0.1443 Ry
        Total length         54.2615 bohr
 
 
     Adding external electric field

     Computed dipole along edir(3) : 
        Dipole               -2.1494 Ry au,         -5.4633 Debye
        Dipole field         -0.0013 Ry au, 
 
        Potential amp.        0.1443 Ry
        Total length         54.2615 bohr
 

     total cpu time spent up to now is      264.9 secs

     total energy              =   -7398.05046472 Ry
     estimated scf accuracy    <       1.00596914 Ry

     total magnetization       =    79.59 Bohr mag/cell
     absolute magnetization    =    81.41 Bohr mag/cell

     iteration # 19     ecut=    50.00 Ry     beta= 0.50
     Davidson diagonalization with overlap
     ethr =  9.33E-05,  avg # of iterations =  9.5
 
     Adding external electric field

     Computed dipole along edir(3) : 
        Dipole               -1.9447 Ry au,         -4.9429 Debye
        Dipole field         -0.0012 Ry au, 
 
        Potential amp.        0.1305 Ry
        Total length         54.2615 bohr
 
 
     Adding external electric field

     Computed dipole along edir(3) : 
        Dipole               -1.9447 Ry au,         -4.9429 Debye
        Dipole field         -0.0012 Ry au, 
 
        Potential amp.        0.1305 Ry
        Total length         54.2615 bohr
 

     total cpu time spent up to now is      284.3 secs

     total energy              =   -7398.05976735 Ry
     estimated scf accuracy    <       0.28778728 Ry

     total magnetization       =    80.11 Bohr mag/cell
     absolute magnetization    =    81.72 Bohr mag/cell

     iteration # 20     ecut=    50.00 Ry     beta= 0.50
     Davidson diagonalization with overlap
     c_bands:  2 eigenvalues not converged
     ethr =  2.67E-05,  avg # of iterations = 11.0
 
     Adding external electric field

     Computed dipole along edir(3) : 
        Dipole               -1.8575 Ry au,         -4.7213 Debye
        Dipole field         -0.0011 Ry au, 
 
        Potential amp.        0.1247 Ry
        Total length         54.2615 bohr
 
 
     Adding external electric field

     Computed dipole along edir(3) : 
        Dipole               -1.8575 Ry au,         -4.7213 Debye
        Dipole field         -0.0011 Ry au, 
 
        Potential amp.        0.1247 Ry
        Total length         54.2615 bohr
 

     total cpu time spent up to now is      304.1 secs

     total energy              =   -7398.06221350 Ry
     estimated scf accuracy    <       0.14281902 Ry

     total magnetization       =    80.84 Bohr mag/cell
     absolute magnetization    =    82.35 Bohr mag/cell

     iteration # 21     ecut=    50.00 Ry     beta= 0.50
     Davidson diagonalization with overlap
     ethr =  1.32E-05,  avg # of iterations =  1.5
 
     Adding external electric field

     Computed dipole along edir(3) : 
        Dipole               -1.7627 Ry au,         -4.4805 Debye
        Dipole field         -0.0011 Ry au, 
 
        Potential amp.        0.1183 Ry
        Total length         54.2615 bohr
 
 
     Adding external electric field

     Computed dipole along edir(3) : 
        Dipole               -1.7627 Ry au,         -4.4805 Debye
        Dipole field         -0.0011 Ry au, 
 
        Potential amp.        0.1183 Ry
        Total length         54.2615 bohr
 

     total cpu time spent up to now is      314.5 secs

     total energy              =   -7398.06015153 Ry
     estimated scf accuracy    <       0.12476641 Ry

     total magnetization       =    80.32 Bohr mag/cell
     absolute magnetization    =    81.90 Bohr mag/cell

     iteration # 22     ecut=    50.00 Ry     beta= 0.50
     Davidson diagonalization with overlap
     ethr =  1.16E-05,  avg # of iterations =  1.5
 
     Adding external electric field

     Computed dipole along edir(3) : 
        Dipole               -1.6149 Ry au,         -4.1046 Debye
        Dipole field         -0.0010 Ry au, 
 
        Potential amp.        0.1084 Ry
        Total length         54.2615 bohr
 
 
     Adding external electric field

     Computed dipole along edir(3) : 
        Dipole               -1.6149 Ry au,         -4.1046 Debye
        Dipole field         -0.0010 Ry au, 
 
        Potential amp.        0.1084 Ry
        Total length         54.2615 bohr
 

     total cpu time spent up to now is      325.3 secs

     total energy              =   -7398.05787186 Ry
     estimated scf accuracy    <       0.10887605 Ry

     total magnetization       =    80.64 Bohr mag/cell
     absolute magnetization    =    82.20 Bohr mag/cell

     iteration # 23     ecut=    50.00 Ry     beta= 0.50
     Davidson diagonalization with overlap
     ethr =  1.01E-05,  avg # of iterations =  1.5
 
     Adding external electric field

     Computed dipole along edir(3) : 
        Dipole               -1.5050 Ry au,         -3.8254 Debye
        Dipole field         -0.0009 Ry au, 
 
        Potential amp.        0.1010 Ry
        Total length         54.2615 bohr
 
 
     Adding external electric field

     Computed dipole along edir(3) : 
        Dipole               -1.5050 Ry au,         -3.8254 Debye
        Dipole field         -0.0009 Ry au, 
 
        Potential amp.        0.1010 Ry
        Total length         54.2615 bohr
 

     total cpu time spent up to now is      336.3 secs

     total energy              =   -7398.05684520 Ry
     estimated scf accuracy    <       0.14452222 Ry

     total magnetization       =    80.62 Bohr mag/cell
     absolute magnetization    =    82.21 Bohr mag/cell

     iteration # 24     ecut=    50.00 Ry     beta= 0.50
     Davidson diagonalization with overlap
     ethr =  1.01E-05,  avg # of iterations =  1.0
 
     Adding external electric field

     Computed dipole along edir(3) : 
        Dipole               -1.4346 Ry au,         -3.6464 Debye
        Dipole field         -0.0009 Ry au, 
 
        Potential amp.        0.0963 Ry
        Total length         54.2615 bohr
 
 
     Adding external electric field

     Computed dipole along edir(3) : 
        Dipole               -1.4346 Ry au,         -3.6464 Debye
        Dipole field         -0.0009 Ry au, 
 
        Potential amp.        0.0963 Ry
        Total length         54.2615 bohr
 

     total cpu time spent up to now is      346.5 secs

     total energy              =   -7398.05642922 Ry
     estimated scf accuracy    <       0.15109228 Ry

     total magnetization       =    80.52 Bohr mag/cell
     absolute magnetization    =    82.15 Bohr mag/cell

     iteration # 25     ecut=    50.00 Ry     beta= 0.50
     Davidson diagonalization with overlap
     ethr =  1.01E-05,  avg # of iterations =  1.5
 
     Adding external electric field

     Computed dipole along edir(3) : 
        Dipole               -1.5039 Ry au,         -3.8226 Debye
        Dipole field         -0.0009 Ry au, 
 
        Potential amp.        0.1009 Ry
        Total length         54.2615 bohr
 
 
     Adding external electric field

     Computed dipole along edir(3) : 
        Dipole               -1.5039 Ry au,         -3.8226 Debye
        Dipole field         -0.0009 Ry au, 
 
        Potential amp.        0.1009 Ry
        Total length         54.2615 bohr
 

     total cpu time spent up to now is      357.5 secs

     total energy              =   -7398.05709062 Ry
     estimated scf accuracy    <       0.19722731 Ry

     total magnetization       =    80.41 Bohr mag/cell
     absolute magnetization    =    82.05 Bohr mag/cell

     iteration # 26     ecut=    50.00 Ry     beta= 0.50
     Davidson diagonalization with overlap
     ethr =  1.01E-05,  avg # of iterations =  1.0
 
     Adding external electric field

     Computed dipole along edir(3) : 
        Dipole               -1.6050 Ry au,         -4.0795 Debye
        Dipole field         -0.0010 Ry au, 
 
        Potential amp.        0.1077 Ry
        Total length         54.2615 bohr
 
 
     Adding external electric field

     Computed dipole along edir(3) : 
        Dipole               -1.6050 Ry au,         -4.0795 Debye
        Dipole field         -0.0010 Ry au, 
 
        Potential amp.        0.1077 Ry
        Total length         54.2615 bohr
 

     total cpu time spent up to now is      367.3 secs

     total energy              =   -7398.05832439 Ry
     estimated scf accuracy    <       0.16613640 Ry

     total magnetization       =    80.49 Bohr mag/cell
     absolute magnetization    =    82.13 Bohr mag/cell

     iteration # 27     ecut=    50.00 Ry     beta= 0.50
     Davidson diagonalization with overlap
     ethr =  1.01E-05,  avg # of iterations =  1.0
 
     Adding external electric field

     Computed dipole along edir(3) : 
        Dipole               -1.6280 Ry au,         -4.1379 Debye
        Dipole field         -0.0010 Ry au, 
 
        Potential amp.        0.1093 Ry
        Total length         54.2615 bohr
 
 
     Adding external electric field

     Computed dipole along edir(3) : 
        Dipole               -1.6280 Ry au,         -4.1379 Debye
        Dipole field         -0.0010 Ry au, 
 
        Potential amp.        0.1093 Ry
        Total length         54.2615 bohr
 

     total cpu time spent up to now is      377.3 secs

     total energy              =   -7398.05890046 Ry
     estimated scf accuracy    <       0.15100883 Ry

     total magnetization       =    80.45 Bohr mag/cell
     absolute magnetization    =    82.03 Bohr mag/cell

     iteration # 28     ecut=    50.00 Ry     beta= 0.50
     Davidson diagonalization with overlap
     ethr =  1.01E-05,  avg # of iterations =  1.0
 
     Adding external electric field

     Computed dipole along edir(3) : 
        Dipole               -1.6477 Ry au,         -4.1881 Debye
        Dipole field         -0.0010 Ry au, 
 
        Potential amp.        0.1106 Ry
        Total length         54.2615 bohr
 
 
     Adding external electric field

     Computed dipole along edir(3) : 
        Dipole               -1.6477 Ry au,         -4.1881 Debye
        Dipole field         -0.0010 Ry au, 
 
        Potential amp.        0.1106 Ry
        Total length         54.2615 bohr
 

     total cpu time spent up to now is      387.3 secs

     total energy              =   -7398.06005888 Ry
     estimated scf accuracy    <       0.18895000 Ry

     total magnetization       =    80.37 Bohr mag/cell
     absolute magnetization    =    81.91 Bohr mag/cell

     iteration # 29     ecut=    50.00 Ry     beta= 0.50
     Davidson diagonalization with overlap
     ethr =  1.01E-05,  avg # of iterations =  1.0
 
     Adding external electric field

     Computed dipole along edir(3) : 
        Dipole               -1.6153 Ry au,         -4.1056 Debye
        Dipole field         -0.0010 Ry au, 
 
        Potential amp.        0.1084 Ry
        Total length         54.2615 bohr
 
 
     Adding external electric field

     Computed dipole along edir(3) : 
        Dipole               -1.6153 Ry au,         -4.1056 Debye
        Dipole field         -0.0010 Ry au, 
 
        Potential amp.        0.1084 Ry
        Total length         54.2615 bohr
 

     total cpu time spent up to now is      397.3 secs

     total energy              =   -7398.05955729 Ry
     estimated scf accuracy    <       0.21219230 Ry

     total magnetization       =    80.46 Bohr mag/cell
     absolute magnetization    =    81.97 Bohr mag/cell

     iteration # 30     ecut=    50.00 Ry     beta= 0.50
     Davidson diagonalization with overlap
     ethr =  1.01E-05,  avg # of iterations =  1.0
 
     Adding external electric field

     Computed dipole along edir(3) : 
        Dipole               -1.3920 Ry au,         -3.5382 Debye
        Dipole field         -0.0009 Ry au, 
 
        Potential amp.        0.0934 Ry
        Total length         54.2615 bohr
 
 
     Adding external electric field

     Computed dipole along edir(3) : 
        Dipole               -1.3920 Ry au,         -3.5382 Debye
        Dipole field         -0.0009 Ry au, 
 
        Potential amp.        0.0934 Ry
        Total length         54.2615 bohr
 

     total cpu time spent up to now is      407.7 secs

     total energy              =   -7398.05420081 Ry
     estimated scf accuracy    <       0.17635048 Ry

     total magnetization       =    80.49 Bohr mag/cell
     absolute magnetization    =    82.03 Bohr mag/cell

     iteration # 31     ecut=    50.00 Ry     beta= 0.50
     Davidson diagonalization with overlap
     ethr =  1.01E-05,  avg # of iterations =  1.0
 
     Adding external electric field

     Computed dipole along edir(3) : 
        Dipole               -1.2627 Ry au,         -3.2094 Debye
        Dipole field         -0.0008 Ry au, 
 
        Potential amp.        0.0847 Ry
        Total length         54.2615 bohr
 
 
     Adding external electric field

     Computed dipole along edir(3) : 
        Dipole               -1.2627 Ry au,         -3.2094 Debye
        Dipole field         -0.0008 Ry au, 
 
        Potential amp.        0.0847 Ry
        Total length         54.2615 bohr
 

     total cpu time spent up to now is      417.9 secs

     total energy              =   -7398.05300961 Ry
     estimated scf accuracy    <       0.11350109 Ry

     total magnetization       =    80.35 Bohr mag/cell
     absolute magnetization    =    81.96 Bohr mag/cell

     iteration # 32     ecut=    50.00 Ry     beta= 0.50
     Davidson diagonalization with overlap
     ethr =  1.01E-05,  avg # of iterations =  1.0
 
     Adding external electric field

     Computed dipole along edir(3) : 
        Dipole               -1.1987 Ry au,         -3.0468 Debye
        Dipole field         -0.0007 Ry au, 
 
        Potential amp.        0.0804 Ry
        Total length         54.2615 bohr
 
 
     Adding external electric field

     Computed dipole along edir(3) : 
        Dipole               -1.1987 Ry au,         -3.0468 Debye
        Dipole field         -0.0007 Ry au, 
 
        Potential amp.        0.0804 Ry
        Total length         54.2615 bohr
 

     total cpu time spent up to now is      428.1 secs

     total energy              =   -7398.05147682 Ry
     estimated scf accuracy    <       0.11024744 Ry

     total magnetization       =    80.48 Bohr mag/cell
     absolute magnetization    =    82.07 Bohr mag/cell

     iteration # 33     ecut=    50.00 Ry     beta= 0.50
     Davidson diagonalization with overlap
     ethr =  1.01E-05,  avg # of iterations =  1.0
 
     Adding external electric field

     Computed dipole along edir(3) : 
        Dipole               -1.0439 Ry au,         -2.6534 Debye
        Dipole field         -0.0006 Ry au, 
 
        Potential amp.        0.0701 Ry
        Total length         54.2615 bohr
 
 
     Adding external electric field

     Computed dipole along edir(3) : 
        Dipole               -1.0439 Ry au,         -2.6534 Debye
        Dipole field         -0.0006 Ry au, 
 
        Potential amp.        0.0701 Ry
        Total length         54.2615 bohr
 

     total cpu time spent up to now is      438.2 secs

     total energy              =   -7398.04916756 Ry
     estimated scf accuracy    <       0.09647350 Ry

     total magnetization       =    80.15 Bohr mag/cell
     absolute magnetization    =    81.74 Bohr mag/cell

     iteration # 34     ecut=    50.00 Ry     beta= 0.50
     Davidson diagonalization with overlap
     ethr =  8.95E-06,  avg # of iterations =  2.0
 
     Adding external electric field

     Computed dipole along edir(3) : 
        Dipole               -0.8147 Ry au,         -2.0707 Debye
        Dipole field         -0.0005 Ry au, 
 
        Potential amp.        0.0547 Ry
        Total length         54.2615 bohr
 
 
     Adding external electric field

     Computed dipole along edir(3) : 
        Dipole               -0.8147 Ry au,         -2.0707 Debye
        Dipole field         -0.0005 Ry au, 
 
        Potential amp.        0.0547 Ry
        Total length         54.2615 bohr
 

     total cpu time spent up to now is      449.4 secs

     total energy              =   -7398.04358485 Ry
     estimated scf accuracy    <       0.06543127 Ry

     total magnetization       =    80.37 Bohr mag/cell
     absolute magnetization    =    81.94 Bohr mag/cell

     iteration # 35     ecut=    50.00 Ry     beta= 0.50
     Davidson diagonalization with overlap
     c_bands:  4 eigenvalues not converged
     ethr =  6.07E-06,  avg # of iterations = 11.0
 
     Adding external electric field

     Computed dipole along edir(3) : 
        Dipole               -0.5981 Ry au,         -1.5203 Debye
        Dipole field         -0.0004 Ry au, 
 
        Potential amp.        0.0401 Ry
        Total length         54.2615 bohr
 
 
     Adding external electric field

     Computed dipole along edir(3) : 
        Dipole               -0.5981 Ry au,         -1.5203 Debye
        Dipole field         -0.0004 Ry au, 
 
        Potential amp.        0.0401 Ry
        Total length         54.2615 bohr
 

     total cpu time spent up to now is      467.5 secs

     total energy              =   -7398.04028530 Ry
     estimated scf accuracy    <       0.05727391 Ry

     total magnetization       =    80.39 Bohr mag/cell
     absolute magnetization    =    81.85 Bohr mag/cell

     iteration # 36     ecut=    50.00 Ry     beta= 0.50
     Davidson diagonalization with overlap
     c_bands:  1 eigenvalues not converged
     ethr =  5.31E-06,  avg # of iterations = 11.5

     negative rho (up, down):  9.839E-07 2.940E-07
 
     Adding external electric field

     Computed dipole along edir(3) : 
        Dipole               -0.0678 Ry au,         -0.1724 Debye
        Dipole field         -0.0000 Ry au, 
 
        Potential amp.        0.0046 Ry
        Total length         54.2615 bohr
 
 
     Adding external electric field

     Computed dipole along edir(3) : 
        Dipole               -0.0678 Ry au,         -0.1724 Debye
        Dipole field         -0.0000 Ry au, 
 
        Potential amp.        0.0046 Ry
        Total length         54.2615 bohr
 

     total cpu time spent up to now is      485.5 secs

     total energy              =   -7398.03226828 Ry
     estimated scf accuracy    <       0.04485644 Ry

     total magnetization       =    80.41 Bohr mag/cell
     absolute magnetization    =    81.86 Bohr mag/cell

     iteration # 37     ecut=    50.00 Ry     beta= 0.50
     Davidson diagonalization with overlap
     c_bands:  1 eigenvalues not converged
     c_bands:  2 eigenvalues not converged
     ethr =  4.16E-06,  avg # of iterations = 20.0

     negative rho (up, down):  6.977E-05 8.444E-05
 
     Adding external electric field

     Computed dipole along edir(3) : 
        Dipole               -0.1192 Ry au,         -0.3029 Debye
        Dipole field         -0.0001 Ry au, 
 
        Potential amp.        0.0080 Ry
        Total length         54.2615 bohr
 
 
     Adding external electric field

     Computed dipole along edir(3) : 
        Dipole               -0.1192 Ry au,         -0.3029 Debye
        Dipole field         -0.0001 Ry au, 
 
        Potential amp.        0.0080 Ry
        Total length         54.2615 bohr
 

     total cpu time spent up to now is      512.1 secs

     total energy              =   -7398.02952564 Ry
     estimated scf accuracy    <       0.07532416 Ry

     total magnetization       =    80.27 Bohr mag/cell
     absolute magnetization    =    81.74 Bohr mag/cell

     iteration # 38     ecut=    50.00 Ry     beta= 0.50
     Davidson diagonalization with overlap
     ethr =  4.16E-06,  avg # of iterations =  2.0

     negative rho (up, down):  3.510E-05 2.920E-05
 
     Adding external electric field

     Computed dipole along edir(3) : 
        Dipole               -0.1157 Ry au,         -0.2941 Debye
        Dipole field         -0.0001 Ry au, 
 
        Potential amp.        0.0078 Ry
        Total length         54.2615 bohr
 
 
     Adding external electric field

     Computed dipole along edir(3) : 
        Dipole               -0.1157 Ry au,         -0.2941 Debye
        Dipole field         -0.0001 Ry au, 
 
        Potential amp.        0.0078 Ry
        Total length         54.2615 bohr
 

     total cpu time spent up to now is      523.9 secs

     total energy              =   -7398.03011497 Ry
     estimated scf accuracy    <       0.03337718 Ry

     total magnetization       =    80.57 Bohr mag/cell
     absolute magnetization    =    82.00 Bohr mag/cell

     iteration # 39     ecut=    50.00 Ry     beta= 0.50
     Davidson diagonalization with overlap
     ethr =  3.10E-06,  avg # of iterations =  2.0

     negative rho (up, down):  2.903E-03 2.517E-03
 
     Adding external electric field

     Computed dipole along edir(3) : 
        Dipole                0.2703 Ry au,          0.6870 Debye
        Dipole field          0.0002 Ry au, 
 
        Potential amp.       -0.0181 Ry
        Total length         54.2615 bohr
 
 
     Adding external electric field

     Computed dipole along edir(3) : 
        Dipole                0.2703 Ry au,          0.6870 Debye
        Dipole field          0.0002 Ry au, 
 
        Potential amp.       -0.0181 Ry
        Total length         54.2615 bohr
 

     total cpu time spent up to now is      535.5 secs

     total energy              =   -7398.02835583 Ry
     estimated scf accuracy    <       0.02779176 Ry

     total magnetization       =    80.61 Bohr mag/cell
     absolute magnetization    =    82.11 Bohr mag/cell

     iteration # 40     ecut=    50.00 Ry     beta= 0.50
     Davidson diagonalization with overlap
     c_bands:  1 eigenvalues not converged
     ethr =  2.58E-06,  avg # of iterations = 12.0

     negative rho (up, down):  1.290E-03 1.017E-03
 
     Adding external electric field

     Computed dipole along edir(3) : 
        Dipole                0.2379 Ry au,          0.6046 Debye
        Dipole field          0.0001 Ry au, 
 
        Potential amp.       -0.0160 Ry
        Total length         54.2615 bohr
 
 
     Adding external electric field

     Computed dipole along edir(3) : 
        Dipole                0.2379 Ry au,          0.6046 Debye
        Dipole field          0.0001 Ry au, 
 
        Potential amp.       -0.0160 Ry
        Total length         54.2615 bohr
 

     total cpu time spent up to now is      552.9 secs

     total energy              =   -7398.02791800 Ry
     estimated scf accuracy    <       0.03378952 Ry

     total magnetization       =    80.34 Bohr mag/cell
     absolute magnetization    =    81.87 Bohr mag/cell

     iteration # 41     ecut=    50.00 Ry     beta= 0.50
     Davidson diagonalization with overlap
     ethr =  2.58E-06,  avg # of iterations =  2.0

     negative rho (up, down):  3.083E-03 3.480E-03
 
     Adding external electric field

     Computed dipole along edir(3) : 
        Dipole                0.3396 Ry au,          0.8633 Debye
        Dipole field          0.0002 Ry au, 
 
        Potential amp.       -0.0228 Ry
        Total length         54.2615 bohr
 
 
     Adding external electric field

     Computed dipole along edir(3) : 
        Dipole                0.3396 Ry au,          0.8633 Debye
        Dipole field          0.0002 Ry au, 
 
        Potential amp.       -0.0228 Ry
        Total length         54.2615 bohr
 

     total cpu time spent up to now is      564.5 secs

     total energy              =   -7398.02826557 Ry
     estimated scf accuracy    <       0.01875235 Ry

     total magnetization       =    80.58 Bohr mag/cell
     absolute magnetization    =    82.11 Bohr mag/cell

     iteration # 42     ecut=    50.00 Ry     beta= 0.50
     Davidson diagonalization with overlap
     c_bands:  2 eigenvalues not converged
     ethr =  1.74E-06,  avg # of iterations = 17.5

     negative rho (up, down):  2.316E-03 3.296E-03
 
     Adding external electric field

     Computed dipole along edir(3) : 
        Dipole                0.3375 Ry au,          0.8579 Debye
        Dipole field          0.0002 Ry au, 
 
        Potential amp.       -0.0227 Ry
        Total length         54.2615 bohr
 
 
     Adding external electric field

     Computed dipole along edir(3) : 
        Dipole                0.3375 Ry au,          0.8579 Debye
        Dipole field          0.0002 Ry au, 
 
        Potential amp.       -0.0227 Ry
        Total length         54.2615 bohr
 

     total cpu time spent up to now is      585.4 secs

     total energy              =   -7398.02837434 Ry
     estimated scf accuracy    <       0.00589052 Ry

     total magnetization       =    80.45 Bohr mag/cell
     absolute magnetization    =    82.02 Bohr mag/cell

     iteration # 43     ecut=    50.00 Ry     beta= 0.50
     Davidson diagonalization with overlap
     c_bands:  1 eigenvalues not converged
     ethr =  5.46E-07,  avg # of iterations = 11.0

     negative rho (up, down):  1.316E-03 1.535E-03
 
     Adding external electric field

     Computed dipole along edir(3) : 
        Dipole                0.3154 Ry au,          0.8017 Debye
        Dipole field          0.0002 Ry au, 
 
        Potential amp.       -0.0212 Ry
        Total length         54.2615 bohr
 
 
     Adding external electric field

     Computed dipole along edir(3) : 
        Dipole                0.3154 Ry au,          0.8017 Debye
        Dipole field          0.0002 Ry au, 
 
        Potential amp.       -0.0212 Ry
        Total length         54.2615 bohr
 

     total cpu time spent up to now is      601.7 secs

     total energy              =   -7398.02822454 Ry
     estimated scf accuracy    <       0.00695941 Ry

     total magnetization       =    80.18 Bohr mag/cell
     absolute magnetization    =    81.75 Bohr mag/cell

     iteration # 44     ecut=    50.00 Ry     beta= 0.50
     Davidson diagonalization with overlap
     ethr =  5.46E-07,  avg # of iterations =  1.5

     negative rho (up, down):  2.113E-03 2.160E-03
 
     Adding external electric field

     Computed dipole along edir(3) : 
        Dipole                0.3045 Ry au,          0.7740 Debye
        Dipole field          0.0002 Ry au, 
 
        Potential amp.       -0.0204 Ry
        Total length         54.2615 bohr
 
 
     Adding external electric field

     Computed dipole along edir(3) : 
        Dipole                0.3045 Ry au,          0.7740 Debye
        Dipole field          0.0002 Ry au, 
 
        Potential amp.       -0.0204 Ry
        Total length         54.2615 bohr
 

     total cpu time spent up to now is      612.7 secs

     total energy              =   -7398.02836815 Ry
     estimated scf accuracy    <       0.00336969 Ry

     total magnetization       =    80.40 Bohr mag/cell
     absolute magnetization    =    81.95 Bohr mag/cell

     iteration # 45     ecut=    50.00 Ry     beta= 0.50
     Davidson diagonalization with overlap
     ethr =  3.13E-07,  avg # of iterations =  2.0

     negative rho (up, down):  1.731E-03 1.775E-03
 
     Adding external electric field

     Computed dipole along edir(3) : 
        Dipole                0.2890 Ry au,          0.7345 Debye
        Dipole field          0.0002 Ry au, 
 
        Potential amp.       -0.0194 Ry
        Total length         54.2615 bohr
 
 
     Adding external electric field

     Computed dipole along edir(3) : 
        Dipole                0.2890 Ry au,          0.7345 Debye
        Dipole field          0.0002 Ry au, 
 
        Potential amp.       -0.0194 Ry
        Total length         54.2615 bohr
 

     total cpu time spent up to now is      631.9 secs

     total energy              =   -7398.02839846 Ry
     estimated scf accuracy    <       0.00145930 Ry

     total magnetization       =    80.37 Bohr mag/cell
     absolute magnetization    =    81.89 Bohr mag/cell

     iteration # 46     ecut=    50.00 Ry     beta= 0.50
     Davidson diagonalization with overlap
     ethr =  1.35E-07,  avg # of iterations =  1.5

     negative rho (up, down):  2.697E-03 2.596E-03
 
     Adding external electric field

     Computed dipole along edir(3) : 
        Dipole                0.2965 Ry au,          0.7536 Debye
        Dipole field          0.0002 Ry au, 
 
        Potential amp.       -0.0199 Ry
        Total length         54.2615 bohr
 
 
     Adding external electric field

     Computed dipole along edir(3) : 
        Dipole                0.2965 Ry au,          0.7536 Debye
        Dipole field          0.0002 Ry au, 
 
        Potential amp.       -0.0199 Ry
        Total length         54.2615 bohr
 

     total cpu time spent up to now is      642.6 secs

     total energy              =   -7398.02841001 Ry
     estimated scf accuracy    <       0.00079097 Ry

     total magnetization       =    80.32 Bohr mag/cell
     absolute magnetization    =    81.84 Bohr mag/cell

     iteration # 47     ecut=    50.00 Ry     beta= 0.50
     Davidson diagonalization with overlap
     ethr =  7.34E-08,  avg # of iterations =  1.5

     negative rho (up, down):  9.887E-04 6.641E-04
 
     Adding external electric field

     Computed dipole along edir(3) : 
        Dipole                0.2909 Ry au,          0.7393 Debye
        Dipole field          0.0002 Ry au, 
 
        Potential amp.       -0.0195 Ry
        Total length         54.2615 bohr
 
 
     Adding external electric field

     Computed dipole along edir(3) : 
        Dipole                0.2909 Ry au,          0.7393 Debye
        Dipole field          0.0002 Ry au, 
 
        Potential amp.       -0.0195 Ry
        Total length         54.2615 bohr
 

     total cpu time spent up to now is      653.5 secs

     total energy              =   -7398.02837812 Ry
     estimated scf accuracy    <       0.00093436 Ry

     total magnetization       =    80.33 Bohr mag/cell
     absolute magnetization    =    81.85 Bohr mag/cell

     iteration # 48     ecut=    50.00 Ry     beta= 0.50
     Davidson diagonalization with overlap
     ethr =  7.34E-08,  avg # of iterations =  2.0

     negative rho (up, down):  1.585E-03 1.318E-03
 
     Adding external electric field

     Computed dipole along edir(3) : 
        Dipole                0.2887 Ry au,          0.7337 Debye
        Dipole field          0.0002 Ry au, 
 
        Potential amp.       -0.0194 Ry
        Total length         54.2615 bohr
 
 
     Adding external electric field

     Computed dipole along edir(3) : 
        Dipole                0.2887 Ry au,          0.7337 Debye
        Dipole field          0.0002 Ry au, 
 
        Potential amp.       -0.0194 Ry
        Total length         54.2615 bohr
 

     total cpu time spent up to now is      665.1 secs

     total energy              =   -7398.02840777 Ry
     estimated scf accuracy    <       0.00251409 Ry

     total magnetization       =    80.33 Bohr mag/cell
     absolute magnetization    =    81.85 Bohr mag/cell

     iteration # 49     ecut=    50.00 Ry     beta= 0.50
     Davidson diagonalization with overlap
     ethr =  7.34E-08,  avg # of iterations =  1.0

     negative rho (up, down):  2.161E-03 1.952E-03
 
     Adding external electric field

     Computed dipole along edir(3) : 
        Dipole                0.2919 Ry au,          0.7420 Debye
        Dipole field          0.0002 Ry au, 
 
        Potential amp.       -0.0196 Ry
        Total length         54.2615 bohr
 
 
     Adding external electric field

     Computed dipole along edir(3) : 
        Dipole                0.2919 Ry au,          0.7420 Debye
        Dipole field          0.0002 Ry au, 
 
        Potential amp.       -0.0196 Ry
        Total length         54.2615 bohr
 

     total cpu time spent up to now is      675.3 secs

     total energy              =   -7398.02840960 Ry
     estimated scf accuracy    <       0.00030748 Ry

     total magnetization       =    80.31 Bohr mag/cell
     absolute magnetization    =    81.83 Bohr mag/cell

     iteration # 50     ecut=    50.00 Ry     beta= 0.50
     Davidson diagonalization with overlap
     ethr =  2.85E-08,  avg # of iterations =  2.0

     negative rho (up, down):  1.629E-03 1.282E-03
 
     Adding external electric field

     Computed dipole along edir(3) : 
        Dipole                0.2866 Ry au,          0.7284 Debye
        Dipole field          0.0002 Ry au, 
 
        Potential amp.       -0.0192 Ry
        Total length         54.2615 bohr
 
 
     Adding external electric field

     Computed dipole along edir(3) : 
        Dipole                0.2866 Ry au,          0.7284 Debye
        Dipole field          0.0002 Ry au, 
 
        Potential amp.       -0.0192 Ry
        Total length         54.2615 bohr
 

     total cpu time spent up to now is      687.0 secs

     total energy              =   -7398.02839411 Ry
     estimated scf accuracy    <       0.00094321 Ry

     total magnetization       =    80.32 Bohr mag/cell
     absolute magnetization    =    81.84 Bohr mag/cell

     iteration # 51     ecut=    50.00 Ry     beta= 0.50
     Davidson diagonalization with overlap
     ethr =  2.85E-08,  avg # of iterations =  2.0

     negative rho (up, down):  1.577E-03 1.248E-03
 
     Adding external electric field

     Computed dipole along edir(3) : 
        Dipole                0.2879 Ry au,          0.7318 Debye
        Dipole field          0.0002 Ry au, 
 
        Potential amp.       -0.0193 Ry
        Total length         54.2615 bohr
 
 
     Adding external electric field

     Computed dipole along edir(3) : 
        Dipole                0.2879 Ry au,          0.7318 Debye
        Dipole field          0.0002 Ry au, 
 
        Potential amp.       -0.0193 Ry
        Total length         54.2615 bohr
 

     total cpu time spent up to now is      698.3 secs

     total energy              =   -7398.02841313 Ry
     estimated scf accuracy    <       0.00017961 Ry

     total magnetization       =    80.27 Bohr mag/cell
     absolute magnetization    =    81.80 Bohr mag/cell

     iteration # 52     ecut=    50.00 Ry     beta= 0.50
     Davidson diagonalization with overlap
     ethr =  1.67E-08,  avg # of iterations =  2.0

     negative rho (up, down):  1.401E-03 1.032E-03
 
     Adding external electric field

     Computed dipole along edir(3) : 
        Dipole                0.2878 Ry au,          0.7316 Debye
        Dipole field          0.0002 Ry au, 
 
        Potential amp.       -0.0193 Ry
        Total length         54.2615 bohr
 
 
     Adding external electric field

     Computed dipole along edir(3) : 
        Dipole                0.2878 Ry au,          0.7316 Debye
        Dipole field          0.0002 Ry au, 
 
        Potential amp.       -0.0193 Ry
        Total length         54.2615 bohr
 

     total cpu time spent up to now is      709.6 secs

     total energy              =   -7398.02841469 Ry
     estimated scf accuracy    <       0.00003273 Ry

     total magnetization       =    80.30 Bohr mag/cell
     absolute magnetization    =    81.83 Bohr mag/cell

     iteration # 53     ecut=    50.00 Ry     beta= 0.50
     Davidson diagonalization with overlap
     ethr =  3.04E-09,  avg # of iterations =  1.0

     negative rho (up, down):  1.285E-03 9.223E-04
 
     Adding external electric field

     Computed dipole along edir(3) : 
        Dipole                0.2877 Ry au,          0.7312 Debye
        Dipole field          0.0002 Ry au, 
 
        Potential amp.       -0.0193 Ry
        Total length         54.2615 bohr
 
 
     Adding external electric field

     Computed dipole along edir(3) : 
        Dipole                0.2877 Ry au,          0.7312 Debye
        Dipole field          0.0002 Ry au, 
 
        Potential amp.       -0.0193 Ry
        Total length         54.2615 bohr
 

     total cpu time spent up to now is      719.9 secs

     total energy              =   -7398.02841448 Ry
     estimated scf accuracy    <       0.00001005 Ry

     total magnetization       =    80.29 Bohr mag/cell
     absolute magnetization    =    81.82 Bohr mag/cell

     iteration # 54     ecut=    50.00 Ry     beta= 0.50
     Davidson diagonalization with overlap
     ethr =  9.32E-10,  avg # of iterations =  2.0

     negative rho (up, down):  1.223E-03 8.424E-04
 
     Adding external electric field

     Computed dipole along edir(3) : 
        Dipole                0.2870 Ry au,          0.7295 Debye
        Dipole field          0.0002 Ry au, 
 
        Potential amp.       -0.0193 Ry
        Total length         54.2615 bohr
 
 
     Adding external electric field

     Computed dipole along edir(3) : 
        Dipole                0.2870 Ry au,          0.7295 Debye
        Dipole field          0.0002 Ry au, 
 
        Potential amp.       -0.0193 Ry
        Total length         54.2615 bohr
 

     total cpu time spent up to now is      731.8 secs

     total energy              =   -7398.02841403 Ry
     estimated scf accuracy    <       0.00002344 Ry

     total magnetization       =    80.30 Bohr mag/cell
     absolute magnetization    =    81.83 Bohr mag/cell

     iteration # 55     ecut=    50.00 Ry     beta= 0.50
     Davidson diagonalization with overlap
     ethr =  9.32E-10,  avg # of iterations =  1.0

     negative rho (up, down):  1.042E-03 6.600E-04
 
     Adding external electric field

     Computed dipole along edir(3) : 
        Dipole                0.2864 Ry au,          0.7278 Debye
        Dipole field          0.0002 Ry au, 
 
        Potential amp.       -0.0192 Ry
        Total length         54.2615 bohr
 
 
     Adding external electric field

     Computed dipole along edir(3) : 
        Dipole                0.2864 Ry au,          0.7278 Debye
        Dipole field          0.0002 Ry au, 
 
        Potential amp.       -0.0192 Ry
        Total length         54.2615 bohr
 

     total cpu time spent up to now is      742.0 secs

     total energy              =   -7398.02841328 Ry
     estimated scf accuracy    <       0.00000574 Ry

     total magnetization       =    80.29 Bohr mag/cell
     absolute magnetization    =    81.82 Bohr mag/cell

     iteration # 56     ecut=    50.00 Ry     beta= 0.50
     Davidson diagonalization with overlap
     ethr =  5.32E-10,  avg # of iterations =  1.5

     negative rho (up, down):  1.010E-03 6.280E-04
 
     Adding external electric field

     Computed dipole along edir(3) : 
        Dipole                0.2856 Ry au,          0.7260 Debye
        Dipole field          0.0002 Ry au, 
 
        Potential amp.       -0.0192 Ry
        Total length         54.2615 bohr
 
 
     Adding external electric field

     Computed dipole along edir(3) : 
        Dipole                0.2856 Ry au,          0.7260 Debye
        Dipole field          0.0002 Ry au, 
 
        Potential amp.       -0.0192 Ry
        Total length         54.2615 bohr
 

     total cpu time spent up to now is      752.9 secs

     total energy              =   -7398.02841323 Ry
     estimated scf accuracy    <       0.00000292 Ry

     total magnetization       =    80.29 Bohr mag/cell
     absolute magnetization    =    81.82 Bohr mag/cell

     iteration # 57     ecut=    50.00 Ry     beta= 0.50
     Davidson diagonalization with overlap
     ethr =  2.71E-10,  avg # of iterations =  1.0

     negative rho (up, down):  9.624E-04 5.819E-04
 
     Adding external electric field

     Computed dipole along edir(3) : 
        Dipole                0.2852 Ry au,          0.7250 Debye
        Dipole field          0.0002 Ry au, 
 
        Potential amp.       -0.0191 Ry
        Total length         54.2615 bohr
 
 
     Adding external electric field

     Computed dipole along edir(3) : 
        Dipole                0.2852 Ry au,          0.7250 Debye
        Dipole field          0.0002 Ry au, 
 
        Potential amp.       -0.0191 Ry
        Total length         54.2615 bohr
 

     total cpu time spent up to now is      762.8 secs

     total energy              =   -7398.02841287 Ry
     estimated scf accuracy    <       0.00000476 Ry

     total magnetization       =    80.29 Bohr mag/cell
     absolute magnetization    =    81.82 Bohr mag/cell

     iteration # 58     ecut=    50.00 Ry     beta= 0.50
     Davidson diagonalization with overlap
     ethr =  2.71E-10,  avg # of iterations =  1.0

     negative rho (up, down):  9.357E-04 5.553E-04
 
     Adding external electric field

     Computed dipole along edir(3) : 
        Dipole                0.2848 Ry au,          0.7240 Debye
        Dipole field          0.0002 Ry au, 
 
        Potential amp.       -0.0191 Ry
        Total length         54.2615 bohr
 
 
     Adding external electric field

     Computed dipole along edir(3) : 
        Dipole                0.2848 Ry au,          0.7240 Debye
        Dipole field          0.0002 Ry au, 
 
        Potential amp.       -0.0191 Ry
        Total length         54.2615 bohr
 

     total cpu time spent up to now is      773.3 secs

     total energy              =   -7398.02841270 Ry
     estimated scf accuracy    <       0.00000132 Ry

     total magnetization       =    80.30 Bohr mag/cell
     absolute magnetization    =    81.82 Bohr mag/cell

     iteration # 59     ecut=    50.00 Ry     beta= 0.50
[...]
    -5.9492  -5.9404  -5.9200  -5.9142  -5.8995  -5.8517  -5.8174  -5.8006
    -5.7755  -5.7590  -5.7401  -5.7360  -5.7071  -5.6876  -5.6695  -5.6529
    -5.6420  -5.6094  -5.6041  -5.5920  -5.5895  -5.5690  -5.5154  -5.4820
    -5.4532  -5.4240  -5.3965  -5.3767  -5.3616  -5.3520  -5.3251  -5.2531
    -5.2224  -5.2020  -5.1875  -5.1161  -5.1068  -5.0866  -5.0347  -5.0193
    -5.0081  -4.9557  -4.9223  -4.9015  -4.8795  -4.8538  -4.8422  -4.7928
    -4.7808  -4.7398  -4.7032  -4.6785  -4.6538  -4.6262  -4.5490  -4.5336
    -4.4933  -4.4819  -4.4518  -4.4349  -4.4133  -4.3835  -4.3490  -4.3367
    -4.3160  -4.2745  -4.2167  -4.1800  -4.1362  -4.1209  -4.1063  -4.0980
    -4.0475  -4.0072  -3.9907  -3.9763  -3.9455  -3.9157  -3.8989  -3.8714
    -3.8476  -3.8435  -3.7878  -3.7851  -3.7558  -3.7206  -3.7041  -3.6911
    -3.6771  -3.6520  -3.6383  -3.6294  -3.6200  -3.6013  -3.5672  -3.5259
    -3.5059  -3.5007  -3.4826  -3.4752  -3.4675  -3.4599  -3.4300  -3.4233
    -3.4163  -3.3763  -3.3536  -3.3252  -3.3103  -3.2919  -3.2489  -3.2413
    -3.2281  -3.1986  -3.1626  -3.1622  -3.1495  -3.1290  -3.1209  -3.1086
    -3.0778  -3.0727  -3.0335  -2.9986  -2.9893  -2.9759  -2.9602  -2.9198
    -2.9014  -2.8934  -2.8809  -2.8350  -2.8246  -2.8102  -2.7881  -2.7756
    -2.7591  -2.7530  -2.7414  -2.7308  -2.7211  -2.7190  -2.7079  -2.6807
    -2.6607  -2.6433  -2.6331  -2.6255  -2.5989  -2.5837  -2.5720  -2.5476
    -2.5357  -2.5060  -2.5034  -2.4837  -2.4629  -2.4479  -2.4356  -2.4263
    -2.3925  -2.3803  -2.3686  -2.3514  -2.3239  -2.2917  -2.2805  -2.2539
    -2.2457  -2.2281  -2.1992  -2.1808  -2.1729  -2.1451  -2.1158  -2.1089
    -2.0952  -2.0696  -2.0560  -2.0424  -2.0302  -2.0128  -1.9917  -1.9623
    -1.9515  -1.9373  -1.9339  -1.9252  -1.8909  -1.8824  -1.8669  -1.8482
    -1.8236  -1.7802  -1.7750  -1.7399  -1.7310  -1.7027  -1.6864  -1.6777
    -1.6683  -1.6490  -1.6448  -1.5995  -1.5932  -1.5691  -1.5253  -1.5150
    -1.5013  -1.4938  -1.4654  -1.4424  -1.4341  -1.4164  -1.3971  -1.3856
    -1.3652  -1.3444  -1.3219  -1.2813  -1.2710  -1.2461  -1.2230  -1.1989
    -1.1536  -1.1183  -1.0706  -0.9696  -0.9521  -0.9123  -0.8665  -0.8274
    -0.8092  -0.7415  -0.6457  -0.5184  -0.3761  -0.3205  -0.3056  -0.2011
     0.1327   0.1562   0.1856   0.2234   0.2533   0.2739   0.2753   0.2986
     0.3029   0.3187   0.3393   0.3419   0.3485   0.3697   0.3722   0.3736
     0.3857   0.3886   0.4003   0.4064   0.4194   0.4281   0.4314   0.4412
     0.4463   0.4526   0.4593   0.4611   0.4710   0.4743   0.4810   0.4863
     0.5043   0.5075   0.5124   0.5163   0.5220   0.5245   0.5358   0.5421
     0.5585   0.5602   0.5680   0.5707   0.5789   0.5851   0.5986   0.6045
     0.6077   0.6149   0.6219   0.6267   0.6307   0.6454   0.6595   0.6690
     0.6721   0.6794   0.6887   0.6926   0.6949   0.7056   0.7103   0.7225
     0.7339   0.7417   0.7433   0.7470   0.7573   0.7634   0.7636   0.7704
     0.7763   0.7822   0.8129   0.8185   0.8259   0.8348   0.8478   0.8551
     0.8576   0.8738   0.8780   0.8830   0.8993   0.9031   0.9093   0.9205
     0.9261   0.9333   0.9575   0.9591   0.9913   0.9991   1.0149   1.0289
     1.1386   1.1726   1.6086   1.6955   1.7006   1.7300   1.7333   1.7508
     1.7629   1.8584   1.8837   1.9027   1.9196   1.9643   1.9696   1.9900
     2.0010   2.0237   2.0428   2.0633   2.0749   2.0771   2.0965   2.1348
     2.1589   2.1744   2.1837   2.2126   2.2202   2.2555   2.2586   2.2648
     2.2788   2.2869   2.3089   2.3186   2.3275   2.3366   2.3512   2.3582
     2.3732   2.3854   2.3942   2.3969   2.4129   2.4278   2.4474   2.4878
     2.4931   2.5101   2.5177   2.5327   2.5453   2.5499   2.5705   2.5934
     2.6015   2.6113   2.6462   2.6645   2.7035   2.7314   2.7491   2.8109
     2.8291   2.8634   2.8810   2.9266   2.9296   3.3746   3.4032   3.6112
     3.6668   3.8031   3.8654   3.9478   4.0107   4.0302   4.0943   4.6093
     4.6702   4.7785   4.9016   4.9362   4.9620   5.0553   5.4404   6.3424
     6.3675   6.5169   6.6104   6.7305   6.8141   6.8506   6.9035   6.9413
     7.0524   7.0952   7.1358   7.1558   7.3439   7.3944   7.4103   7.4418
     7.5270   7.5872   7.6241   7.7098   7.7508   7.7568   7.8234   7.8523
     7.8907   7.9502   7.9685   8.0030   8.0238   8.0559   8.0826   8.1200
     8.1459   8.1782   8.1908   8.2350   8.2552   8.2807   8.3144   8.3455
     8.3687   8.4075   8.4318   8.4896   8.4934   8.5052   8.5273   8.5427
     8.5561   8.5720   8.5956   8.6088   8.6497   8.6703   8.6791   8.6903
     8.7265   8.7418   8.8070   8.8097   8.8574   8.8739   8.9125

     the Fermi energy is     1.5852 ev

!    total energy              =   -7398.02841195 Ry
     estimated scf accuracy    <       0.00000079 Ry
     smearing contrib. (-TS)   =      -0.01555895 Ry
     internal energy E=F+TS    =   -7398.01285300 Ry

     The total energy is F=E-TS. E is the sum of the following terms:
     one-electron contribution =  -91617.72230347 Ry
     hartree contribution      =   46457.25601886 Ry
     xc contribution           =   -2260.27828327 Ry
     ewald contribution        =   40024.56384542 Ry
     Dispersion Correction     =      -1.83218725 Ry
     electric field correction =       0.00005671 Ry

     total magnetization       =    80.30 Bohr mag/cell
     absolute magnetization    =    81.82 Bohr mag/cell

     convergence has been achieved in  60 iterations

     negative rho (up, down):  9.300E-04 5.484E-04

     Forces acting on atoms (cartesian axes, Ry/au):

     atom    1 type  2   force =     0.00018259   -0.00015793   -0.00018098
     atom    2 type  1   force =    -0.00029196    0.00020148    0.00007059
     atom    3 type  1   force =    -0.00001955   -0.00064862   -0.00042097
     atom    4 type  1   force =    -0.00019017    0.00034891    0.00031366
     atom    5 type  1   force =    -0.00004281    0.00021158    0.00011264
     atom    6 type  1   force =    -0.00009735   -0.00003142    0.00006385
     atom    7 type  1   force =    -0.00011093    0.00038426   -0.00014532
     atom    8 type  1   force =    -0.00002932   -0.00033242    0.00044760
     atom    9 type  1   force =    -0.00032707    0.00063197   -0.00031544
     atom   10 type  1   force =    -0.00008410   -0.00002650   -0.00018405
     atom   11 type  1   force =    -0.00035382   -0.00061803    0.00006154
     atom   12 type  1   force =     0.00042717    0.00040280   -0.00042002
     atom   13 type  3   force =    -0.00010814    0.00015431   -0.00004000
     atom   14 type  3   force =    -0.00018573    0.00012618   -0.00005066
     atom   15 type  3   force =     0.00012809    0.00002018   -0.00017849
     atom   16 type  3   force =     0.00076407    0.00008727   -0.00007393
     atom   17 type  4   force =     0.00013572   -0.00012529   -0.00023177
     atom   18 type  4   force =     0.00028947    0.00002166   -0.00028745
     atom   19 type  4   force =    -0.00033548    0.00017760    0.00043144
     atom   20 type  4   force =    -0.00023120    0.00017702    0.00015807
     atom   21 type  4   force =     0.00000817    0.00042335    0.00004513
     atom   22 type  4   force =    -0.00000917   -0.00040345   -0.00055091
     atom   23 type  4   force =    -0.00006682    0.00048002   -0.00051674
     atom   24 type  4   force =     0.00030305    0.00016391    0.00033065
     atom   25 type  4   force =     0.00006096   -0.00033293   -0.00004407
     atom   26 type  4   force =    -0.00029422    0.00035386   -0.00003028
     atom   27 type  4   force =     0.00048423   -0.00005596   -0.00014654
     atom   28 type  4   force =     0.00010609    0.00014378    0.00012182
     atom   29 type  4   force =    -0.00034752   -0.00016143    0.00022431
     atom   30 type  4   force =    -0.00006817   -0.00015841   -0.00043832
     atom   31 type  4   force =     0.00003500    0.00001673   -0.00016285
     atom   32 type  4   force =    -0.00027315    0.00039858    0.00016390
     atom   33 type  3   force =    -0.00007615    0.00004643   -0.00033532
     atom   34 type  3   force =     0.00041595   -0.00010710   -0.00048428
     atom   35 type  3   force =     0.00026388    0.00007607   -0.00044735
     atom   36 type  3   force =    -0.00061330    0.00007343    0.00002176
     atom   37 type  4   force =     0.00016501    0.00000280   -0.00011731
     atom   38 type  4   force =     0.00008622    0.00045744    0.00009103
     atom   39 type  4   force =    -0.00024888   -0.00008130    0.00104973
     atom   40 type  4   force =     0.00029536    0.00008952   -0.00028706
     atom   41 type  4   force =    -0.00024428    0.00005413   -0.00003346
     atom   42 type  4   force =    -0.00043301   -0.00038290   -0.00081221
     atom   43 type  4   force =    -0.00047213   -0.00038005   -0.00047011
     atom   44 type  4   force =     0.00009886    0.00020424   -0.00026362
     atom   45 type  4   force =     0.00010552   -0.00013689   -0.00035186
     atom   46 type  4   force =    -0.00004173   -0.00034534   -0.00042989
     atom   47 type  4   force =    -0.00000205    0.00015997   -0.00005044
     atom   48 type  4   force =     0.00058423    0.00026863   -0.00001898
     atom   49 type  4   force =    -0.00022689    0.00034930    0.00002511
     atom   50 type  4   force =     0.00032809   -0.00006743   -0.00005005
     atom   51 type  4   force =     0.00007968   -0.00014177    0.00016288
     atom   52 type  4   force =    -0.00026336   -0.00002175   -0.00006430
     atom   53 type  2   force =     0.00242707   -0.00378226    0.00639508
     atom   54 type  1   force =     0.00505913   -0.00222387    0.00419392
     atom   55 type  1   force =     0.00756131   -0.00390950    0.00235863
     atom   56 type  1   force =    -0.00196127    0.01030198    0.00634540
     atom   57 type  1   force =    -0.00010518    0.02314056    0.01515622
     atom   58 type  1   force =     0.00207498   -0.00329861   -0.00138442
     atom   59 type  1   force =     0.00046522   -0.00714305    0.00438820
     atom   60 type  1   force =    -0.00522213   -0.00198986    0.00510779
     atom   61 type  1   force =    -0.00189762   -0.00159528    0.00362028
     atom   62 type  1   force =    -0.00430500    0.00827586    0.00637256
     atom   63 type  1   force =    -0.01105613    0.02592219    0.01890222
     atom   64 type  1   force =    -0.00197203    0.00118119    0.00164081
     atom   65 type  3   force =     0.04624265   -0.11371905   -0.01074305
     atom   66 type  3   force =    -0.00035308   -0.00161407    0.00355032
     atom   67 type  3   force =    -0.03981230    0.12605864    0.01442411
     atom   68 type  3   force =     0.06271804   -0.00164271   -0.00327093
     atom   69 type  4   force =     0.01392097   -0.01841038    0.00386295
     atom   70 type  4   force =    -0.00103983    0.00282903   -0.00131464
     atom   71 type  4   force =    -0.00154526    0.00334023   -0.00551305
     atom   72 type  4   force =     0.00405543    0.00186655   -0.00083357
     atom   73 type  4   force =     0.00091891   -0.01157347    0.00257685
     atom   74 type  4   force =     0.00122756   -0.00020154   -0.00074647
     atom   75 type  4   force =     0.00058688    0.01354746    0.00505562
     atom   76 type  4   force =     0.00838240    0.00516717    0.00908059
     atom   77 type  4   force =     0.00711473   -0.00260969    0.00152677
     atom   78 type  4   force =     0.04435926   -0.14240952   -0.00539674
     atom   79 type  4   force =     0.00175523    0.00191621    0.00139425
     atom   80 type  4   force =     0.00032465    0.00230096   -0.00167145
     atom   81 type  4   force =     0.06785648    0.00089441   -0.00660956
     atom   82 type  4   force =     0.00035652    0.00090176   -0.00118321
     atom   83 type  4   force =    -0.03916427    0.13484721    0.00263649
     atom   84 type  4   force =    -0.00295153   -0.01099573   -0.00412086
     atom   85 type  3   force =     0.04006259   -0.12014814   -0.01815689
     atom   86 type  3   force =    -0.06379010   -0.00050167    0.00762965
     atom   87 type  3   force =    -0.04507142    0.12374981    0.01936556
     atom   88 type  3   force =    -0.00165656    0.00017358    0.00264757
     atom   89 type  4   force =     0.00901785   -0.01532122    0.00397974
     atom   90 type  4   force =    -0.00464413    0.00117621   -0.00003847
     atom   91 type  4   force =    -0.00885071    0.00838332   -0.00643864
     atom   92 type  4   force =     0.00001948    0.00016286   -0.00071264
     atom   93 type  4   force =    -0.00177343   -0.00839264    0.00725195
     atom   94 type  4   force =    -0.00404249    0.00091675   -0.00081190
     atom   95 type  4   force =    -0.00526597    0.01345380    0.00737991
     atom   96 type  4   force =     0.00418482    0.00511366    0.00947654
     atom   97 type  4   force =    -0.00000702    0.00036953    0.00063047
     atom   98 type  4   force =     0.04030709   -0.14095946   -0.00543804
     atom   99 type  4   force =    -0.06669610    0.00001037    0.00631436
     atom  100 type  4   force =    -0.00197356    0.00353883   -0.00255823
     atom  101 type  4   force =    -0.00002193    0.00081165   -0.00089632
     atom  102 type  4   force =    -0.00612440    0.00440558   -0.00140400
     atom  103 type  4   force =    -0.04031961    0.13349481    0.00426985
     atom  104 type  4   force =    -0.00697640   -0.00988735   -0.00528483
     atom  105 type  2   force =     0.00415158   -0.00654255   -0.01762884
     atom  106 type  1   force =     0.02822947    0.01429924    0.01174122
     atom  107 type  1   force =     0.00873548   -0.00611722   -0.01370642
     atom  108 type  1   force =    -0.02843851    0.02170594    0.01879187
     atom  109 type  1   force =     0.00505331    0.01618086    0.00961239
     atom  110 type  1   force =    -0.00253605   -0.00883944   -0.00662447
     atom  111 type  1   force =    -0.00086607   -0.00948219   -0.01115829
     atom  112 type  1   force =     0.02921108    0.01753594    0.01143448
     atom  113 type  1   force =    -0.00070182   -0.00497771   -0.01354241
     atom  114 type  1   force =    -0.02968246    0.02076189    0.01859770
     atom  115 type  1   force =    -0.00719253    0.01857060    0.01231951
     atom  116 type  1   force =    -0.00555250   -0.00434971   -0.00276423
     atom  117 type  3   force =     0.01424929   -0.17388101   -0.10888972
     atom  118 type  3   force =     0.00517842   -0.00849619   -0.01254305
     atom  119 type  3   force =    -0.04466265    0.12498108   -0.00182175
     atom  120 type  3   force =     0.09506955   -0.04105622   -0.07978963
     atom  121 type  4   force =     0.00604285   -0.01720771    0.03734493
     atom  122 type  4   force =    -0.00360669    0.00384556    0.00424168
     atom  123 type  4   force =    -0.00078044    0.00265844   -0.00308483
     atom  124 type  4   force =     0.00859171    0.00207499    0.02703737
     atom  125 type  4   force =     0.00980107   -0.01702962    0.01558800
     atom  126 type  4   force =    -0.00760040    0.00104691   -0.00312474
     atom  127 type  4   force =     0.00403714    0.00970900    0.00045004
     atom  128 type  4   force =    -0.00052694   -0.00123466    0.02982662
     atom  129 type  4   force =    -0.00754104    0.02572363    0.00109906
     atom  130 type  4   force =     0.04351299   -0.14616049   -0.00193013
     atom  131 type  4   force =    -0.01765024   -0.00038793    0.00278895
     atom  132 type  4   force =     0.00321238    0.00264067    0.00196637
     atom  133 type  4   force =     0.06996412    0.00367628   -0.00194480
     atom  134 type  4   force =     0.00085972    0.00349704    0.00269037
     atom  135 type  4   force =    -0.02766374    0.17248436    0.00595980
     atom  136 type  4   force =     0.01981692   -0.00861829    0.00392590
     atom  137 type  3   force =     0.00909212   -0.16686000   -0.09430894
     atom  138 type  3   force =    -0.06469801   -0.00205396   -0.00487263
     atom  139 type  3   force =    -0.04871435    0.11825207    0.00159898
     atom  140 type  3   force =     0.03146203   -0.04325852   -0.07375522
     atom  141 type  4   force =     0.00457839   -0.01340340    0.03219983
     atom  142 type  4   force =    -0.00551356   -0.00023855    0.00407703
     atom  143 type  4   force =    -0.00809521    0.00820493   -0.00373892
     atom  144 type  4   force =     0.00392141    0.00128627    0.02766046
     atom  145 type  4   force =     0.00682046   -0.01314539    0.03196822
     atom  146 type  4   force =    -0.00879251   -0.00174378   -0.00305224
     atom  147 type  4   force =     0.00038354    0.00992612    0.00264196
     atom  148 type  4   force =    -0.00784055    0.00107905    0.02871255
     atom  149 type  4   force =    -0.01304304    0.02965445    0.00041000
     atom  150 type  4   force =     0.03990753   -0.13849693   -0.00141914
     atom  151 type  4   force =    -0.08641087   -0.00172253    0.00908578
     atom  152 type  4   force =     0.00101357    0.00387987    0.00139470
     atom  153 type  4   force =    -0.00333782    0.00082815    0.00293670
     atom  154 type  4   force =    -0.00597370    0.00583409    0.00128592
     atom  155 type  4   force =    -0.02810835    0.16669081    0.00473494
     atom  156 type  4   force =     0.01080496   -0.00971697   -0.00145610
     atom  157 type  4   force =    -0.00326440   -0.00256782    0.00196427
     atom  158 type  5   force =     0.00343462    0.00264698   -0.00319852

     Total force =     0.671445     Total SCF correction =     0.004325
 
     init_run     :      7.32s CPU      8.24s WALL (       1 calls)
     electrons    :    729.44s CPU    783.96s WALL (       1 calls)
     forces       :      3.53s CPU      3.95s WALL (       1 calls)
     force_london :      0.10s CPU      0.10s WALL (       1 calls)

     Called by init_run:
     wfcinit      :      4.18s CPU      4.45s WALL (       1 calls)
     potinit      :      0.56s CPU      0.77s WALL (       1 calls)
     hinit0       :      1.14s CPU      1.28s WALL (       1 calls)

     Called by electrons:
     c_bands      :    582.24s CPU    604.89s WALL (      60 calls)
     sum_band     :     95.85s CPU    106.91s WALL (      60 calls)
     v_of_rho     :     10.91s CPU     11.82s WALL (      61 calls)
     newd         :     28.20s CPU     37.25s WALL (      61 calls)
     mix_rho      :     12.14s CPU     12.24s WALL (      60 calls)
     energy_londo :      0.08s CPU      0.08s WALL (       1 calls)

     Called by c_bands:
     init_us_2    :      1.83s CPU      1.88s WALL (     244 calls)
     init_us_2:cp :      1.83s CPU      1.88s WALL (     244 calls)
     regterg      :    569.21s CPU    591.62s WALL (     120 calls)

     Called by *egterg:
     rdiaghg      :    180.36s CPU    190.59s WALL (     528 calls)
     h_psi        :    215.37s CPU    221.02s WALL (     530 calls)
     s_psi        :     44.87s CPU     44.89s WALL (     530 calls)
     g_psi        :      0.34s CPU      0.34s WALL (     408 calls)

     Called by h_psi:
     h_psi:calbec :     56.28s CPU     60.91s WALL (     530 calls)
     vloc_psi     :    113.51s CPU    114.02s WALL (     530 calls)
     add_vuspsi   :     45.04s CPU     45.54s WALL (     530 calls)

     General routines
     calbec       :     83.21s CPU     90.21s WALL (     658 calls)
     fft          :     12.02s CPU     13.13s WALL (    1111 calls)
     ffts         :      7.73s CPU      7.76s WALL (    6455 calls)
     fftw         :    127.94s CPU    128.48s WALL (  203754 calls)
     interpolate  :      0.86s CPU      0.92s WALL (     122 calls)
 
     Parallel routines
 
     PWSCF        :  12m22.24s CPU  13m18.39s WALL

 
   This run was terminated on:   3:10:52  20Nov2025            

=------------------------------------------------------------------------------=
   JOB DONE.
=------------------------------------------------------------------------------=
