
     Program PWSCF v.7.2 starts on 20Nov2025 at  2:22:37 

     This program is part of the open-source Quantum ESPRESSO suite
     for quantum simulation of materials; please cite
         "P. Giannozzi et al., J. Phys.:Condens. Matter 21 395502 (2009);
         "P. Giannozzi et al., J. Phys.:Condens. Matter 29 465901 (2017);
         "P. Giannozzi et al., J. Chem. Phys. 152 154105 (2020);
          URL http://www.quantum-espresso.org", 
     in publications or presentations arising from this work. More details at
     http://www.quantum-espresso.org/quote

     Parallel version (MPI), running on    64 processors

     MPI processes distributed on     4 nodes
     386306 MiB available memory on the printing compute node when the environment starts
 
     Reading input from PWINPUT_atm158_yp

     Current dimensions of program PWSCF are:
     Max number of different atomic species (ntypx) = 10
     Max number of k-points (npk) =  40000
     Max angular momentum in pseudopotentials (lmaxx) =  4
     Presently no symmetry can be used with electric field

     file Ni.pbe-n-rrkjus_psl.1.0.0.UPF: wavefunction(s)  3D renormalized
     file Mn.pbe-spn-rrkjus_psl.0.3.1.UPF: wavefunction(s)  3D renormalized
     file O.pbe-rrkjus.UPF: wavefunction(s)  2S renormalized
     file H.pbe-rrkjus.UPF: wavefunction(s)  1S renormalized

     gamma-point specific algorithms are used
 
     R & G space division:  proc/nbgrp/npool/nimage =      64
     Subspace diagonalization in iterative solution of the eigenvalue problem:
     one sub-group per band group will be used
     custom distributed-memory algorithm (size of sub-group:  6*  6 procs)

 
     Parallelization info
     --------------------
     sticks:   dense  smooth     PW     G-vecs:    dense   smooth      PW
     Min         208      82     20                59912    15118    1876
     Max         210      84     22                59974    15196    1926
     Sum       13399    5355   1345              3836275   970529  121367
 
     Using Slab Decomposition
 


     bravais-lattice index     =            0
     lattice parameter (alat)  =      17.7004  a.u.
     unit-cell volume          =   20319.7251 (a.u.)^3
     number of atoms/cell      =          158
     number of atomic types    =            5
     number of electrons       =      1078.00
     number of Kohn-Sham states=          647
     kinetic-energy cutoff     =      50.0000  Ry
     charge density cutoff     =     500.0000  Ry
     scf convergence threshold =      1.0E-06
     mixing beta               =       0.5000
     number of iterations used =            8  local-TF  mixing
     Exchange-correlation=  SLA  PW   PBE  PBE
                           (   1   4   3   4   0   0   0)

     celldm(1)=  17.700384  celldm(2)=   0.000000  celldm(3)=   0.000000
     celldm(4)=   0.000000  celldm(5)=   0.000000  celldm(6)=   0.000000

     crystal axes: (cart. coord. in units of alat)
               a(1) = (   1.000000   0.000000   0.000000 )  
               a(2) = (   0.000000   1.075730   0.000000 )  
               a(3) = (   0.000000   0.000000   3.406172 )  

     reciprocal axes: (cart. coord. in units 2 pi/alat)
               b(1) = (  1.000000  0.000000  0.000000 )  
               b(2) = (  0.000000  0.929602  0.000000 )  
               b(3) = (  0.000000  0.000000  0.293585 )  


     PseudoPot. # 1 for Ni read from file:
     ~/PSEUDO/Ni.pbe-n-rrkjus_psl.1.0.0.UPF
     MD5 check sum: Not computed, couldn't open file
     Pseudo is Ultrasoft + core correction, Zval = 10.0
     Generated using "atomic" code by A. Dal Corso  v.5.1.2
     Using radial grid of 1195 points,  6 beta functions with: 
                l(1) =   0
                l(2) =   0
                l(3) =   1
                l(4) =   1
                l(5) =   2
                l(6) =   2
     Q(r) pseudized with 0 coefficients 


     PseudoPot. # 2 for Mn read from file:
     ~/PSEUDO/Mn.pbe-spn-rrkjus_psl.0.3.1.UPF
     MD5 check sum: Not computed, couldn't open file
     Pseudo is Ultrasoft + core correction, Zval = 15.0
     Generated using &quot;atomic&quot; code by A. Dal Corso  v.6.2.2
     Using radial grid of 1187 points,  6 beta functions with: 
                l(1) =   0
                l(2) =   0
                l(3) =   1
                l(4) =   1
                l(5) =   2
                l(6) =   2
     Q(r) pseudized with 0 coefficients 


     PseudoPot. # 3 for P  read from file:
     ~/PSEUDO/P.pbe-n-rrkjus_psl.1.0.0.UPF
     MD5 check sum: Not computed, couldn't open file
     Pseudo is Ultrasoft + core correction, Zval =  5.0
     Generated using "atomic" code by A. Dal Corso  v.5.1
     Using radial grid of 1147 points,  6 beta functions with: 
                l(1) =   0
                l(2) =   0
                l(3) =   1
                l(4) =   1
                l(5) =   2
                l(6) =   2
     Q(r) pseudized with 0 coefficients 


     PseudoPot. # 4 for O  read from file:
     ~/PSEUDO/O.pbe-rrkjus.UPF
     MD5 check sum: Not computed, couldn't open file
     Pseudo is Ultrasoft, Zval =  6.0
     Generated by new atomic code, or converted to UPF format
     Using radial grid of 1269 points,  4 beta functions with: 
                l(1) =   0
                l(2) =   0
                l(3) =   1
                l(4) =   1
     Q(r) pseudized with 0 coefficients 


     PseudoPot. # 5 for H  read from file:
     ~/PSEUDO/H.pbe-rrkjus.UPF
     MD5 check sum: Not computed, couldn't open file
     Pseudo is Ultrasoft, Zval =  1.0
     Generated by new atomic code, or converted to UPF format
     Using radial grid of 1061 points,  2 beta functions with: 
                l(1) =   0
                l(2) =   0
     Q(r) pseudized with 0 coefficients 


     atomic species   valence    mass     pseudopotential
     Ni               10.00    58.69300     Ni( 1.00)
     Mn               15.00    54.93800     Mn( 1.00)
     P                 5.00    30.97300     P ( 1.00)
     O                 6.00    15.99900     O ( 1.00)
     H                 1.00     1.00790     H ( 1.00)

     Starting magnetic structure 
     atomic species   magnetization
     Ni              1.000
     Mn              1.000
     P               1.000
     O               1.000
     H               0.000

     No symmetry found



   Cartesian axes

     site n.     atom                  positions (alat units)
         1        Mn     tau(   1) = (   0.2487148   0.8375267   1.6951957  )
         2        Ni     tau(   2) = (   0.4985680   0.7741854   1.3708613  )
         3        Ni     tau(   3) = (  -0.0011545   0.3006174   1.6748188  )
         4        Ni     tau(   4) = (   0.2613034   0.2387656   1.3682654  )
         5        Ni     tau(   5) = (   0.9963341   1.0779630   1.5338071  )
         6        Ni     tau(   6) = (   0.2553410   0.5376272   1.5302552  )
         7        Ni     tau(   7) = (   0.7421076   0.8435707   1.7073254  )
         8        Ni     tau(   8) = (   0.9925505   0.7752294   1.3710528  )
         9        Ni     tau(   9) = (   0.5021333   0.2954136   1.6750756  )
        10        Ni     tau(  10) = (   0.7611689   0.2373559   1.3675061  )
        11        Ni     tau(  11) = (   0.5009702   1.0742604   1.5366496  )
        12        Ni     tau(  12) = (   0.7544547   0.5384375   1.5322894  )
        13        P      tau(  13) = (   0.2115511   0.9728651   1.3803029  )
        14        P      tau(  14) = (   0.4665848   0.6401311   1.6901980  )
        15        P      tau(  15) = (   0.2857882   0.1150193   1.6956783  )
        16        P      tau(  16) = (   0.0437806   0.4336934   1.3698950  )
        17        O      tau(  17) = (   0.1341895   0.9017796   1.5160649  )
        18        O      tau(  18) = (   0.3918354   0.7064542   1.5480543  )
        19        O      tau(  19) = (   0.3659047   0.1699051   1.5489901  )
        20        O      tau(  20) = (   0.1220478   0.3634760   1.5065536  )
        21        O      tau(  21) = (   0.1491769   0.8830546   1.2562069  )
        22        O      tau(  22) = (   0.4014483   0.7325987   1.8096174  )
        23        O      tau(  23) = (   0.3477141   0.2121598   1.8095684  )
        24        O      tau(  24) = (   0.1043448   0.3449385   1.2442231  )
        25        O      tau(  25) = (   0.1038610   0.5888479   1.3734716  )
        26        O      tau(  26) = (   0.3384087   1.0313531   1.6992469  )
        27        O      tau(  27) = (   0.3808703   0.4260931   1.3818057  )
        28        O      tau(  28) = (   0.1211112   0.1186251   1.6801879  )
        29        O      tau(  29) = (   0.1290557   0.6512937   1.6784404  )
        30        O      tau(  30) = (   0.4077914   0.4842311   1.6878311  )
        31        O      tau(  31) = (   0.1525182   0.0517135   1.3798448  )
        32        O      tau(  32) = (   0.3752655   0.9631458   1.3897289  )
        33        P      tau(  33) = (   0.7115935   0.9699435   1.3754512  )
        34        P      tau(  34) = (   0.9627941   0.6488001   1.6882550  )
        35        P      tau(  35) = (   0.7877941   0.1135143   1.6933997  )
        36        P      tau(  36) = (   0.5450057   0.4319961   1.3698026  )
        37        O      tau(  37) = (   0.6347424   0.8975550   1.5107968  )
        38        O      tau(  38) = (   0.8874360   0.7086109   1.5448689  )
        39        O      tau(  39) = (   0.8663690   0.1747348   1.5464995  )
        40        O      tau(  40) = (   0.6223636   0.3611942   1.5061123  )
        41        O      tau(  41) = (   0.6513775   0.8826145   1.2479475  )
        42        O      tau(  42) = (   0.9079471   0.7471932   1.8059270  )
        43        O      tau(  43) = (   0.8460393   0.2141480   1.8067812  )
        44        O      tau(  44) = (   0.6057326   0.3434800   1.2439494  )
        45        O      tau(  45) = (   0.6051788   0.5869386   1.3743458  )
        46        O      tau(  46) = (   0.8485507   1.0338148   1.6901252  )
        47        O      tau(  47) = (   0.8800306   0.4271144   1.3821281  )
        48        O      tau(  48) = (   0.6230808   0.1160198   1.6767091  )
        49        O      tau(  49) = (   0.6309458   0.6452848   1.6833570  )
        50        O      tau(  50) = (   0.9073287   0.4911282   1.6902526  )
        51        O      tau(  51) = (   0.6516592   0.0493454   1.3784195  )
        52        O      tau(  52) = (   0.8758524   0.9648084   1.3850114  )
        53        Mn     tau(  53) = (   0.2404744   0.8246335   1.0701417  )
        54        Ni     tau(  54) = (   0.4968126   0.7601755   0.7454373  )
        55        Ni     tau(  55) = (   0.0066150   0.2811828   1.0628866  )
        56        Ni     tau(  56) = (   0.2585722   0.2230943   0.7421070  )
        57        Ni     tau(  57) = (   0.9987350   1.0571496   0.9014992  )
        58        Ni     tau(  58) = (   0.2517397   0.5205596   0.9040596  )
        59        Ni     tau(  59) = (   0.7451645   0.8212628   1.0648168  )
        60        Ni     tau(  60) = (   0.9939181   0.7613889   0.7462324  )
        61        Ni     tau(  61) = (   0.5111533   0.2799173   1.0618053  )
        62        Ni     tau(  62) = (   0.7606326   0.2194352   0.7418547  )
        63        Ni     tau(  63) = (   0.5024065   1.0563218   0.8999416  )
        64        Ni     tau(  64) = (   0.7529977   0.5192985   0.9024691  )
        65        P      tau(  65) = (   0.2092944   0.9606182   0.7524883  )
        66        P      tau(  66) = (   0.4655727   0.6234620   1.0595283  )
        67        P      tau(  67) = (   0.2910699   0.0902448   1.0573821  )
        68        P      tau(  68) = (   0.0396216   0.4163480   0.7471080  )
        69        O      tau(  69) = (   0.1294378   0.8888345   0.8859300  )
        70        O      tau(  70) = (   0.3874505   0.6929859   0.9232915  )
        71        O      tau(  71) = (   0.3702540   0.1589885   0.9209891  )
        72        O      tau(  72) = (   0.1184398   0.3458043   0.8831565  )
        73        O      tau(  73) = (   0.1451572   0.8725966   0.6282341  )
        74        O      tau(  74) = (   0.4048762   0.7120670   1.1852426  )
        75        O      tau(  75) = (   0.3523506   0.1775664   1.1834175  )
        76        O      tau(  76) = (   0.1017610   0.3285569   0.6213347  )
        77        O      tau(  77) = (   0.0975396   0.5724373   0.7511996  )
        78        O      tau(  78) = (   0.3483552   1.0190030   1.0599597  )
        79        O      tau(  79) = (   0.3784305   0.4100203   0.7560991  )
        80        O      tau(  80) = (   0.1268237   0.0943029   1.0477175  )
        81        O      tau(  81) = (   0.1212267   0.6299255   1.0507023  )
        82        O      tau(  82) = (   0.4053315   0.4684472   1.0569297  )
        83        O      tau(  83) = (   0.1536621   0.0322003   0.7496532  )
        84        O      tau(  84) = (   0.3732349   0.9506802   0.7613277  )
        85        P      tau(  85) = (   0.7119823   0.9571059   0.7496908  )
        86        P      tau(  86) = (   0.9615208   0.6238477   1.0606987  )
        87        P      tau(  87) = (   0.7927710   0.0845145   1.0577754  )
        88        P      tau(  88) = (   0.5426404   0.4144760   0.7459181  )
        89        O      tau(  89) = (   0.6326879   0.8866267   0.8856678  )
        90        O      tau(  90) = (   0.8842163   0.6958291   0.9244764  )
        91        O      tau(  91) = (   0.8716178   0.1552836   0.9216415  )
        92        O      tau(  92) = (   0.6212010   0.3433751   0.8818834  )
        93        O      tau(  93) = (   0.6507714   0.8687427   0.6238197  )
        94        O      tau(  94) = (   0.9014054   0.7139543   1.1859242  )
        95        O      tau(  95) = (   0.8548963   0.1722994   1.1834447  )
        96        O      tau(  96) = (   0.6044469   0.3253792   0.6209553  )
        97        O      tau(  97) = (   0.6024424   0.5698225   0.7490903  )
        98        O      tau(  98) = (   0.8498940   1.0129567   1.0594762  )
        99        O      tau(  99) = (   0.8798395   0.4080910   0.7564148  )
       100        O      tau( 100) = (   0.6286921   0.0909721   1.0472573  )
       101        O      tau( 101) = (   0.6294973   0.6302838   1.0497366  )
       102        O      tau( 102) = (   0.9024339   0.4685397   1.0573501  )
       103        O      tau( 103) = (   0.6547812   0.0286072   0.7473283  )
       104        O      tau( 104) = (   0.8760507   0.9507690   0.7605412  )
       105        Mn     tau( 105) = (   0.2404744   0.8121420   0.4502541  )
       106        Ni     tau( 106) = (   0.4968126   0.7476840   0.1255496  )
       107        Ni     tau( 107) = (   0.0066150   0.2686914   0.4429989  )
       108        Ni     tau( 108) = (   0.2585722   0.2106028   0.1222194  )
       109        Ni     tau( 109) = (   0.9987350   1.0446581   0.2816116  )
       110        Ni     tau( 110) = (   0.2517397   0.5080681   0.2841720  )
       111        Ni     tau( 111) = (   0.7451645   0.8087713   0.4449291  )
       112        Ni     tau( 112) = (   0.9939181   0.7488974   0.1263448  )
       113        Ni     tau( 113) = (   0.5111533   0.2674258   0.4419177  )
       114        Ni     tau( 114) = (   0.7606326   0.2069438   0.1219670  )
       115        Ni     tau( 115) = (   0.5024065   1.0438304   0.2800540  )
       116        Ni     tau( 116) = (   0.7529977   0.5068070   0.2825815  )
       117        P      tau( 117) = (   0.2092944   0.9481267   0.1326007  )
       118        P      tau( 118) = (   0.4655727   0.6109705   0.4396407  )
       119        P      tau( 119) = (   0.2910699   0.0777534   0.4374945  )
       120        P      tau( 120) = (   0.0396216   0.4038566   0.1272204  )
       121        O      tau( 121) = (   0.1294378   0.8763430   0.2660424  )
       122        O      tau( 122) = (   0.3874505   0.6804944   0.3034039  )
       123        O      tau( 123) = (   0.3702540   0.1464970   0.3011014  )
       124        O      tau( 124) = (   0.1184398   0.3333129   0.2632689  )
       125        O      tau( 125) = (   0.1451572   0.8601051   0.0083464  )
       126        O      tau( 126) = (   0.4048762   0.6995756   0.5653550  )
       127        O      tau( 127) = (   0.3523506   0.1650749   0.5635298  )
       128        O      tau( 128) = (   0.1017610   0.3160655   0.0014470  )
       129        O      tau( 129) = (   0.0975396   0.5599458   0.1313120  )
       130        O      tau( 130) = (   0.3483552   1.0065115   0.4400720  )
       131        O      tau( 131) = (   0.3784305   0.3975288   0.1362114  )
       132        O      tau( 132) = (   0.1268237   0.0818115   0.4278298  )
       133        O      tau( 133) = (   0.1212267   0.6174340   0.4308146  )
       134        O      tau( 134) = (   0.4053315   0.4559557   0.4370420  )
       135        O      tau( 135) = (   0.1536621   0.0197088   0.1297656  )
       136        O      tau( 136) = (   0.3732349   0.9381887   0.1414400  )
       137        P      tau( 137) = (   0.7119823   0.9446144   0.1298032  )
       138        P      tau( 138) = (   0.9615208   0.6113562   0.4408111  )
       139        P      tau( 139) = (   0.7927710   0.0720230   0.4378878  )
       140        P      tau( 140) = (   0.5426404   0.4019845   0.1260304  )
       141        O      tau( 141) = (   0.6326879   0.8741353   0.2657802  )
       142        O      tau( 142) = (   0.8842163   0.6833376   0.3045887  )
       143        O      tau( 143) = (   0.8716178   0.1427921   0.3017538  )
       144        O      tau( 144) = (   0.6212010   0.3308836   0.2619957  )
       145        O      tau( 145) = (   0.6507714   0.8562512   0.0039320  )
       146        O      tau( 146) = (   0.9014054   0.7014628   0.5660366  )
       147        O      tau( 147) = (   0.8548963   0.1598079   0.5635571  )
       148        O      tau( 148) = (   0.6044469   0.3128877   0.0010676  )
       149        O      tau( 149) = (   0.6024424   0.5573310   0.1292027  )
       150        O      tau( 150) = (   0.8498940   1.0004653   0.4395886  )
       151        O      tau( 151) = (   0.8798395   0.3955995   0.1365272  )
       152        O      tau( 152) = (   0.6286921   0.0784807   0.4273696  )
       153        O      tau( 153) = (   0.6294973   0.6177923   0.4298489  )
       154        O      tau( 154) = (   0.9024339   0.4560482   0.4374624  )
       155        O      tau( 155) = (   0.6547812   0.0161158   0.1274406  )
       156        O      tau( 156) = (   0.8760507   0.9382775   0.1406535  )
       157        O      tau( 157) = (   0.6290941   0.9242713   1.8436369  )
       158        H      tau( 158) = (   0.5523937   0.8609784   1.8761737  )

     -------------------------------------------------
     Parameters for Dispersion (Grimme-D2) Correction:
     -------------------------------------------------
       atom      VdW radius       C_6     

        Ni         2.952        374.666
        Mn         2.952        374.666
        P          3.222        271.980
        O          2.536         24.284
        H          1.892          4.857

     number of k points=     1  Gaussian smearing, width (Ry)=  0.0100
                       cart. coord. in units 2pi/alat
        k(    1) = (   0.0000000   0.0000000   0.0000000), wk =   1.0000000

     Dense  grid:  1918138 G-vectors     FFT dimensions: ( 125, 135, 432)

     Smooth grid:   485265 G-vectors     FFT dimensions: (  80,  90, 288)

     Estimated max dynamical RAM per process >     320.12 MB

     Estimated total dynamical RAM >      20.01 GB
     Generating pointlists ...
     new r_m :   0.0803 (alat units)  1.4208 (a.u.) for type    1
     new r_m :   0.0869 (alat units)  1.5388 (a.u.) for type    2
     new r_m :   0.0650 (alat units)  1.1499 (a.u.) for type    3
     new r_m :   0.0432 (alat units)  0.7640 (a.u.) for type    4
     new r_m :   0.0432 (alat units)  0.7640 (a.u.) for type    5

     Initial potential from superposition of free atoms

     starting charge    1077.8900, renormalised to    1078.0000

     negative rho (up, down):  1.227E-03 4.509E-04
 
     Adding external electric field

     Computed dipole along edir(3) : 
        Dipole                1.6379 Ry au,          4.1630 Debye
        Dipole field          0.0010 Ry au, 
 
        Potential amp.       -0.1099 Ry
        Total length         54.2615 bohr
 
 
     Adding external electric field

     Computed dipole along edir(3) : 
        Dipole                1.6379 Ry au,          4.1630 Debye
        Dipole field          0.0010 Ry au, 
 
        Potential amp.       -0.1099 Ry
        Total length         54.2615 bohr
 
     Starting wfcs are  812 randomized atomic wfcs

     total cpu time spent up to now is        9.9 secs

     Self-consistent Calculation

     iteration #  1     ecut=    50.00 Ry     beta= 0.50
     Davidson diagonalization with overlap
     ethr =  1.00E-02,  avg # of iterations =  6.0

     negative rho (up, down):  2.333E+00 4.737E-06
 
     Adding external electric field

     Computed dipole along edir(3) : 
        Dipole              -24.3531 Ry au,        -61.8993 Debye
        Dipole field         -0.0151 Ry au, 
 
        Potential amp.        1.6344 Ry
        Total length         54.2615 bohr
 
 
     Adding external electric field

     Computed dipole along edir(3) : 
        Dipole              -24.3531 Ry au,        -61.8993 Debye
        Dipole field         -0.0151 Ry au, 
 
        Potential amp.        1.6344 Ry
        Total length         54.2615 bohr
 

     total cpu time spent up to now is       35.4 secs

     total energy              =   -7199.91836130 Ry
     estimated scf accuracy    <     731.27020068 Ry

     total magnetization       =   216.00 Bohr mag/cell
     absolute magnetization    =   298.16 Bohr mag/cell

     iteration #  2     ecut=    50.00 Ry     beta= 0.50
     Davidson diagonalization with overlap
     ethr =  1.00E-02,  avg # of iterations =  7.0

     negative rho (up, down):  2.386E+00 1.109E-05
 
     Adding external electric field

     Computed dipole along edir(3) : 
        Dipole               -0.2231 Ry au,         -0.5669 Debye
        Dipole field         -0.0001 Ry au, 
 
        Potential amp.        0.0150 Ry
        Total length         54.2615 bohr
 
 
     Adding external electric field

     Computed dipole along edir(3) : 
        Dipole               -0.2231 Ry au,         -0.5669 Debye
        Dipole field         -0.0001 Ry au, 
 
        Potential amp.        0.0150 Ry
        Total length         54.2615 bohr
 

     total cpu time spent up to now is       61.5 secs

     total energy              =   -7295.18296777 Ry
     estimated scf accuracy    <    8934.10405774 Ry

     total magnetization       =   114.13 Bohr mag/cell
     absolute magnetization    =   157.95 Bohr mag/cell

     iteration #  3     ecut=    50.00 Ry     beta= 0.50
     Davidson diagonalization with overlap
     ethr =  1.00E-02,  avg # of iterations =  6.0

     negative rho (up, down):  1.752E+00 1.394E-05
 
     Adding external electric field

     Computed dipole along edir(3) : 
        Dipole               -2.4473 Ry au,         -6.2205 Debye
        Dipole field         -0.0015 Ry au, 
 
        Potential amp.        0.1643 Ry
        Total length         54.2615 bohr
 
 
     Adding external electric field

     Computed dipole along edir(3) : 
        Dipole               -2.4473 Ry au,         -6.2205 Debye
        Dipole field         -0.0015 Ry au, 
 
        Potential amp.        0.1643 Ry
        Total length         54.2615 bohr
 

     total cpu time spent up to now is       77.9 secs

     total energy              =   -7362.53577682 Ry
     estimated scf accuracy    <     653.24431178 Ry

     total magnetization       =   124.40 Bohr mag/cell
     absolute magnetization    =   164.48 Bohr mag/cell

     iteration #  4     ecut=    50.00 Ry     beta= 0.50
     Davidson diagonalization with overlap
     ethr =  1.00E-02,  avg # of iterations =  3.0

     negative rho (up, down):  1.282E+00 2.378E-05
 
     Adding external electric field

     Computed dipole along edir(3) : 
        Dipole               -2.7956 Ry au,         -7.1057 Debye
        Dipole field         -0.0017 Ry au, 
 
        Potential amp.        0.1876 Ry
        Total length         54.2615 bohr
 
 
     Adding external electric field

     Computed dipole along edir(3) : 
        Dipole               -2.7956 Ry au,         -7.1057 Debye
        Dipole field         -0.0017 Ry au, 
 
        Potential amp.        0.1876 Ry
        Total length         54.2615 bohr
 

     total cpu time spent up to now is       91.3 secs

     total energy              =   -7378.30789502 Ry
     estimated scf accuracy    <     127.10883855 Ry

     total magnetization       =    84.60 Bohr mag/cell
     absolute magnetization    =   130.40 Bohr mag/cell

     iteration #  5     ecut=    50.00 Ry     beta= 0.50
     Davidson diagonalization with overlap
     ethr =  1.00E-02,  avg # of iterations =  1.5

     negative rho (up, down):  5.929E-01 4.703E-06
 
     Adding external electric field

     Computed dipole along edir(3) : 
        Dipole               -3.1737 Ry au,         -8.0668 Debye
        Dipole field         -0.0020 Ry au, 
 
        Potential amp.        0.2130 Ry
        Total length         54.2615 bohr
 
 
     Adding external electric field

     Computed dipole along edir(3) : 
        Dipole               -3.1737 Ry au,         -8.0668 Debye
        Dipole field         -0.0020 Ry au, 
 
        Potential amp.        0.2130 Ry
        Total length         54.2615 bohr
 

     total cpu time spent up to now is      103.2 secs

     total energy              =   -7389.27109124 Ry
     estimated scf accuracy    <      61.00158892 Ry

     total magnetization       =    82.00 Bohr mag/cell
     absolute magnetization    =   120.11 Bohr mag/cell

     iteration #  6     ecut=    50.00 Ry     beta= 0.50
     Davidson diagonalization with overlap
     ethr =  5.66E-03,  avg # of iterations =  1.5

     negative rho (up, down):  1.685E-01 3.987E-06
 
     Adding external electric field

     Computed dipole along edir(3) : 
        Dipole               -3.5388 Ry au,         -8.9947 Debye
        Dipole field         -0.0022 Ry au, 
 
        Potential amp.        0.2375 Ry
        Total length         54.2615 bohr
 
 
     Adding external electric field

     Computed dipole along edir(3) : 
        Dipole               -3.5388 Ry au,         -8.9947 Debye
        Dipole field         -0.0022 Ry au, 
 
        Potential amp.        0.2375 Ry
        Total length         54.2615 bohr
 

     total cpu time spent up to now is      114.7 secs

     total energy              =   -7393.81088090 Ry
     estimated scf accuracy    <      29.83701678 Ry

     total magnetization       =    82.00 Bohr mag/cell
     absolute magnetization    =   108.77 Bohr mag/cell

     iteration #  7     ecut=    50.00 Ry     beta= 0.50
     Davidson diagonalization with overlap
     ethr =  2.77E-03,  avg # of iterations =  2.0

     negative rho (up, down):  6.303E-05 7.284E-03
 
     Adding external electric field

     Computed dipole along edir(3) : 
        Dipole               -3.8538 Ry au,         -9.7955 Debye
        Dipole field         -0.0024 Ry au, 
 
        Potential amp.        0.2586 Ry
        Total length         54.2615 bohr
 
 
     Adding external electric field

     Computed dipole along edir(3) : 
        Dipole               -3.8538 Ry au,         -9.7955 Debye
        Dipole field         -0.0024 Ry au, 
 
        Potential amp.        0.2586 Ry
        Total length         54.2615 bohr
 

     total cpu time spent up to now is      126.6 secs

     total energy              =   -7396.90544510 Ry
     estimated scf accuracy    <      22.78308727 Ry

     total magnetization       =    80.00 Bohr mag/cell
     absolute magnetization    =    97.50 Bohr mag/cell

     iteration #  8     ecut=    50.00 Ry     beta= 0.50
     Davidson diagonalization with overlap
     ethr =  2.11E-03,  avg # of iterations =  1.5

     negative rho (up, down):  7.631E-06 9.104E-03
 
     Adding external electric field

     Computed dipole along edir(3) : 
        Dipole               -4.0056 Ry au,        -10.1812 Debye
        Dipole field         -0.0025 Ry au, 
 
        Potential amp.        0.2688 Ry
        Total length         54.2615 bohr
 
 
     Adding external electric field

     Computed dipole along edir(3) : 
        Dipole               -4.0056 Ry au,        -10.1812 Debye
        Dipole field         -0.0025 Ry au, 
 
        Potential amp.        0.2688 Ry
        Total length         54.2615 bohr
 

     total cpu time spent up to now is      138.2 secs

     total energy              =   -7397.40575068 Ry
     estimated scf accuracy    <      20.88739310 Ry

     total magnetization       =    77.49 Bohr mag/cell
     absolute magnetization    =    87.62 Bohr mag/cell

     iteration #  9     ecut=    50.00 Ry     beta= 0.50
     Davidson diagonalization with overlap
     ethr =  1.94E-03,  avg # of iterations =  1.5

     negative rho (up, down):  4.607E-06 8.905E-03
 
     Adding external electric field

     Computed dipole along edir(3) : 
        Dipole               -4.0201 Ry au,        -10.2182 Debye
        Dipole field         -0.0025 Ry au, 
 
        Potential amp.        0.2698 Ry
        Total length         54.2615 bohr
 
 
     Adding external electric field

     Computed dipole along edir(3) : 
        Dipole               -4.0201 Ry au,        -10.2182 Debye
        Dipole field         -0.0025 Ry au, 
 
        Potential amp.        0.2698 Ry
        Total length         54.2615 bohr
 

     total cpu time spent up to now is      149.9 secs

     total energy              =   -7397.88455480 Ry
     estimated scf accuracy    <       4.73444486 Ry

     total magnetization       =    78.62 Bohr mag/cell
     absolute magnetization    =    87.11 Bohr mag/cell

     iteration # 10     ecut=    50.00 Ry     beta= 0.50
     Davidson diagonalization with overlap
     ethr =  4.39E-04,  avg # of iterations =  6.5

     negative rho (up, down):  3.416E-05 1.838E-02
 
     Adding external electric field

     Computed dipole along edir(3) : 
        Dipole               -4.0489 Ry au,        -10.2914 Debye
        Dipole field         -0.0025 Ry au, 
 
        Potential amp.        0.2717 Ry
        Total length         54.2615 bohr
 
 
     Adding external electric field

     Computed dipole along edir(3) : 
        Dipole               -4.0489 Ry au,        -10.2914 Debye
        Dipole field         -0.0025 Ry au, 
 
        Potential amp.        0.2717 Ry
        Total length         54.2615 bohr
 

     total cpu time spent up to now is      167.0 secs

     total energy              =   -7398.05794440 Ry
     estimated scf accuracy    <       5.39593024 Ry

     total magnetization       =    79.44 Bohr mag/cell
     absolute magnetization    =    86.28 Bohr mag/cell

     iteration # 11     ecut=    50.00 Ry     beta= 0.50
     Davidson diagonalization with overlap
     ethr =  4.39E-04,  avg # of iterations =  1.0

     negative rho (up, down):  4.824E-09 1.849E-03
 
     Adding external electric field

     Computed dipole along edir(3) : 
        Dipole               -3.7494 Ry au,         -9.5301 Debye
        Dipole field         -0.0023 Ry au, 
 
        Potential amp.        0.2516 Ry
        Total length         54.2615 bohr
 
 
     Adding external electric field

     Computed dipole along edir(3) : 
        Dipole               -3.7494 Ry au,         -9.5301 Debye
        Dipole field         -0.0023 Ry au, 
 
        Potential amp.        0.2516 Ry
        Total length         54.2615 bohr
 

     total cpu time spent up to now is      177.6 secs

     total energy              =   -7398.08296831 Ry
     estimated scf accuracy    <       8.24340793 Ry

     total magnetization       =    78.40 Bohr mag/cell
     absolute magnetization    =    83.37 Bohr mag/cell

     iteration # 12     ecut=    50.00 Ry     beta= 0.50
     Davidson diagonalization with overlap
     ethr =  4.39E-04,  avg # of iterations =  1.5

     negative rho (up, down):  0.000E+00 7.354E-04
 
     Adding external electric field

     Computed dipole along edir(3) : 
        Dipole               -3.6810 Ry au,         -9.3561 Debye
        Dipole field         -0.0023 Ry au, 
 
        Potential amp.        0.2470 Ry
        Total length         54.2615 bohr
 
 
     Adding external electric field

     Computed dipole along edir(3) : 
        Dipole               -3.6810 Ry au,         -9.3561 Debye
        Dipole field         -0.0023 Ry au, 
 
        Potential amp.        0.2470 Ry
        Total length         54.2615 bohr
 

     total cpu time spent up to now is      189.0 secs

     total energy              =   -7397.98887470 Ry
     estimated scf accuracy    <      11.96697974 Ry

     total magnetization       =    77.24 Bohr mag/cell
     absolute magnetization    =    81.30 Bohr mag/cell

     iteration # 13     ecut=    50.00 Ry     beta= 0.50
     Davidson diagonalization with overlap
     ethr =  4.39E-04,  avg # of iterations =  1.5

     negative rho (up, down):  8.433E-06 4.274E-03
 
     Adding external electric field

     Computed dipole along edir(3) : 
        Dipole               -4.0895 Ry au,        -10.3944 Debye
        Dipole field         -0.0025 Ry au, 
 
        Potential amp.        0.2745 Ry
        Total length         54.2615 bohr
 
 
     Adding external electric field

     Computed dipole along edir(3) : 
        Dipole               -4.0895 Ry au,        -10.3944 Debye
        Dipole field         -0.0025 Ry au, 
 
        Potential amp.        0.2745 Ry
        Total length         54.2615 bohr
 

     total cpu time spent up to now is      200.3 secs

     total energy              =   -7398.04670489 Ry
     estimated scf accuracy    <       8.77295013 Ry

     total magnetization       =    77.61 Bohr mag/cell
     absolute magnetization    =    82.27 Bohr mag/cell

     iteration # 14     ecut=    50.00 Ry     beta= 0.50
     Davidson diagonalization with overlap
     ethr =  4.39E-04,  avg # of iterations =  1.5

     negative rho (up, down):  1.550E-06 1.188E-03
 
     Adding external electric field

     Computed dipole along edir(3) : 
        Dipole               -3.8124 Ry au,         -9.6900 Debye
        Dipole field         -0.0024 Ry au, 
 
        Potential amp.        0.2559 Ry
        Total length         54.2615 bohr
 
 
     Adding external electric field

     Computed dipole along edir(3) : 
        Dipole               -3.8124 Ry au,         -9.6900 Debye
        Dipole field         -0.0024 Ry au, 
 
        Potential amp.        0.2559 Ry
        Total length         54.2615 bohr
 

     total cpu time spent up to now is      211.9 secs

     total energy              =   -7398.26918023 Ry
     estimated scf accuracy    <      25.74812309 Ry

     total magnetization       =    78.98 Bohr mag/cell
     absolute magnetization    =    84.39 Bohr mag/cell

     iteration # 15     ecut=    50.00 Ry     beta= 0.50
     Davidson diagonalization with overlap
     ethr =  4.39E-04,  avg # of iterations =  1.5

     negative rho (up, down):  8.447E-07 7.187E-04
 
     Adding external electric field

     Computed dipole along edir(3) : 
        Dipole               -3.2499 Ry au,         -8.2605 Debye
        Dipole field         -0.0020 Ry au, 
 
        Potential amp.        0.2181 Ry
        Total length         54.2615 bohr
 
 
     Adding external electric field

     Computed dipole along edir(3) : 
        Dipole               -3.2499 Ry au,         -8.2605 Debye
        Dipole field         -0.0020 Ry au, 
 
        Potential amp.        0.2181 Ry
        Total length         54.2615 bohr
 

     total cpu time spent up to now is      222.9 secs

     total energy              =   -7398.19269617 Ry
     estimated scf accuracy    <      35.08545516 Ry

     total magnetization       =    79.09 Bohr mag/cell
     absolute magnetization    =    84.19 Bohr mag/cell

     iteration # 16     ecut=    50.00 Ry     beta= 0.50
     Davidson diagonalization with overlap
     ethr =  4.39E-04,  avg # of iterations =  1.5

     negative rho (up, down):  1.134E-07 1.197E-03
 
     Adding external electric field

     Computed dipole along edir(3) : 
        Dipole               -2.9817 Ry au,         -7.5787 Debye
        Dipole field         -0.0018 Ry au, 
 
        Potential amp.        0.2001 Ry
        Total length         54.2615 bohr
 
 
     Adding external electric field

     Computed dipole along edir(3) : 
        Dipole               -2.9817 Ry au,         -7.5787 Debye
        Dipole field         -0.0018 Ry au, 
 
        Potential amp.        0.2001 Ry
        Total length         54.2615 bohr
 

     total cpu time spent up to now is      234.4 secs

     total energy              =   -7397.99147491 Ry
     estimated scf accuracy    <      21.70223210 Ry

     total magnetization       =    78.67 Bohr mag/cell
     absolute magnetization    =    82.09 Bohr mag/cell

     iteration # 17     ecut=    50.00 Ry     beta= 0.50
     Davidson diagonalization with overlap
     ethr =  4.39E-04,  avg # of iterations =  2.0

     negative rho (up, down):  3.090E-07 1.125E-03
 
     Adding external electric field

     Computed dipole along edir(3) : 
        Dipole               -2.6012 Ry au,         -6.6116 Debye
        Dipole field         -0.0016 Ry au, 
 
        Potential amp.        0.1746 Ry
        Total length         54.2615 bohr
 
 
     Adding external electric field

     Computed dipole along edir(3) : 
        Dipole               -2.6012 Ry au,         -6.6116 Debye
        Dipole field         -0.0016 Ry au, 
 
        Potential amp.        0.1746 Ry
        Total length         54.2615 bohr
 

     total cpu time spent up to now is      246.2 secs

     total energy              =   -7398.03295292 Ry
     estimated scf accuracy    <       9.96812325 Ry

     total magnetization       =    77.82 Bohr mag/cell
     absolute magnetization    =    80.13 Bohr mag/cell

     iteration # 18     ecut=    50.00 Ry     beta= 0.50
     Davidson diagonalization with overlap
     ethr =  4.39E-04,  avg # of iterations =  2.0

     negative rho (up, down):  9.711E-07 1.391E-03
 
     Adding external electric field

     Computed dipole along edir(3) : 
        Dipole               -2.0891 Ry au,         -5.3099 Debye
        Dipole field         -0.0013 Ry au, 
 
        Potential amp.        0.1402 Ry
        Total length         54.2615 bohr
 
 
     Adding external electric field

     Computed dipole along edir(3) : 
        Dipole               -2.0891 Ry au,         -5.3099 Debye
        Dipole field         -0.0013 Ry au, 
 
        Potential amp.        0.1402 Ry
        Total length         54.2615 bohr
 

     total cpu time spent up to now is      258.2 secs

     total energy              =   -7397.89250653 Ry
     estimated scf accuracy    <      11.40967377 Ry

     total magnetization       =    77.77 Bohr mag/cell
     absolute magnetization    =    79.71 Bohr mag/cell

     iteration # 19     ecut=    50.00 Ry     beta= 0.50
     Davidson diagonalization with overlap
     ethr =  4.39E-04,  avg # of iterations =  1.5

     negative rho (up, down):  5.425E-07 1.268E-03
 
     Adding external electric field

     Computed dipole along edir(3) : 
        Dipole               -1.8513 Ry au,         -4.7056 Debye
        Dipole field         -0.0011 Ry au, 
 
        Potential amp.        0.1242 Ry
        Total length         54.2615 bohr
 
 
     Adding external electric field

     Computed dipole along edir(3) : 
        Dipole               -1.8513 Ry au,         -4.7056 Debye
        Dipole field         -0.0011 Ry au, 
 
        Potential amp.        0.1242 Ry
        Total length         54.2615 bohr
 

     total cpu time spent up to now is      269.6 secs

     total energy              =   -7397.98446851 Ry
     estimated scf accuracy    <       3.92359786 Ry

     total magnetization       =    77.55 Bohr mag/cell
     absolute magnetization    =    79.28 Bohr mag/cell

     iteration # 20     ecut=    50.00 Ry     beta= 0.50
     Davidson diagonalization with overlap
     ethr =  3.64E-04,  avg # of iterations =  1.5

     negative rho (up, down):  3.572E-08 2.362E-04
 
     Adding external electric field

     Computed dipole along edir(3) : 
        Dipole               -1.7257 Ry au,         -4.3863 Debye
        Dipole field         -0.0011 Ry au, 
 
        Potential amp.        0.1158 Ry
        Total length         54.2615 bohr
 
 
     Adding external electric field

     Computed dipole along edir(3) : 
        Dipole               -1.7257 Ry au,         -4.3863 Debye
        Dipole field         -0.0011 Ry au, 
 
        Potential amp.        0.1158 Ry
        Total length         54.2615 bohr
 

     total cpu time spent up to now is      280.3 secs

     total energy              =   -7398.00674741 Ry
     estimated scf accuracy    <       1.10875680 Ry

     total magnetization       =    79.08 Bohr mag/cell
     absolute magnetization    =    80.18 Bohr mag/cell

     iteration # 21     ecut=    50.00 Ry     beta= 0.50
     Davidson diagonalization with overlap
     ethr =  1.03E-04,  avg # of iterations = 10.0

     negative rho (up, down):  2.629E-08 1.731E-04
 
     Adding external electric field

     Computed dipole along edir(3) : 
        Dipole               -1.5340 Ry au,         -3.8992 Debye
        Dipole field         -0.0009 Ry au, 
 
        Potential amp.        0.1030 Ry
        Total length         54.2615 bohr
 
 
     Adding external electric field

     Computed dipole along edir(3) : 
        Dipole               -1.5340 Ry au,         -3.8992 Debye
        Dipole field         -0.0009 Ry au, 
 
        Potential amp.        0.1030 Ry
        Total length         54.2615 bohr
 

     total cpu time spent up to now is      300.7 secs

     total energy              =   -7398.00905311 Ry
     estimated scf accuracy    <       0.77769913 Ry

     total magnetization       =    79.07 Bohr mag/cell
     absolute magnetization    =    80.22 Bohr mag/cell

     iteration # 22     ecut=    50.00 Ry     beta= 0.50
     Davidson diagonalization with overlap
     ethr =  7.21E-05,  avg # of iterations =  1.5

     negative rho (up, down):  5.073E-10 1.956E-07
 
     Adding external electric field

     Computed dipole along edir(3) : 
        Dipole               -1.2471 Ry au,         -3.1699 Debye
        Dipole field         -0.0008 Ry au, 
 
        Potential amp.        0.0837 Ry
        Total length         54.2615 bohr
 
 
     Adding external electric field

     Computed dipole along edir(3) : 
        Dipole               -1.2471 Ry au,         -3.1699 Debye
        Dipole field         -0.0008 Ry au, 
 
        Potential amp.        0.0837 Ry
        Total length         54.2615 bohr
 

     total cpu time spent up to now is      312.0 secs

     total energy              =   -7398.01674039 Ry
     estimated scf accuracy    <       0.28594407 Ry

     total magnetization       =    79.30 Bohr mag/cell
     absolute magnetization    =    80.44 Bohr mag/cell

     iteration # 23     ecut=    50.00 Ry     beta= 0.50
     Davidson diagonalization with overlap
     ethr =  2.65E-05,  avg # of iterations = 10.0
 
     Adding external electric field

     Computed dipole along edir(3) : 
        Dipole               -1.1935 Ry au,         -3.0334 Debye
        Dipole field         -0.0007 Ry au, 
 
        Potential amp.        0.0801 Ry
        Total length         54.2615 bohr
 
 
     Adding external electric field

     Computed dipole along edir(3) : 
        Dipole               -1.1935 Ry au,         -3.0334 Debye
        Dipole field         -0.0007 Ry au, 
 
        Potential amp.        0.0801 Ry
        Total length         54.2615 bohr
 

     total cpu time spent up to now is      332.5 secs

     total energy              =   -7398.03139479 Ry
     estimated scf accuracy    <       0.52924938 Ry

     total magnetization       =    79.21 Bohr mag/cell
     absolute magnetization    =    80.49 Bohr mag/cell

     iteration # 24     ecut=    50.00 Ry     beta= 0.50
     Davidson diagonalization with overlap
     ethr =  2.65E-05,  avg # of iterations =  1.0
 
     Adding external electric field

     Computed dipole along edir(3) : 
        Dipole               -1.1225 Ry au,         -2.8531 Debye
        Dipole field         -0.0007 Ry au, 
 
        Potential amp.        0.0753 Ry
        Total length         54.2615 bohr
 
 
     Adding external electric field

     Computed dipole along edir(3) : 
        Dipole               -1.1225 Ry au,         -2.8531 Debye
        Dipole field         -0.0007 Ry au, 
 
        Potential amp.        0.0753 Ry
        Total length         54.2615 bohr
 

     total cpu time spent up to now is      343.4 secs

     total energy              =   -7398.04221583 Ry
     estimated scf accuracy    <       0.26122224 Ry

     total magnetization       =    80.12 Bohr mag/cell
     absolute magnetization    =    81.47 Bohr mag/cell

     iteration # 25     ecut=    50.00 Ry     beta= 0.50
     Davidson diagonalization with overlap
     ethr =  2.42E-05,  avg # of iterations =  1.0
 
     Adding external electric field

     Computed dipole along edir(3) : 
        Dipole               -1.0812 Ry au,         -2.7481 Debye
        Dipole field         -0.0007 Ry au, 
 
        Potential amp.        0.0726 Ry
        Total length         54.2615 bohr
 
 
     Adding external electric field

     Computed dipole along edir(3) : 
        Dipole               -1.0812 Ry au,         -2.7481 Debye
        Dipole field         -0.0007 Ry au, 
 
        Potential amp.        0.0726 Ry
        Total length         54.2615 bohr
 

     total cpu time spent up to now is      354.0 secs

     total energy              =   -7398.04706879 Ry
     estimated scf accuracy    <       0.31027248 Ry

     total magnetization       =    80.24 Bohr mag/cell
     absolute magnetization    =    81.74 Bohr mag/cell

     iteration # 26     ecut=    50.00 Ry     beta= 0.50
     Davidson diagonalization with overlap
     ethr =  2.42E-05,  avg # of iterations =  1.0
 
     Adding external electric field

     Computed dipole along edir(3) : 
        Dipole               -1.0502 Ry au,         -2.6694 Debye
        Dipole field         -0.0006 Ry au, 
 
        Potential amp.        0.0705 Ry
        Total length         54.2615 bohr
 
 
     Adding external electric field

     Computed dipole along edir(3) : 
        Dipole               -1.0502 Ry au,         -2.6694 Debye
        Dipole field         -0.0006 Ry au, 
 
        Potential amp.        0.0705 Ry
        Total length         54.2615 bohr
 

     total cpu time spent up to now is      364.5 secs

     total energy              =   -7398.04780697 Ry
     estimated scf accuracy    <       0.40196332 Ry

     total magnetization       =    79.91 Bohr mag/cell
     absolute magnetization    =    81.45 Bohr mag/cell

     iteration # 27     ecut=    50.00 Ry     beta= 0.50
     Davidson diagonalization with overlap
     ethr =  2.42E-05,  avg # of iterations =  1.0
 
     Adding external electric field

     Computed dipole along edir(3) : 
        Dipole               -1.0615 Ry au,         -2.6981 Debye
        Dipole field         -0.0007 Ry au, 
 
        Potential amp.        0.0712 Ry
        Total length         54.2615 bohr
 
 
     Adding external electric field

     Computed dipole along edir(3) : 
        Dipole               -1.0615 Ry au,         -2.6981 Debye
        Dipole field         -0.0007 Ry au, 
 
        Potential amp.        0.0712 Ry
        Total length         54.2615 bohr
 

     total cpu time spent up to now is      374.9 secs

     total energy              =   -7398.04393900 Ry
     estimated scf accuracy    <       0.34618278 Ry

     total magnetization       =    80.21 Bohr mag/cell
     absolute magnetization    =    81.73 Bohr mag/cell

     iteration # 28     ecut=    50.00 Ry     beta= 0.50
     Davidson diagonalization with overlap
     ethr =  2.42E-05,  avg # of iterations =  1.0
 
     Adding external electric field

     Computed dipole along edir(3) : 
        Dipole               -1.0107 Ry au,         -2.5690 Debye
        Dipole field         -0.0006 Ry au, 
 
        Potential amp.        0.0678 Ry
        Total length         54.2615 bohr
 
 
     Adding external electric field

     Computed dipole along edir(3) : 
        Dipole               -1.0107 Ry au,         -2.5690 Debye
        Dipole field         -0.0006 Ry au, 
 
        Potential amp.        0.0678 Ry
        Total length         54.2615 bohr
 

     total cpu time spent up to now is      385.2 secs

     total energy              =   -7398.04921902 Ry
     estimated scf accuracy    <       0.44015202 Ry

     total magnetization       =    79.87 Bohr mag/cell
     absolute magnetization    =    81.32 Bohr mag/cell

     iteration # 29     ecut=    50.00 Ry     beta= 0.50
     Davidson diagonalization with overlap
     ethr =  2.42E-05,  avg # of iterations =  1.0
 
     Adding external electric field

     Computed dipole along edir(3) : 
        Dipole               -0.9807 Ry au,         -2.4926 Debye
        Dipole field         -0.0006 Ry au, 
 
        Potential amp.        0.0658 Ry
        Total length         54.2615 bohr
 
 
     Adding external electric field

     Computed dipole along edir(3) : 
        Dipole               -0.9807 Ry au,         -2.4926 Debye
        Dipole field         -0.0006 Ry au, 
 
        Potential amp.        0.0658 Ry
        Total length         54.2615 bohr
 

     total cpu time spent up to now is      395.7 secs

     total energy              =   -7398.05004878 Ry
     estimated scf accuracy    <       0.36741311 Ry

     total magnetization       =    80.06 Bohr mag/cell
     absolute magnetization    =    81.55 Bohr mag/cell

     iteration # 30     ecut=    50.00 Ry     beta= 0.50
     Davidson diagonalization with overlap
     ethr =  2.42E-05,  avg # of iterations =  1.0
 
     Adding external electric field

     Computed dipole along edir(3) : 
        Dipole               -1.0485 Ry au,         -2.6651 Debye
        Dipole field         -0.0006 Ry au, 
 
        Potential amp.        0.0704 Ry
        Total length         54.2615 bohr
 
 
     Adding external electric field

     Computed dipole along edir(3) : 
        Dipole               -1.0485 Ry au,         -2.6651 Debye
        Dipole field         -0.0006 Ry au, 
 
        Potential amp.        0.0704 Ry
        Total length         54.2615 bohr
 

     total cpu time spent up to now is      406.3 secs

     total energy              =   -7398.03642913 Ry
     estimated scf accuracy    <       0.33118254 Ry

     total magnetization       =    80.06 Bohr mag/cell
     absolute magnetization    =    81.58 Bohr mag/cell

     iteration # 31     ecut=    50.00 Ry     beta= 0.50
     Davidson diagonalization with overlap
     ethr =  2.42E-05,  avg # of iterations =  1.5
 
     Adding external electric field

     Computed dipole along edir(3) : 
        Dipole               -0.8297 Ry au,         -2.1089 Debye
        Dipole field         -0.0005 Ry au, 
 
        Potential amp.        0.0557 Ry
        Total length         54.2615 bohr
 
 
     Adding external electric field

     Computed dipole along edir(3) : 
        Dipole               -0.8297 Ry au,         -2.1089 Debye
        Dipole field         -0.0005 Ry au, 
 
        Potential amp.        0.0557 Ry
        Total length         54.2615 bohr
 

     total cpu time spent up to now is      417.8 secs

     total energy              =   -7398.02961890 Ry
     estimated scf accuracy    <       0.48958864 Ry

     total magnetization       =    79.43 Bohr mag/cell
     absolute magnetization    =    80.83 Bohr mag/cell

     iteration # 32     ecut=    50.00 Ry     beta= 0.50
     Davidson diagonalization with overlap
     ethr =  2.42E-05,  avg # of iterations =  1.5
 
     Adding external electric field

     Computed dipole along edir(3) : 
        Dipole               -0.8126 Ry au,         -2.0653 Debye
        Dipole field         -0.0005 Ry au, 
 
        Potential amp.        0.0545 Ry
        Total length         54.2615 bohr
 
 
     Adding external electric field

     Computed dipole along edir(3) : 
        Dipole               -0.8126 Ry au,         -2.0653 Debye
        Dipole field         -0.0005 Ry au, 
 
        Potential amp.        0.0545 Ry
        Total length         54.2615 bohr
 

     total cpu time spent up to now is      428.7 secs

     total energy              =   -7398.04054294 Ry
     estimated scf accuracy    <       0.22783271 Ry

     total magnetization       =    80.46 Bohr mag/cell
     absolute magnetization    =    81.97 Bohr mag/cell

     iteration # 33     ecut=    50.00 Ry     beta= 0.50
     Davidson diagonalization with overlap
     ethr =  2.11E-05,  avg # of iterations =  1.0
 
     Adding external electric field

     Computed dipole along edir(3) : 
        Dipole               -0.7808 Ry au,         -1.9845 Debye
        Dipole field         -0.0005 Ry au, 
 
        Potential amp.        0.0524 Ry
        Total length         54.2615 bohr
 
 
     Adding external electric field

     Computed dipole along edir(3) : 
        Dipole               -0.7808 Ry au,         -1.9845 Debye
        Dipole field         -0.0005 Ry au, 
 
        Potential amp.        0.0524 Ry
        Total length         54.2615 bohr
 

     total cpu time spent up to now is      439.3 secs

     total energy              =   -7398.03949203 Ry
     estimated scf accuracy    <       0.08001143 Ry

     total magnetization       =    80.49 Bohr mag/cell
     absolute magnetization    =    81.93 Bohr mag/cell

     iteration # 34     ecut=    50.00 Ry     beta= 0.50
     Davidson diagonalization with overlap
     ethr =  7.42E-06,  avg # of iterations =  1.5
 
     Adding external electric field

     Computed dipole along edir(3) : 
        Dipole               -0.7435 Ry au,         -1.8897 Debye
        Dipole field         -0.0005 Ry au, 
 
        Potential amp.        0.0499 Ry
        Total length         54.2615 bohr
 
 
     Adding external electric field

     Computed dipole along edir(3) : 
        Dipole               -0.7435 Ry au,         -1.8897 Debye
        Dipole field         -0.0005 Ry au, 
 
        Potential amp.        0.0499 Ry
        Total length         54.2615 bohr
 

     total cpu time spent up to now is      450.5 secs

     total energy              =   -7398.03907182 Ry
     estimated scf accuracy    <       0.06806358 Ry

     total magnetization       =    80.72 Bohr mag/cell
     absolute magnetization    =    82.16 Bohr mag/cell

     iteration # 35     ecut=    50.00 Ry     beta= 0.50
     Davidson diagonalization with overlap
     ethr =  6.31E-06,  avg # of iterations =  1.0
 
     Adding external electric field

     Computed dipole along edir(3) : 
        Dipole               -0.6399 Ry au,         -1.6265 Debye
        Dipole field         -0.0004 Ry au, 
 
        Potential amp.        0.0429 Ry
        Total length         54.2615 bohr
 
 
     Adding external electric field

     Computed dipole along edir(3) : 
        Dipole               -0.6399 Ry au,         -1.6265 Debye
        Dipole field         -0.0004 Ry au, 
 
        Potential amp.        0.0429 Ry
        Total length         54.2615 bohr
 

     total cpu time spent up to now is      461.3 secs

     total energy              =   -7398.03589443 Ry
     estimated scf accuracy    <       0.06070389 Ry

     total magnetization       =    80.51 Bohr mag/cell
     absolute magnetization    =    81.97 Bohr mag/cell

     iteration # 36     ecut=    50.00 Ry     beta= 0.50
     Davidson diagonalization with overlap
     ethr =  5.63E-06,  avg # of iterations =  4.0
 
     Adding external electric field

     Computed dipole along edir(3) : 
        Dipole               -0.5970 Ry au,         -1.5173 Debye
        Dipole field         -0.0004 Ry au, 
 
        Potential amp.        0.0401 Ry
        Total length         54.2615 bohr
 
 
     Adding external electric field

     Computed dipole along edir(3) : 
        Dipole               -0.5970 Ry au,         -1.5173 Debye
        Dipole field         -0.0004 Ry au, 
 
        Potential amp.        0.0401 Ry
        Total length         54.2615 bohr
 

     total cpu time spent up to now is      474.5 secs

     total energy              =   -7398.03502277 Ry
     estimated scf accuracy    <       0.03011572 Ry

     total magnetization       =    80.40 Bohr mag/cell
     absolute magnetization    =    81.87 Bohr mag/cell

     iteration # 37     ecut=    50.00 Ry     beta= 0.50
     Davidson diagonalization with overlap
     c_bands:  4 eigenvalues not converged
     c_bands:  3 eigenvalues not converged
     ethr =  2.79E-06,  avg # of iterations = 20.0
 
     Adding external electric field

     Computed dipole along edir(3) : 
        Dipole               -0.3977 Ry au,         -1.0110 Debye
        Dipole field         -0.0002 Ry au, 
 
        Potential amp.        0.0267 Ry
        Total length         54.2615 bohr
 
 
     Adding external electric field

     Computed dipole along edir(3) : 
        Dipole               -0.3977 Ry au,         -1.0110 Debye
        Dipole field         -0.0002 Ry au, 
 
        Potential amp.        0.0267 Ry
        Total length         54.2615 bohr
 

     total cpu time spent up to now is      498.2 secs

     total energy              =   -7398.03196584 Ry
     estimated scf accuracy    <       0.03803179 Ry

     total magnetization       =    80.61 Bohr mag/cell
     absolute magnetization    =    82.09 Bohr mag/cell

     iteration # 38     ecut=    50.00 Ry     beta= 0.50
     Davidson diagonalization with overlap
     ethr =  2.79E-06,  avg # of iterations =  4.5

     negative rho (up, down):  8.406E-07 2.700E-06
 
     Adding external electric field

     Computed dipole along edir(3) : 
        Dipole               -0.1230 Ry au,         -0.3127 Debye
        Dipole field         -0.0001 Ry au, 
 
        Potential amp.        0.0083 Ry
        Total length         54.2615 bohr
 
 
     Adding external electric field

     Computed dipole along edir(3) : 
        Dipole               -0.1230 Ry au,         -0.3127 Debye
        Dipole field         -0.0001 Ry au, 
 
        Potential amp.        0.0083 Ry
        Total length         54.2615 bohr
 

     total cpu time spent up to now is      511.7 secs

     total energy              =   -7398.02909832 Ry
     estimated scf accuracy    <       0.04940692 Ry

     total magnetization       =    80.38 Bohr mag/cell
     absolute magnetization    =    81.90 Bohr mag/cell

     iteration # 39     ecut=    50.00 Ry     beta= 0.50
     Davidson diagonalization with overlap
     ethr =  2.79E-06,  avg # of iterations = 16.5

     negative rho (up, down):  9.560E-05 1.461E-04
 
     Adding external electric field

     Computed dipole along edir(3) : 
        Dipole               -0.0065 Ry au,         -0.0166 Debye
        Dipole field         -0.0000 Ry au, 
 
        Potential amp.        0.0004 Ry
        Total length         54.2615 bohr
 
 
     Adding external electric field

     Computed dipole along edir(3) : 
        Dipole               -0.0065 Ry au,         -0.0166 Debye
        Dipole field         -0.0000 Ry au, 
 
        Potential amp.        0.0004 Ry
        Total length         54.2615 bohr
 

     total cpu time spent up to now is      532.7 secs

     total energy              =   -7398.02833653 Ry
     estimated scf accuracy    <       0.02262902 Ry

     total magnetization       =    80.20 Bohr mag/cell
     absolute magnetization    =    81.70 Bohr mag/cell

     iteration # 40     ecut=    50.00 Ry     beta= 0.50
     Davidson diagonalization with overlap
     ethr =  2.10E-06,  avg # of iterations =  2.0

     negative rho (up, down):  1.372E-06 3.232E-06
 
     Adding external electric field

     Computed dipole along edir(3) : 
        Dipole                0.0128 Ry au,          0.0326 Debye
        Dipole field          0.0000 Ry au, 
 
        Potential amp.       -0.0009 Ry
        Total length         54.2615 bohr
 
 
     Adding external electric field

     Computed dipole along edir(3) : 
        Dipole                0.0128 Ry au,          0.0326 Debye
        Dipole field          0.0000 Ry au, 
 
        Potential amp.       -0.0009 Ry
        Total length         54.2615 bohr
 

     total cpu time spent up to now is      544.9 secs

     total energy              =   -7398.02861286 Ry
     estimated scf accuracy    <       0.02468363 Ry

     total magnetization       =    80.39 Bohr mag/cell
     absolute magnetization    =    81.90 Bohr mag/cell

     iteration # 41     ecut=    50.00 Ry     beta= 0.50
     Davidson diagonalization with overlap
     ethr =  2.10E-06,  avg # of iterations =  1.5

     negative rho (up, down):  1.352E-03 1.961E-03
 
     Adding external electric field

     Computed dipole along edir(3) : 
        Dipole                0.2782 Ry au,          0.7072 Debye
        Dipole field          0.0002 Ry au, 
 
        Potential amp.       -0.0187 Ry
        Total length         54.2615 bohr
 
 
     Adding external electric field

     Computed dipole along edir(3) : 
        Dipole                0.2782 Ry au,          0.7072 Debye
        Dipole field          0.0002 Ry au, 
 
        Potential amp.       -0.0187 Ry
        Total length         54.2615 bohr
 

     total cpu time spent up to now is      556.1 secs

     total energy              =   -7398.02814103 Ry
     estimated scf accuracy    <       0.02976110 Ry

     total magnetization       =    80.45 Bohr mag/cell
     absolute magnetization    =    81.95 Bohr mag/cell

     iteration # 42     ecut=    50.00 Ry     beta= 0.50
     Davidson diagonalization with overlap
     ethr =  2.10E-06,  avg # of iterations = 12.0

     negative rho (up, down):  7.148E-03 7.674E-03
 
     Adding external electric field

     Computed dipole along edir(3) : 
        Dipole                0.3622 Ry au,          0.9207 Debye
        Dipole field          0.0002 Ry au, 
 
        Potential amp.       -0.0243 Ry
        Total length         54.2615 bohr
 
 
     Adding external electric field

     Computed dipole along edir(3) : 
        Dipole                0.3622 Ry au,          0.9207 Debye
        Dipole field          0.0002 Ry au, 
 
        Potential amp.       -0.0243 Ry
        Total length         54.2615 bohr
 

     total cpu time spent up to now is      577.7 secs

     total energy              =   -7398.02833297 Ry
     estimated scf accuracy    <       0.01723307 Ry

     total magnetization       =    80.49 Bohr mag/cell
     absolute magnetization    =    81.97 Bohr mag/cell

     iteration # 43     ecut=    50.00 Ry     beta= 0.50
     Davidson diagonalization with overlap
     c_bands:  1 eigenvalues not converged
     c_bands:  3 eigenvalues not converged
     ethr =  1.60E-06,  avg # of iterations = 20.0

     negative rho (up, down):  3.763E-03 4.054E-03
 
     Adding external electric field

     Computed dipole along edir(3) : 
        Dipole                0.3194 Ry au,          0.8118 Debye
        Dipole field          0.0002 Ry au, 
 
        Potential amp.       -0.0214 Ry
        Total length         54.2615 bohr
 
 
     Adding external electric field

     Computed dipole along edir(3) : 
        Dipole                0.3194 Ry au,          0.8118 Debye
        Dipole field          0.0002 Ry au, 
 
        Potential amp.       -0.0214 Ry
        Total length         54.2615 bohr
 

     total cpu time spent up to now is      601.3 secs

     total energy              =   -7398.02858557 Ry
     estimated scf accuracy    <       0.00611905 Ry

     total magnetization       =    80.34 Bohr mag/cell
     absolute magnetization    =    81.85 Bohr mag/cell

     iteration # 44     ecut=    50.00 Ry     beta= 0.50
     Davidson diagonalization with overlap
     c_bands:  1 eigenvalues not converged
     ethr =  5.68E-07,  avg # of iterations = 11.0

     negative rho (up, down):  2.461E-03 2.394E-03
 
     Adding external electric field

     Computed dipole along edir(3) : 
        Dipole                0.2913 Ry au,          0.7403 Debye
        Dipole field          0.0002 Ry au, 
 
        Potential amp.       -0.0195 Ry
        Total length         54.2615 bohr
 
 
     Adding external electric field

     Computed dipole along edir(3) : 
        Dipole                0.2913 Ry au,          0.7403 Debye
        Dipole field          0.0002 Ry au, 
 
        Potential amp.       -0.0195 Ry
        Total length         54.2615 bohr
 

     total cpu time spent up to now is      617.9 secs

     total energy              =   -7398.02843776 Ry
     estimated scf accuracy    <       0.00542423 Ry

     total magnetization       =    80.39 Bohr mag/cell
     absolute magnetization    =    81.91 Bohr mag/cell

     iteration # 45     ecut=    50.00 Ry     beta= 0.50
     Davidson diagonalization with overlap
     c_bands:  1 eigenvalues not converged
     ethr =  5.03E-07,  avg # of iterations = 11.0

     negative rho (up, down):  8.256E-04 5.830E-04
 
     Adding external electric field

     Computed dipole along edir(3) : 
        Dipole                0.2762 Ry au,          0.7021 Debye
        Dipole field          0.0002 Ry au, 
 
        Potential amp.       -0.0185 Ry
        Total length         54.2615 bohr
 
 
     Adding external electric field

     Computed dipole along edir(3) : 
        Dipole                0.2762 Ry au,          0.7021 Debye
        Dipole field          0.0002 Ry au, 
 
        Potential amp.       -0.0185 Ry
        Total length         54.2615 bohr
 

     total cpu time spent up to now is      634.8 secs

     total energy              =   -7398.02838420 Ry
     estimated scf accuracy    <       0.00250647 Ry

     total magnetization       =    80.30 Bohr mag/cell
     absolute magnetization    =    81.83 Bohr mag/cell

     iteration # 46     ecut=    50.00 Ry     beta= 0.50
     Davidson diagonalization with overlap
     c_bands:  1 eigenvalues not converged
     ethr =  2.33E-07,  avg # of iterations = 15.0

     negative rho (up, down):  2.652E-03 2.218E-03
 
     Adding external electric field

     Computed dipole along edir(3) : 
        Dipole                0.2786 Ry au,          0.7082 Debye
        Dipole field          0.0002 Ry au, 
 
        Potential amp.       -0.0187 Ry
        Total length         54.2615 bohr
 
 
     Adding external electric field

     Computed dipole along edir(3) : 
        Dipole                0.2786 Ry au,          0.7082 Debye
        Dipole field          0.0002 Ry au, 
 
        Potential amp.       -0.0187 Ry
        Total length         54.2615 bohr
 

     total cpu time spent up to now is      655.7 secs

     total energy              =   -7398.02831911 Ry
     estimated scf accuracy    <       0.00364350 Ry

     total magnetization       =    80.40 Bohr mag/cell
     absolute magnetization    =    81.93 Bohr mag/cell

     iteration # 47     ecut=    50.00 Ry     beta= 0.50
     Davidson diagonalization with overlap
     ethr =  2.33E-07,  avg # of iterations =  7.5

     negative rho (up, down):  9.505E-04 6.390E-04
 
     Adding external electric field

     Computed dipole along edir(3) : 
        Dipole                0.2676 Ry au,          0.6803 Debye
        Dipole field          0.0002 Ry au, 
 
        Potential amp.       -0.0180 Ry
        Total length         54.2615 bohr
 
 
     Adding external electric field

     Computed dipole along edir(3) : 
        Dipole                0.2676 Ry au,          0.6803 Debye
        Dipole field          0.0002 Ry au, 
 
        Potential amp.       -0.0180 Ry
        Total length         54.2615 bohr
 

     total cpu time spent up to now is      671.0 secs

     total energy              =   -7398.02836414 Ry
     estimated scf accuracy    <       0.00097073 Ry

     total magnetization       =    80.27 Bohr mag/cell
     absolute magnetization    =    81.82 Bohr mag/cell

     iteration # 48     ecut=    50.00 Ry     beta= 0.50
     Davidson diagonalization with overlap
     ethr =  9.00E-08,  avg # of iterations =  2.0

     negative rho (up, down):  4.055E-03 3.752E-03
 
     Adding external electric field

     Computed dipole along edir(3) : 
        Dipole                0.2944 Ry au,          0.7483 Debye
        Dipole field          0.0002 Ry au, 
 
        Potential amp.       -0.0198 Ry
        Total length         54.2615 bohr
 
 
     Adding external electric field

     Computed dipole along edir(3) : 
        Dipole                0.2944 Ry au,          0.7483 Debye
        Dipole field          0.0002 Ry au, 
 
        Potential amp.       -0.0198 Ry
        Total length         54.2615 bohr
 

     total cpu time spent up to now is      682.8 secs

     total energy              =   -7398.02839649 Ry
     estimated scf accuracy    <       0.00207339 Ry

     total magnetization       =    80.38 Bohr mag/cell
     absolute magnetization    =    81.92 Bohr mag/cell

     iteration # 49     ecut=    50.00 Ry     beta= 0.50
     Davidson diagonalization with overlap
     ethr =  9.00E-08,  avg # of iterations =  1.5

     negative rho (up, down):  5.093E-03 4.959E-03
 
     Adding external electric field

     Computed dipole along edir(3) : 
        Dipole                0.3104 Ry au,          0.7890 Debye
        Dipole field          0.0002 Ry au, 
 
        Potential amp.       -0.0208 Ry
        Total length         54.2615 bohr
 
 
     Adding external electric field

     Computed dipole along edir(3) : 
        Dipole                0.3104 Ry au,          0.7890 Debye
        Dipole field          0.0002 Ry au, 
 
        Potential amp.       -0.0208 Ry
        Total length         54.2615 bohr
 

     total cpu time spent up to now is      693.8 secs

     total energy              =   -7398.02842384 Ry
     estimated scf accuracy    <       0.00045513 Ry

     total magnetization       =    80.30 Bohr mag/cell
     absolute magnetization    =    81.84 Bohr mag/cell

     iteration # 50     ecut=    50.00 Ry     beta= 0.50
     Davidson diagonalization with overlap
     ethr =  4.22E-08,  avg # of iterations =  2.0

     negative rho (up, down):  4.617E-03 4.528E-03
 
     Adding external electric field

     Computed dipole along edir(3) : 
        Dipole                0.3048 Ry au,          0.7747 Debye
        Dipole field          0.0002 Ry au, 
 
        Potential amp.       -0.0205 Ry
        Total length         54.2615 bohr
 
 
     Adding external electric field

     Computed dipole along edir(3) : 
        Dipole                0.3048 Ry au,          0.7747 Debye
        Dipole field          0.0002 Ry au, 
 
        Potential amp.       -0.0205 Ry
        Total length         54.2615 bohr
 

     total cpu time spent up to now is      705.4 secs

     total energy              =   -7398.02841643 Ry
     estimated scf accuracy    <       0.00092429 Ry

     total magnetization       =    80.30 Bohr mag/cell
     absolute magnetization    =    81.84 Bohr mag/cell

     iteration # 51     ecut=    50.00 Ry     beta= 0.50
     Davidson diagonalization with overlap
     ethr =  4.22E-08,  avg # of iterations =  2.0

     negative rho (up, down):  4.007E-03 3.856E-03
 
     Adding external electric field

     Computed dipole along edir(3) : 
        Dipole                0.2966 Ry au,          0.7540 Debye
        Dipole field          0.0002 Ry au, 
 
        Potential amp.       -0.0199 Ry
        Total length         54.2615 bohr
 
 
     Adding external electric field

     Computed dipole along edir(3) : 
        Dipole                0.2966 Ry au,          0.7540 Debye
        Dipole field          0.0002 Ry au, 
 
        Potential amp.       -0.0199 Ry
        Total length         54.2615 bohr
 

     total cpu time spent up to now is      717.2 secs

     total energy              =   -7398.02841506 Ry
     estimated scf accuracy    <       0.00020993 Ry

     total magnetization       =    80.28 Bohr mag/cell
     absolute magnetization    =    81.82 Bohr mag/cell

     iteration # 52     ecut=    50.00 Ry     beta= 0.50
     Davidson diagonalization with overlap
     ethr =  1.95E-08,  avg # of iterations =  1.5

     negative rho (up, down):  3.209E-03 3.069E-03
 
     Adding external electric field

     Computed dipole along edir(3) : 
        Dipole                0.2921 Ry au,          0.7425 Debye
        Dipole field          0.0002 Ry au, 
 
        Potential amp.       -0.0196 Ry
        Total length         54.2615 bohr
 
 
     Adding external electric field

     Computed dipole along edir(3) : 
        Dipole                0.2921 Ry au,          0.7425 Debye
        Dipole field          0.0002 Ry au, 
 
        Potential amp.       -0.0196 Ry
        Total length         54.2615 bohr
 

     total cpu time spent up to now is      728.1 secs

     total energy              =   -7398.02839515 Ry
     estimated scf accuracy    <       0.00031714 Ry

     total magnetization       =    80.30 Bohr mag/cell
     absolute magnetization    =    81.83 Bohr mag/cell

     iteration # 53     ecut=    50.00 Ry     beta= 0.50
     Davidson diagonalization with overlap
     ethr =  1.95E-08,  avg # of iterations =  1.5

     negative rho (up, down):  1.615E-03 1.331E-03
 
     Adding external electric field

     Computed dipole along edir(3) : 
        Dipole                0.2786 Ry au,          0.7082 Debye
        Dipole field          0.0002 Ry au, 
 
        Potential amp.       -0.0187 Ry
        Total length         54.2615 bohr
 
 
     Adding external electric field

     Computed dipole along edir(3) : 
        Dipole                0.2786 Ry au,          0.7082 Debye
        Dipole field          0.0002 Ry au, 
 
        Potential amp.       -0.0187 Ry
        Total length         54.2615 bohr
 

     total cpu time spent up to now is      739.0 secs

     total energy              =   -7398.02837891 Ry
     estimated scf accuracy    <       0.00055672 Ry

     total magnetization       =    80.27 Bohr mag/cell
     absolute magnetization    =    81.80 Bohr mag/cell

     iteration # 54     ecut=    50.00 Ry     beta= 0.50
     Davidson diagonalization with overlap
     ethr =  1.95E-08,  avg # of iterations =  2.0

     negative rho (up, down):  4.949E-04 1.918E-04
 
     Adding external electric field

     Computed dipole along edir(3) : 
        Dipole                0.2682 Ry au,          0.6816 Debye
        Dipole field          0.0002 Ry au, 
 
        Potential amp.       -0.0180 Ry
        Total length         54.2615 bohr
 
 
     Adding external electric field

     Computed dipole along edir(3) : 
        Dipole                0.2682 Ry au,          0.6816 Debye
        Dipole field          0.0002 Ry au, 
 
        Potential amp.       -0.0180 Ry
        Total length         54.2615 bohr
 

     total cpu time spent up to now is      750.5 secs

     total energy              =   -7398.02836593 Ry
     estimated scf accuracy    <       0.00009929 Ry

     total magnetization       =    80.27 Bohr mag/cell
     absolute magnetization    =    81.80 Bohr mag/cell

     iteration # 55     ecut=    50.00 Ry     beta= 0.50
     Davidson diagonalization with overlap
     ethr =  9.21E-09,  avg # of iterations =  1.5

     negative rho (up, down):  6.219E-04 2.841E-04
 
     Adding external electric field

     Computed dipole along edir(3) : 
        Dipole                0.2720 Ry au,          0.6914 Debye
        Dipole field          0.0002 Ry au, 
 
        Potential amp.       -0.0183 Ry
        Total length         54.2615 bohr
 
 
     Adding external electric field

     Computed dipole along edir(3) : 
        Dipole                0.2720 Ry au,          0.6914 Debye
        Dipole field          0.0002 Ry au, 
 
        Potential amp.       -0.0183 Ry
        Total length         54.2615 bohr
 

     total cpu time spent up to now is      761.4 secs

     total energy              =   -7398.02837223 Ry
     estimated scf accuracy    <       0.00004188 Ry

     total magnetization       =    80.30 Bohr mag/cell
     absolute magnetization    =    81.83 Bohr mag/cell

     iteration # 56     ecut=    50.00 Ry     beta= 0.50
     Davidson diagonalization with overlap
     ethr =  3.89E-09,  avg # of iterations =  1.0

     negative rho (up, down):  7.132E-04 3.553E-04
 
     Adding external electric field

     Computed dipole along edir(3) : 
        Dipole                0.2751 Ry au,          0.6993 Debye
        Dipole field          0.0002 Ry au, 
 
        Potential amp.       -0.0185 Ry
        Total length         54.2615 bohr
 
 
     Adding external electric field

     Computed dipole along edir(3) : 
        Dipole                0.2751 Ry au,          0.6993 Debye
        Dipole field          0.0002 Ry au, 
 
        Potential amp.       -0.0185 Ry
        Total length         54.2615 bohr
 

     total cpu time spent up to now is      771.7 secs

     total energy              =   -7398.02837309 Ry
     estimated scf accuracy    <       0.00006886 Ry

     total magnetization       =    80.30 Bohr mag/cell
     absolute magnetization    =    81.83 Bohr mag/cell

     iteration # 57     ecut=    50.00 Ry     beta= 0.50
     Davidson diagonalization with overlap
     ethr =  3.89E-09,  avg # of iterations =  1.0

     negative rho (up, down):  7.809E-04 4.124E-04
 
     Adding external electric field

     Computed dipole along edir(3) : 
        Dipole                0.2767 Ry au,          0.7033 Debye
        Dipole field          0.0002 Ry au, 
 
        Potential amp.       -0.0186 Ry
        Total length         54.2615 bohr
 
 
     Adding external electric field

     Computed dipole along edir(3) : 
        Dipole                0.2767 Ry au,          0.7033 Debye
        Dipole field          0.0002 Ry au, 
 
        Potential amp.       -0.0186 Ry
        Total length         54.2615 bohr
 

     total cpu time spent up to now is      782.0 secs

     total energy              =   -7398.02837385 Ry
     estimated scf accuracy    <       0.00003099 Ry

     total magnetization       =    80.29 Bohr mag/cell
     absolute magnetization    =    81.82 Bohr mag/cell

     iteration # 58     ecut=    50.00 Ry     beta= 0.50
     Davidson diagonalization with overlap
     ethr =  2.87E-09,  avg # of iterations =  1.0

     negative rho (up, down):  8.330E-04 4.579E-04
 
     Adding external electric field

     Computed dipole along edir(3) : 
        Dipole                0.2786 Ry au,          0.7082 Debye
        Dipole field          0.0002 Ry au, 
 
        Potential amp.       -0.0187 Ry
        Total length         54.2615 bohr
 
 
     Adding external electric field

     Computed dipole along edir(3) : 
        Dipole                0.2786 Ry au,          0.7082 Debye
        Dipole field          0.0002 Ry au, 
 
        Potential amp.       -0.0187 Ry
        Total length         54.2615 bohr
 

     total cpu time spent up to now is      792.2 secs

     total energy              =   -7398.02837350 Ry
     estimated scf accuracy    <       0.00002620 Ry

     total magnetization       =    80.30 Bohr mag/cell
     absolute magnetization    =    81.82 Bohr mag/cell

[...]
    -5.9518  -5.9429  -5.9225  -5.9167  -5.9018  -5.8541  -5.8199  -5.8031
    -5.7780  -5.7614  -5.7429  -5.7383  -5.7095  -5.6901  -5.6721  -5.6555
    -5.6444  -5.6119  -5.6066  -5.5943  -5.5922  -5.5717  -5.5179  -5.4844
    -5.4557  -5.4263  -5.3990  -5.3791  -5.3640  -5.3546  -5.3279  -5.2555
    -5.2248  -5.2044  -5.1900  -5.1188  -5.1088  -5.0894  -5.0369  -5.0208
    -5.0109  -4.9583  -4.9248  -4.9041  -4.8821  -4.8567  -4.8448  -4.7951
    -4.7838  -4.7425  -4.7060  -4.6810  -4.6564  -4.6288  -4.5518  -4.5397
    -4.4958  -4.4846  -4.4545  -4.4379  -4.4161  -4.3864  -4.3516  -4.3393
    -4.3227  -4.2775  -4.2194  -4.1823  -4.1387  -4.1231  -4.1085  -4.1006
    -4.0501  -4.0097  -3.9933  -3.9789  -3.9481  -3.9180  -3.9014  -3.8738
    -3.8503  -3.8464  -3.7905  -3.7877  -3.7583  -3.7230  -3.7065  -3.6937
    -3.6798  -3.6545  -3.6408  -3.6319  -3.6225  -3.6037  -3.5693  -3.5284
    -3.5085  -3.5035  -3.4852  -3.4781  -3.4701  -3.4622  -3.4326  -3.4258
    -3.4189  -3.3788  -3.3563  -3.3275  -3.3129  -3.2947  -3.2515  -3.2437
    -3.2305  -3.2011  -3.1651  -3.1649  -3.1519  -3.1316  -3.1235  -3.1106
    -3.0804  -3.0753  -3.0361  -3.0011  -2.9916  -2.9783  -2.9627  -2.9223
    -2.9039  -2.8959  -2.8834  -2.8375  -2.8270  -2.8129  -2.7905  -2.7783
    -2.7618  -2.7555  -2.7440  -2.7333  -2.7236  -2.7217  -2.7105  -2.6832
    -2.6631  -2.6459  -2.6355  -2.6278  -2.6014  -2.5862  -2.5745  -2.5500
    -2.5382  -2.5086  -2.5060  -2.4863  -2.4654  -2.4504  -2.4379  -2.4288
    -2.3952  -2.3828  -2.3712  -2.3539  -2.3264  -2.2939  -2.2829  -2.2564
    -2.2482  -2.2308  -2.2015  -2.1833  -2.1754  -2.1474  -2.1180  -2.1112
    -2.0976  -2.0720  -2.0585  -2.0450  -2.0329  -2.0153  -1.9935  -1.9648
    -1.9540  -1.9399  -1.9363  -1.9277  -1.8934  -1.8849  -1.8695  -1.8509
    -1.8260  -1.7823  -1.7770  -1.7424  -1.7335  -1.7047  -1.6886  -1.6789
    -1.6709  -1.6510  -1.6469  -1.6017  -1.5956  -1.5715  -1.5280  -1.5176
    -1.5039  -1.4961  -1.4677  -1.4445  -1.4365  -1.4188  -1.3996  -1.3878
    -1.3672  -1.3468  -1.3245  -1.2838  -1.2727  -1.2488  -1.2254  -1.2009
    -1.1559  -1.1198  -1.0729  -0.9723  -0.9548  -0.9137  -0.8692  -0.8294
    -0.8119  -0.7431  -0.6472  -0.5211  -0.3788  -0.3250  -0.3084  -0.2039
     0.1303   0.1538   0.1832   0.2210   0.2508   0.2715   0.2729   0.2963
     0.3005   0.3162   0.3368   0.3394   0.3461   0.3672   0.3696   0.3710
     0.3832   0.3861   0.3977   0.4039   0.4169   0.4256   0.4290   0.4386
     0.4438   0.4502   0.4569   0.4587   0.4684   0.4717   0.4786   0.4838
     0.5016   0.5050   0.5098   0.5137   0.5194   0.5220   0.5334   0.5397
     0.5559   0.5577   0.5654   0.5680   0.5765   0.5827   0.5962   0.6020
     0.6052   0.6124   0.6194   0.6241   0.6282   0.6429   0.6568   0.6664
     0.6696   0.6768   0.6859   0.6903   0.6928   0.7034   0.7079   0.7200
     0.7317   0.7393   0.7408   0.7444   0.7548   0.7608   0.7609   0.7678
     0.7739   0.7794   0.8104   0.8159   0.8233   0.8323   0.8451   0.8526
     0.8552   0.8712   0.8753   0.8802   0.8969   0.9005   0.9066   0.9183
     0.9238   0.9305   0.9548   0.9563   0.9890   0.9969   1.0121   1.0261
     1.1358   1.1696   1.6052   1.6926   1.6978   1.7271   1.7309   1.7479
     1.7605   1.8558   1.8812   1.9003   1.9171   1.9618   1.9671   1.9875
     1.9986   2.0212   2.0404   2.0608   2.0724   2.0746   2.0940   2.1322
     2.1565   2.1720   2.1812   2.2102   2.2177   2.2528   2.2560   2.2623
     2.2763   2.2844   2.3065   2.3162   2.3251   2.3341   2.3485   2.3558
     2.3707   2.3829   2.3918   2.3943   2.4104   2.4253   2.4448   2.4851
     2.4907   2.5076   2.5151   2.5304   2.5428   2.5471   2.5679   2.5907
     2.5987   2.6086   2.6439   2.6622   2.7011   2.7288   2.7467   2.8081
     2.8265   2.8605   2.8786   2.9238   2.9274   3.3710   3.3996   3.6073
     3.6633   3.8003   3.8624   3.9450   4.0078   4.0273   4.0914   4.6055
     4.6678   4.7755   4.8987   4.9337   4.9594   5.0523   5.4385   6.3407
     6.3649   6.5142   6.6081   6.7280   6.8126   6.8484   6.9015   6.9405
     7.0502   7.0930   7.1341   7.1537   7.3416   7.3921   7.4082   7.4396
     7.5260   7.5888   7.6217   7.7079   7.7485   7.7544   7.8208   7.8501
     7.8886   7.9478   7.9678   8.0013   8.0216   8.0541   8.0802   8.1178
     8.1433   8.1766   8.1889   8.2338   8.2536   8.2790   8.3126   8.3432
     8.3670   8.4057   8.4300   8.4879   8.4912   8.5050   8.5248   8.5405
     8.5544   8.5697   8.5931   8.6064   8.6470   8.6681   8.6764   8.6888
     8.7247   8.7413   8.8043   8.8070   8.8528   8.8694   8.9141

     the Fermi energy is     1.5823 ev

!    total energy              =   -7398.02837450 Ry
     estimated scf accuracy    <       0.00000053 Ry
     smearing contrib. (-TS)   =      -0.01555307 Ry
     internal energy E=F+TS    =   -7398.01282142 Ry

     The total energy is F=E-TS. E is the sum of the following terms:
     one-electron contribution =  -91618.26845540 Ry
     hartree contribution      =   46457.45170414 Ry
     xc contribution           =   -2260.28579493 Ry
     ewald contribution        =   40024.92187232 Ry
     Dispersion Correction     =      -1.83219731 Ry
     electric field correction =       0.00004975 Ry

     total magnetization       =    80.29 Bohr mag/cell
     absolute magnetization    =    81.82 Bohr mag/cell

     convergence has been achieved in  62 iterations

     negative rho (up, down):  9.302E-04 5.485E-04

     Forces acting on atoms (cartesian axes, Ry/au):

     atom    1 type  2   force =     0.00033748   -0.00034705   -0.00020091
     atom    2 type  1   force =    -0.00028388    0.00010950   -0.00024015
     atom    3 type  1   force =    -0.00003752   -0.00063129   -0.00048943
     atom    4 type  1   force =    -0.00013888    0.00042850    0.00006964
     atom    5 type  1   force =    -0.00006899    0.00035362   -0.00010161
     atom    6 type  1   force =     0.00001884   -0.00016223   -0.00011107
     atom    7 type  1   force =    -0.00009752    0.00033291   -0.00016654
     atom    8 type  1   force =    -0.00007623   -0.00044417    0.00007977
     atom    9 type  1   force =    -0.00041843    0.00068230   -0.00039035
     atom   10 type  1   force =    -0.00015652    0.00005153   -0.00046016
     atom   11 type  1   force =    -0.00032255   -0.00045896   -0.00019429
     atom   12 type  1   force =     0.00033024    0.00027981   -0.00064557
     atom   13 type  3   force =    -0.00009612    0.00015752    0.00000421
     atom   14 type  3   force =    -0.00022938    0.00024723    0.00027334
     atom   15 type  3   force =     0.00010205    0.00008970   -0.00008006
     atom   16 type  3   force =     0.00075562    0.00009171   -0.00002141
     atom   17 type  4   force =     0.00005444   -0.00021852   -0.00009958
     atom   18 type  4   force =     0.00023013    0.00008535   -0.00051706
     atom   19 type  4   force =    -0.00028285    0.00024184    0.00036536
     atom   20 type  4   force =    -0.00018105    0.00010322    0.00024108
     atom   21 type  4   force =    -0.00001888    0.00038619   -0.00003678
     atom   22 type  4   force =    -0.00016878   -0.00025177   -0.00056786
     atom   23 type  4   force =    -0.00000776    0.00057725   -0.00035538
     atom   24 type  4   force =     0.00033131    0.00013354    0.00029117
     atom   25 type  4   force =     0.00010641   -0.00026229   -0.00008152
     atom   26 type  4   force =    -0.00015133    0.00016261    0.00004966
     atom   27 type  4   force =     0.00041864   -0.00007184   -0.00016073
     atom   28 type  4   force =    -0.00004665    0.00014383    0.00014471
     atom   29 type  4   force =    -0.00012662   -0.00022372    0.00023906
     atom   30 type  4   force =    -0.00013303   -0.00037358   -0.00043297
     atom   31 type  4   force =    -0.00001072    0.00013144   -0.00019699
     atom   32 type  4   force =    -0.00015899    0.00040463    0.00012674
     atom   33 type  3   force =    -0.00008125    0.00003562   -0.00027168
     atom   34 type  3   force =     0.00038092   -0.00005233   -0.00033615
     atom   35 type  3   force =     0.00024496   -0.00002765   -0.00030711
     atom   36 type  3   force =    -0.00061210    0.00008386    0.00007426
     atom   37 type  4   force =     0.00008073   -0.00007430   -0.00002073
     atom   38 type  4   force =     0.00000667    0.00052958   -0.00005801
     atom   39 type  4   force =    -0.00019367    0.00000512    0.00094676
     atom   40 type  4   force =     0.00031712    0.00003286   -0.00021881
     atom   41 type  4   force =    -0.00027131    0.00002943   -0.00009416
     atom   42 type  4   force =    -0.00044724   -0.00028398   -0.00053501
     atom   43 type  4   force =    -0.00041035   -0.00022581   -0.00026995
     atom   44 type  4   force =     0.00010880    0.00018476   -0.00029062
     atom   45 type  4   force =     0.00013213   -0.00008428   -0.00038472
     atom   46 type  4   force =     0.00012200   -0.00047958   -0.00041215
     atom   47 type  4   force =    -0.00009316    0.00014993   -0.00007381
     atom   48 type  4   force =     0.00037942    0.00032893   -0.00001686
     atom   49 type  4   force =    -0.00002619    0.00028624   -0.00000580
     atom   50 type  4   force =     0.00025565   -0.00027079   -0.00001405
     atom   51 type  4   force =     0.00002894   -0.00003746    0.00012755
     atom   52 type  4   force =    -0.00014328   -0.00000786   -0.00010940
     atom   53 type  2   force =     0.00247685   -0.00383149    0.00611752
     atom   54 type  1   force =     0.00510350   -0.00222839    0.00413357
     atom   55 type  1   force =     0.00752453   -0.00391126    0.00217511
     atom   56 type  1   force =    -0.00194894    0.01032393    0.00632251
     atom   57 type  1   force =    -0.00016123    0.02317380    0.01505306
     atom   58 type  1   force =     0.00208265   -0.00332688   -0.00147296
     atom   59 type  1   force =     0.00046431   -0.00716953    0.00420936
     atom   60 type  1   force =    -0.00525521   -0.00199221    0.00507510
     atom   61 type  1   force =    -0.00188455   -0.00158490    0.00345852
     atom   62 type  1   force =    -0.00434180    0.00828735    0.00634140
     atom   63 type  1   force =    -0.01100630    0.02594913    0.01877948
     atom   64 type  1   force =    -0.00197990    0.00115440    0.00154725
     atom   65 type  3   force =     0.04625256   -0.11371164   -0.01069572
     atom   66 type  3   force =    -0.00034699   -0.00162353    0.00359551
     atom   67 type  3   force =    -0.03981777    0.12606759    0.01446760
     atom   68 type  3   force =     0.06271434   -0.00164681   -0.00322562
     atom   69 type  4   force =     0.01394139   -0.01839517    0.00384278
     atom   70 type  4   force =    -0.00102365    0.00280758   -0.00127842
     atom   71 type  4   force =    -0.00156360    0.00331785   -0.00547445
     atom   72 type  4   force =     0.00403635    0.00189066   -0.00087275
     atom   73 type  4   force =     0.00096842   -0.01155114    0.00264085
     atom   74 type  4   force =     0.00121392   -0.00019409   -0.00075208
     atom   75 type  4   force =     0.00059623    0.01355428    0.00505783
     atom   76 type  4   force =     0.00834328    0.00519831    0.00917406
     atom   77 type  4   force =     0.00708064   -0.00268270    0.00155213
     atom   78 type  4   force =     0.04435088   -0.14241376   -0.00540551
     atom   79 type  4   force =     0.00184213    0.00190239    0.00141451
     atom   80 type  4   force =     0.00034210    0.00230005   -0.00167983
     atom   81 type  4   force =     0.06784782    0.00090022   -0.00661510
     atom   82 type  4   force =     0.00037353    0.00092409   -0.00119299
     atom   83 type  4   force =    -0.03912866    0.13476933    0.00266556
     atom   84 type  4   force =    -0.00302330   -0.01099779   -0.00410099
     atom   85 type  3   force =     0.04006334   -0.12015121   -0.01810949
     atom   86 type  3   force =    -0.06380149   -0.00050689    0.00767621
     atom   87 type  3   force =    -0.04507713    0.12374904    0.01940966
     atom   88 type  3   force =    -0.00165667    0.00017046    0.00269469
     atom   89 type  4   force =     0.00903653   -0.01529465    0.00393955
     atom   90 type  4   force =    -0.00463084    0.00114816   -0.00000024
     atom   91 type  4   force =    -0.00887993    0.00835430   -0.00640161
     atom   92 type  4   force =    -0.00000476    0.00019531   -0.00076633
     atom   93 type  4   force =    -0.00173238   -0.00835602    0.00734269
     atom   94 type  4   force =    -0.00406178    0.00092275   -0.00081247
     atom   95 type  4   force =    -0.00526692    0.01346043    0.00737538
     atom   96 type  4   force =     0.00413616    0.00515543    0.00957829
     atom   97 type  4   force =    -0.00004665    0.00027907    0.00066096
     atom   98 type  4   force =     0.04029354   -0.14093925   -0.00545578
     atom   99 type  4   force =    -0.06660732   -0.00000034    0.00633468
     atom  100 type  4   force =    -0.00194326    0.00354207   -0.00257013
     atom  101 type  4   force =    -0.00005886    0.00080555   -0.00090547
     atom  102 type  4   force =    -0.00611547    0.00443022   -0.00141570
     atom  103 type  4   force =    -0.04027362    0.13340730    0.00430026
     atom  104 type  4   force =    -0.00706160   -0.00988998   -0.00526191
     atom  105 type  2   force =     0.00419055   -0.00654612   -0.01755719
     atom  106 type  1   force =     0.02829950    0.01434046    0.01168661
     atom  107 type  1   force =     0.00866356   -0.00612647   -0.01367335
     atom  108 type  1   force =    -0.02844125    0.02172320    0.01872797
     atom  109 type  1   force =     0.00498793    0.01621005    0.00957029
     atom  110 type  1   force =    -0.00249245   -0.00884219   -0.00660691
     atom  111 type  1   force =    -0.00089306   -0.00948895   -0.01108871
     atom  112 type  1   force =     0.02923202    0.01760424    0.01136951
     atom  113 type  1   force =    -0.00064328   -0.00498845   -0.01352030
     atom  114 type  1   force =    -0.02974841    0.02074872    0.01852860
     atom  115 type  1   force =    -0.00712864    0.01862144    0.01229102
     atom  116 type  1   force =    -0.00561369   -0.00444647   -0.00278378
     atom  117 type  3   force =     0.01425116   -0.17388924   -0.10885701
     atom  118 type  3   force =     0.00517869   -0.00850227   -0.01249936
     atom  119 type  3   force =    -0.04466708    0.12499455   -0.00178086
     atom  120 type  3   force =     0.09507876   -0.04105601   -0.07975541
     atom  121 type  4   force =     0.00608899   -0.01715758    0.03735428
     atom  122 type  4   force =    -0.00358126    0.00380762    0.00433871
     atom  123 type  4   force =    -0.00079581    0.00261472   -0.00298054
     atom  124 type  4   force =     0.00854887    0.00211325    0.02702080
     atom  125 type  4   force =     0.00983930   -0.01696838    0.01572992
     atom  126 type  4   force =    -0.00756552    0.00100666   -0.00317686
     atom  127 type  4   force =     0.00399894    0.00966911    0.00040768
     atom  128 type  4   force =    -0.00057828   -0.00117448    0.02998589
     atom  129 type  4   force =    -0.00757521    0.02563649    0.00113681
     atom  130 type  4   force =     0.04345992   -0.14608635   -0.00191653
     atom  131 type  4   force =    -0.01754422   -0.00039218    0.00282761
     atom  132 type  4   force =     0.00329099    0.00263976    0.00199070
     atom  133 type  4   force =     0.06988600    0.00368811   -0.00191535
     atom  134 type  4   force =     0.00090939    0.00357274    0.00270680
     atom  135 type  4   force =    -0.02763148    0.17238579    0.00600655
     atom  136 type  4   force =     0.01972660   -0.00861580    0.00396860
     atom  137 type  3   force =     0.00909301   -0.16687932   -0.09427560
     atom  138 type  3   force =    -0.06470935   -0.00205478   -0.00483131
     atom  139 type  3   force =    -0.04871254    0.11825593    0.00164879
     atom  140 type  3   force =     0.03144900   -0.04325478   -0.07372966
     atom  141 type  4   force =     0.00460698   -0.01335652    0.03217623
     atom  142 type  4   force =    -0.00550178   -0.00028062    0.00416919
     atom  143 type  4   force =    -0.00816420    0.00815391   -0.00366562
     atom  144 type  4   force =     0.00390796    0.00131091    0.02757856
     atom  145 type  4   force =     0.00685480   -0.01307526    0.03214264
     atom  146 type  4   force =    -0.00875898   -0.00178556   -0.00308954
     atom  147 type  4   force =     0.00032166    0.00988216    0.00259479
     atom  148 type  4   force =    -0.00786004    0.00114296    0.02893657
     atom  149 type  4   force =    -0.01309504    0.02954550    0.00045973
     atom  150 type  4   force =     0.03985543   -0.13840275   -0.00141111
     atom  151 type  4   force =    -0.08630966   -0.00176785    0.00912026
     atom  152 type  4   force =     0.00112379    0.00389462    0.00140818
     atom  153 type  4   force =    -0.00343420    0.00082534    0.00295733
     atom  154 type  4   force =    -0.00594302    0.00590738    0.00129950
     atom  155 type  4   force =    -0.02801423    0.16659441    0.00479239
     atom  156 type  4   force =     0.01069750   -0.00968982   -0.00141668
     atom  157 type  4   force =     0.00869398    0.00774662   -0.00339977
     atom  158 type  5   force =    -0.00846831   -0.00742101    0.00246452

     Total force =     0.671445     Total SCF correction =     0.002998
 
     init_run     :      6.92s CPU      7.68s WALL (       1 calls)
     electrons    :    778.39s CPU    823.74s WALL (       1 calls)
     forces       :      3.95s CPU      4.41s WALL (       1 calls)
     force_london :      0.10s CPU      0.10s WALL (       1 calls)

     Called by init_run:
     wfcinit      :      4.04s CPU      4.23s WALL (       1 calls)
     potinit      :      0.53s CPU      0.73s WALL (       1 calls)
     hinit0       :      1.19s CPU      1.31s WALL (       1 calls)

     Called by electrons:
     c_bands      :    623.43s CPU    647.68s WALL (      62 calls)
     sum_band     :    100.18s CPU    111.22s WALL (      62 calls)
     v_of_rho     :     11.21s CPU     12.19s WALL (      63 calls)
     newd         :     28.55s CPU     37.87s WALL (      63 calls)
     mix_rho      :     14.71s CPU     14.78s WALL (      62 calls)
     energy_londo :      0.09s CPU      0.09s WALL (       1 calls)

     Called by c_bands:
     init_us_2    :      1.74s CPU      1.81s WALL (     252 calls)
     init_us_2:cp :      1.74s CPU      1.81s WALL (     252 calls)
     regterg      :    609.64s CPU    633.67s WALL (     125 calls)

     Called by *egterg:
     rdiaghg      :    202.77s CPU    214.29s WALL (     592 calls)
     h_psi        :    226.35s CPU    232.19s WALL (     594 calls)
     s_psi        :     46.82s CPU     46.85s WALL (     594 calls)
     g_psi        :      0.34s CPU      0.34s WALL (     467 calls)

     Called by h_psi:
     h_psi:calbec :     59.16s CPU     63.83s WALL (     594 calls)
     vloc_psi     :    119.74s CPU    120.33s WALL (     594 calls)
     add_vuspsi   :     46.96s CPU     47.51s WALL (     594 calls)

     General routines
     calbec       :     87.43s CPU     94.23s WALL (     726 calls)
     fft          :     11.19s CPU     12.47s WALL (    1147 calls)
     ffts         :      9.40s CPU      9.43s WALL (    7611 calls)
     fftw         :    137.06s CPU    137.70s WALL (  211566 calls)
     interpolate  :      0.88s CPU      0.97s WALL (     126 calls)
 
     Parallel routines
 
     PWSCF        :  13m11.34s CPU  13m58.25s WALL

 
   This run was terminated on:   2:36:35  20Nov2025            

=------------------------------------------------------------------------------=
   JOB DONE.
=------------------------------------------------------------------------------=
