
     Program PWSCF v.7.2 starts on 20Nov2025 at  3:10:55 

     This program is part of the open-source Quantum ESPRESSO suite
     for quantum simulation of materials; please cite
         "P. Giannozzi et al., J. Phys.:Condens. Matter 21 395502 (2009);
         "P. Giannozzi et al., J. Phys.:Condens. Matter 29 465901 (2017);
         "P. Giannozzi et al., J. Chem. Phys. 152 154105 (2020);
          URL http://www.quantum-espresso.org", 
     in publications or presentations arising from this work. More details at
     http://www.quantum-espresso.org/quote

     Parallel version (MPI), running on    64 processors

     MPI processes distributed on     4 nodes
     386410 MiB available memory on the printing compute node when the environment starts
 
     Reading input from PWINPUT_atm158_zm

     Current dimensions of program PWSCF are:
     Max number of different atomic species (ntypx) = 10
     Max number of k-points (npk) =  40000
     Max angular momentum in pseudopotentials (lmaxx) =  4
     Presently no symmetry can be used with electric field

     file Ni.pbe-n-rrkjus_psl.1.0.0.UPF: wavefunction(s)  3D renormalized
     file Mn.pbe-spn-rrkjus_psl.0.3.1.UPF: wavefunction(s)  3D renormalized
     file O.pbe-rrkjus.UPF: wavefunction(s)  2S renormalized
     file H.pbe-rrkjus.UPF: wavefunction(s)  1S renormalized

     gamma-point specific algorithms are used
 
     R & G space division:  proc/nbgrp/npool/nimage =      64
     Subspace diagonalization in iterative solution of the eigenvalue problem:
     one sub-group per band group will be used
     custom distributed-memory algorithm (size of sub-group:  6*  6 procs)

 
     Parallelization info
     --------------------
     sticks:   dense  smooth     PW     G-vecs:    dense   smooth      PW
     Min         208      82     20                59912    15118    1876
     Max         210      84     22                59974    15196    1926
     Sum       13399    5355   1345              3836275   970529  121367
 
     Using Slab Decomposition
 


     bravais-lattice index     =            0
     lattice parameter (alat)  =      17.7004  a.u.
     unit-cell volume          =   20319.7251 (a.u.)^3
     number of atoms/cell      =          158
     number of atomic types    =            5
     number of electrons       =      1078.00
     number of Kohn-Sham states=          647
     kinetic-energy cutoff     =      50.0000  Ry
     charge density cutoff     =     500.0000  Ry
     scf convergence threshold =      1.0E-06
     mixing beta               =       0.5000
     number of iterations used =            8  local-TF  mixing
     Exchange-correlation=  SLA  PW   PBE  PBE
                           (   1   4   3   4   0   0   0)

     celldm(1)=  17.700384  celldm(2)=   0.000000  celldm(3)=   0.000000
     celldm(4)=   0.000000  celldm(5)=   0.000000  celldm(6)=   0.000000

     crystal axes: (cart. coord. in units of alat)
               a(1) = (   1.000000   0.000000   0.000000 )  
               a(2) = (   0.000000   1.075730   0.000000 )  
               a(3) = (   0.000000   0.000000   3.406172 )  

     reciprocal axes: (cart. coord. in units 2 pi/alat)
               b(1) = (  1.000000  0.000000  0.000000 )  
               b(2) = (  0.000000  0.929602  0.000000 )  
               b(3) = (  0.000000  0.000000  0.293585 )  


     PseudoPot. # 1 for Ni read from file:
     ~/PSEUDO/Ni.pbe-n-rrkjus_psl.1.0.0.UPF
     MD5 check sum: Not computed, couldn't open file
     Pseudo is Ultrasoft + core correction, Zval = 10.0
     Generated using "atomic" code by A. Dal Corso  v.5.1.2
     Using radial grid of 1195 points,  6 beta functions with: 
                l(1) =   0
                l(2) =   0
                l(3) =   1
                l(4) =   1
                l(5) =   2
                l(6) =   2
     Q(r) pseudized with 0 coefficients 


     PseudoPot. # 2 for Mn read from file:
     ~/PSEUDO/Mn.pbe-spn-rrkjus_psl.0.3.1.UPF
     MD5 check sum: Not computed, couldn't open file
     Pseudo is Ultrasoft + core correction, Zval = 15.0
     Generated using &quot;atomic&quot; code by A. Dal Corso  v.6.2.2
     Using radial grid of 1187 points,  6 beta functions with: 
                l(1) =   0
                l(2) =   0
                l(3) =   1
                l(4) =   1
                l(5) =   2
                l(6) =   2
     Q(r) pseudized with 0 coefficients 


     PseudoPot. # 3 for P  read from file:
     ~/PSEUDO/P.pbe-n-rrkjus_psl.1.0.0.UPF
     MD5 check sum: Not computed, couldn't open file
     Pseudo is Ultrasoft + core correction, Zval =  5.0
     Generated using "atomic" code by A. Dal Corso  v.5.1
     Using radial grid of 1147 points,  6 beta functions with: 
                l(1) =   0
                l(2) =   0
                l(3) =   1
                l(4) =   1
                l(5) =   2
                l(6) =   2
     Q(r) pseudized with 0 coefficients 


     PseudoPot. # 4 for O  read from file:
     ~/PSEUDO/O.pbe-rrkjus.UPF
     MD5 check sum: Not computed, couldn't open file
     Pseudo is Ultrasoft, Zval =  6.0
     Generated by new atomic code, or converted to UPF format
     Using radial grid of 1269 points,  4 beta functions with: 
                l(1) =   0
                l(2) =   0
                l(3) =   1
                l(4) =   1
     Q(r) pseudized with 0 coefficients 


     PseudoPot. # 5 for H  read from file:
     ~/PSEUDO/H.pbe-rrkjus.UPF
     MD5 check sum: Not computed, couldn't open file
     Pseudo is Ultrasoft, Zval =  1.0
     Generated by new atomic code, or converted to UPF format
     Using radial grid of 1061 points,  2 beta functions with: 
                l(1) =   0
                l(2) =   0
     Q(r) pseudized with 0 coefficients 


     atomic species   valence    mass     pseudopotential
     Ni               10.00    58.69300     Ni( 1.00)
     Mn               15.00    54.93800     Mn( 1.00)
     P                 5.00    30.97300     P ( 1.00)
     O                 6.00    15.99900     O ( 1.00)
     H                 1.00     1.00790     H ( 1.00)

     Starting magnetic structure 
     atomic species   magnetization
     Ni              1.000
     Mn              1.000
     P               1.000
     O               1.000
     H               0.000

     No symmetry found



   Cartesian axes

     site n.     atom                  positions (alat units)
         1        Mn     tau(   1) = (   0.2487148   0.8375267   1.6951957  )
         2        Ni     tau(   2) = (   0.4985680   0.7741854   1.3708613  )
         3        Ni     tau(   3) = (  -0.0011545   0.3006174   1.6748188  )
         4        Ni     tau(   4) = (   0.2613034   0.2387656   1.3682654  )
         5        Ni     tau(   5) = (   0.9963341   1.0779630   1.5338071  )
         6        Ni     tau(   6) = (   0.2553410   0.5376272   1.5302552  )
         7        Ni     tau(   7) = (   0.7421076   0.8435707   1.7073254  )
         8        Ni     tau(   8) = (   0.9925505   0.7752294   1.3710528  )
         9        Ni     tau(   9) = (   0.5021333   0.2954136   1.6750756  )
        10        Ni     tau(  10) = (   0.7611689   0.2373559   1.3675061  )
        11        Ni     tau(  11) = (   0.5009702   1.0742604   1.5366496  )
        12        Ni     tau(  12) = (   0.7544547   0.5384375   1.5322894  )
        13        P      tau(  13) = (   0.2115511   0.9728651   1.3803029  )
        14        P      tau(  14) = (   0.4665848   0.6401311   1.6901980  )
        15        P      tau(  15) = (   0.2857882   0.1150193   1.6956783  )
        16        P      tau(  16) = (   0.0437806   0.4336934   1.3698950  )
        17        O      tau(  17) = (   0.1341895   0.9017796   1.5160649  )
        18        O      tau(  18) = (   0.3918354   0.7064542   1.5480543  )
        19        O      tau(  19) = (   0.3659047   0.1699051   1.5489901  )
        20        O      tau(  20) = (   0.1220478   0.3634760   1.5065536  )
        21        O      tau(  21) = (   0.1491769   0.8830546   1.2562069  )
        22        O      tau(  22) = (   0.4014483   0.7325987   1.8096174  )
        23        O      tau(  23) = (   0.3477141   0.2121598   1.8095684  )
        24        O      tau(  24) = (   0.1043448   0.3449385   1.2442231  )
        25        O      tau(  25) = (   0.1038610   0.5888479   1.3734716  )
        26        O      tau(  26) = (   0.3384087   1.0313531   1.6992469  )
        27        O      tau(  27) = (   0.3808703   0.4260931   1.3818057  )
        28        O      tau(  28) = (   0.1211112   0.1186251   1.6801879  )
        29        O      tau(  29) = (   0.1290557   0.6512937   1.6784404  )
        30        O      tau(  30) = (   0.4077914   0.4842311   1.6878311  )
        31        O      tau(  31) = (   0.1525182   0.0517135   1.3798448  )
        32        O      tau(  32) = (   0.3752655   0.9631458   1.3897289  )
        33        P      tau(  33) = (   0.7115935   0.9699435   1.3754512  )
        34        P      tau(  34) = (   0.9627941   0.6488001   1.6882550  )
        35        P      tau(  35) = (   0.7877941   0.1135143   1.6933997  )
        36        P      tau(  36) = (   0.5450057   0.4319961   1.3698026  )
        37        O      tau(  37) = (   0.6347424   0.8975550   1.5107968  )
        38        O      tau(  38) = (   0.8874360   0.7086109   1.5448689  )
        39        O      tau(  39) = (   0.8663690   0.1747348   1.5464995  )
        40        O      tau(  40) = (   0.6223636   0.3611942   1.5061123  )
        41        O      tau(  41) = (   0.6513775   0.8826145   1.2479475  )
        42        O      tau(  42) = (   0.9079471   0.7471932   1.8059270  )
        43        O      tau(  43) = (   0.8460393   0.2141480   1.8067812  )
        44        O      tau(  44) = (   0.6057326   0.3434800   1.2439494  )
        45        O      tau(  45) = (   0.6051788   0.5869386   1.3743458  )
        46        O      tau(  46) = (   0.8485507   1.0338148   1.6901252  )
        47        O      tau(  47) = (   0.8800306   0.4271144   1.3821281  )
        48        O      tau(  48) = (   0.6230808   0.1160198   1.6767091  )
        49        O      tau(  49) = (   0.6309458   0.6452848   1.6833570  )
        50        O      tau(  50) = (   0.9073287   0.4911282   1.6902526  )
        51        O      tau(  51) = (   0.6516592   0.0493454   1.3784195  )
        52        O      tau(  52) = (   0.8758524   0.9648084   1.3850114  )
        53        Mn     tau(  53) = (   0.2404744   0.8246335   1.0701417  )
        54        Ni     tau(  54) = (   0.4968126   0.7601755   0.7454373  )
        55        Ni     tau(  55) = (   0.0066150   0.2811828   1.0628866  )
        56        Ni     tau(  56) = (   0.2585722   0.2230943   0.7421070  )
        57        Ni     tau(  57) = (   0.9987350   1.0571496   0.9014992  )
        58        Ni     tau(  58) = (   0.2517397   0.5205596   0.9040596  )
        59        Ni     tau(  59) = (   0.7451645   0.8212628   1.0648168  )
        60        Ni     tau(  60) = (   0.9939181   0.7613889   0.7462324  )
        61        Ni     tau(  61) = (   0.5111533   0.2799173   1.0618053  )
        62        Ni     tau(  62) = (   0.7606326   0.2194352   0.7418547  )
        63        Ni     tau(  63) = (   0.5024065   1.0563218   0.8999416  )
        64        Ni     tau(  64) = (   0.7529977   0.5192985   0.9024691  )
        65        P      tau(  65) = (   0.2092944   0.9606182   0.7524883  )
        66        P      tau(  66) = (   0.4655727   0.6234620   1.0595283  )
        67        P      tau(  67) = (   0.2910699   0.0902448   1.0573821  )
        68        P      tau(  68) = (   0.0396216   0.4163480   0.7471080  )
        69        O      tau(  69) = (   0.1294378   0.8888345   0.8859300  )
        70        O      tau(  70) = (   0.3874505   0.6929859   0.9232915  )
        71        O      tau(  71) = (   0.3702540   0.1589885   0.9209891  )
        72        O      tau(  72) = (   0.1184398   0.3458043   0.8831565  )
        73        O      tau(  73) = (   0.1451572   0.8725966   0.6282341  )
        74        O      tau(  74) = (   0.4048762   0.7120670   1.1852426  )
        75        O      tau(  75) = (   0.3523506   0.1775664   1.1834175  )
        76        O      tau(  76) = (   0.1017610   0.3285569   0.6213347  )
        77        O      tau(  77) = (   0.0975396   0.5724373   0.7511996  )
        78        O      tau(  78) = (   0.3483552   1.0190030   1.0599597  )
        79        O      tau(  79) = (   0.3784305   0.4100203   0.7560991  )
        80        O      tau(  80) = (   0.1268237   0.0943029   1.0477175  )
        81        O      tau(  81) = (   0.1212267   0.6299255   1.0507023  )
        82        O      tau(  82) = (   0.4053315   0.4684472   1.0569297  )
        83        O      tau(  83) = (   0.1536621   0.0322003   0.7496532  )
        84        O      tau(  84) = (   0.3732349   0.9506802   0.7613277  )
        85        P      tau(  85) = (   0.7119823   0.9571059   0.7496908  )
        86        P      tau(  86) = (   0.9615208   0.6238477   1.0606987  )
        87        P      tau(  87) = (   0.7927710   0.0845145   1.0577754  )
        88        P      tau(  88) = (   0.5426404   0.4144760   0.7459181  )
        89        O      tau(  89) = (   0.6326879   0.8866267   0.8856678  )
        90        O      tau(  90) = (   0.8842163   0.6958291   0.9244764  )
        91        O      tau(  91) = (   0.8716178   0.1552836   0.9216415  )
        92        O      tau(  92) = (   0.6212010   0.3433751   0.8818834  )
        93        O      tau(  93) = (   0.6507714   0.8687427   0.6238197  )
        94        O      tau(  94) = (   0.9014054   0.7139543   1.1859242  )
        95        O      tau(  95) = (   0.8548963   0.1722994   1.1834447  )
        96        O      tau(  96) = (   0.6044469   0.3253792   0.6209553  )
        97        O      tau(  97) = (   0.6024424   0.5698225   0.7490903  )
        98        O      tau(  98) = (   0.8498940   1.0129567   1.0594762  )
        99        O      tau(  99) = (   0.8798395   0.4080910   0.7564148  )
       100        O      tau( 100) = (   0.6286921   0.0909721   1.0472573  )
       101        O      tau( 101) = (   0.6294973   0.6302838   1.0497366  )
       102        O      tau( 102) = (   0.9024339   0.4685397   1.0573501  )
       103        O      tau( 103) = (   0.6547812   0.0286072   0.7473283  )
       104        O      tau( 104) = (   0.8760507   0.9507690   0.7605412  )
       105        Mn     tau( 105) = (   0.2404744   0.8121420   0.4502541  )
       106        Ni     tau( 106) = (   0.4968126   0.7476840   0.1255496  )
       107        Ni     tau( 107) = (   0.0066150   0.2686914   0.4429989  )
       108        Ni     tau( 108) = (   0.2585722   0.2106028   0.1222194  )
       109        Ni     tau( 109) = (   0.9987350   1.0446581   0.2816116  )
       110        Ni     tau( 110) = (   0.2517397   0.5080681   0.2841720  )
       111        Ni     tau( 111) = (   0.7451645   0.8087713   0.4449291  )
       112        Ni     tau( 112) = (   0.9939181   0.7488974   0.1263448  )
       113        Ni     tau( 113) = (   0.5111533   0.2674258   0.4419177  )
       114        Ni     tau( 114) = (   0.7606326   0.2069438   0.1219670  )
       115        Ni     tau( 115) = (   0.5024065   1.0438304   0.2800540  )
       116        Ni     tau( 116) = (   0.7529977   0.5068070   0.2825815  )
       117        P      tau( 117) = (   0.2092944   0.9481267   0.1326007  )
       118        P      tau( 118) = (   0.4655727   0.6109705   0.4396407  )
       119        P      tau( 119) = (   0.2910699   0.0777534   0.4374945  )
       120        P      tau( 120) = (   0.0396216   0.4038566   0.1272204  )
       121        O      tau( 121) = (   0.1294378   0.8763430   0.2660424  )
       122        O      tau( 122) = (   0.3874505   0.6804944   0.3034039  )
       123        O      tau( 123) = (   0.3702540   0.1464970   0.3011014  )
       124        O      tau( 124) = (   0.1184398   0.3333129   0.2632689  )
       125        O      tau( 125) = (   0.1451572   0.8601051   0.0083464  )
       126        O      tau( 126) = (   0.4048762   0.6995756   0.5653550  )
       127        O      tau( 127) = (   0.3523506   0.1650749   0.5635298  )
       128        O      tau( 128) = (   0.1017610   0.3160655   0.0014470  )
       129        O      tau( 129) = (   0.0975396   0.5599458   0.1313120  )
       130        O      tau( 130) = (   0.3483552   1.0065115   0.4400720  )
       131        O      tau( 131) = (   0.3784305   0.3975288   0.1362114  )
       132        O      tau( 132) = (   0.1268237   0.0818115   0.4278298  )
       133        O      tau( 133) = (   0.1212267   0.6174340   0.4308146  )
       134        O      tau( 134) = (   0.4053315   0.4559557   0.4370420  )
       135        O      tau( 135) = (   0.1536621   0.0197088   0.1297656  )
       136        O      tau( 136) = (   0.3732349   0.9381887   0.1414400  )
       137        P      tau( 137) = (   0.7119823   0.9446144   0.1298032  )
       138        P      tau( 138) = (   0.9615208   0.6113562   0.4408111  )
       139        P      tau( 139) = (   0.7927710   0.0720230   0.4378878  )
       140        P      tau( 140) = (   0.5426404   0.4019845   0.1260304  )
       141        O      tau( 141) = (   0.6326879   0.8741353   0.2657802  )
       142        O      tau( 142) = (   0.8842163   0.6833376   0.3045887  )
       143        O      tau( 143) = (   0.8716178   0.1427921   0.3017538  )
       144        O      tau( 144) = (   0.6212010   0.3308836   0.2619957  )
       145        O      tau( 145) = (   0.6507714   0.8562512   0.0039320  )
       146        O      tau( 146) = (   0.9014054   0.7014628   0.5660366  )
       147        O      tau( 147) = (   0.8548963   0.1598079   0.5635571  )
       148        O      tau( 148) = (   0.6044469   0.3128877   0.0010676  )
       149        O      tau( 149) = (   0.6024424   0.5573310   0.1292027  )
       150        O      tau( 150) = (   0.8498940   1.0004653   0.4395886  )
       151        O      tau( 151) = (   0.8798395   0.3955995   0.1365272  )
       152        O      tau( 152) = (   0.6286921   0.0784807   0.4273696  )
       153        O      tau( 153) = (   0.6294973   0.6177923   0.4298489  )
       154        O      tau( 154) = (   0.9024339   0.4560482   0.4374624  )
       155        O      tau( 155) = (   0.6547812   0.0161158   0.1274406  )
       156        O      tau( 156) = (   0.8760507   0.9382775   0.1406535  )
       157        O      tau( 157) = (   0.6290941   0.9242713   1.8436369  )
       158        H      tau( 158) = (   0.5523937   0.8599107   1.8751061  )

     -------------------------------------------------
     Parameters for Dispersion (Grimme-D2) Correction:
     -------------------------------------------------
       atom      VdW radius       C_6     

        Ni         2.952        374.666
        Mn         2.952        374.666
        P          3.222        271.980
        O          2.536         24.284
        H          1.892          4.857

     number of k points=     1  Gaussian smearing, width (Ry)=  0.0100
                       cart. coord. in units 2pi/alat
        k(    1) = (   0.0000000   0.0000000   0.0000000), wk =   1.0000000

     Dense  grid:  1918138 G-vectors     FFT dimensions: ( 125, 135, 432)

     Smooth grid:   485265 G-vectors     FFT dimensions: (  80,  90, 288)

     Estimated max dynamical RAM per process >     320.12 MB

     Estimated total dynamical RAM >      20.01 GB
     Generating pointlists ...
     new r_m :   0.0803 (alat units)  1.4208 (a.u.) for type    1
     new r_m :   0.0869 (alat units)  1.5388 (a.u.) for type    2
     new r_m :   0.0650 (alat units)  1.1499 (a.u.) for type    3
     new r_m :   0.0433 (alat units)  0.7663 (a.u.) for type    4
     new r_m :   0.0433 (alat units)  0.7663 (a.u.) for type    5

     Initial potential from superposition of free atoms

     starting charge    1077.8900, renormalised to    1078.0000

     negative rho (up, down):  1.229E-03 4.510E-04
 
     Adding external electric field

     Computed dipole along edir(3) : 
        Dipole                1.6360 Ry au,          4.1584 Debye
        Dipole field          0.0010 Ry au, 
 
        Potential amp.       -0.1098 Ry
        Total length         54.2615 bohr
 
 
     Adding external electric field

     Computed dipole along edir(3) : 
        Dipole                1.6360 Ry au,          4.1584 Debye
        Dipole field          0.0010 Ry au, 
 
        Potential amp.       -0.1098 Ry
        Total length         54.2615 bohr
 
     Starting wfcs are  812 randomized atomic wfcs

     total cpu time spent up to now is        9.9 secs

     Self-consistent Calculation

     iteration #  1     ecut=    50.00 Ry     beta= 0.50
     Davidson diagonalization with overlap
     ethr =  1.00E-02,  avg # of iterations =  6.0

     negative rho (up, down):  2.324E+00 4.571E-06
 
     Adding external electric field

     Computed dipole along edir(3) : 
        Dipole              -24.4414 Ry au,        -62.1237 Debye
        Dipole field         -0.0151 Ry au, 
 
        Potential amp.        1.6404 Ry
        Total length         54.2615 bohr
 
 
     Adding external electric field

     Computed dipole along edir(3) : 
        Dipole              -24.4414 Ry au,        -62.1237 Debye
        Dipole field         -0.0151 Ry au, 
 
        Potential amp.        1.6404 Ry
        Total length         54.2615 bohr
 

     total cpu time spent up to now is       35.5 secs

     total energy              =   -7199.81690160 Ry
     estimated scf accuracy    <     731.23685583 Ry

     total magnetization       =   216.00 Bohr mag/cell
     absolute magnetization    =   298.10 Bohr mag/cell

     iteration #  2     ecut=    50.00 Ry     beta= 0.50
     Davidson diagonalization with overlap
     ethr =  1.00E-02,  avg # of iterations =  7.0

     negative rho (up, down):  2.382E+00 1.741E-05
 
     Adding external electric field

     Computed dipole along edir(3) : 
        Dipole                0.0782 Ry au,          0.1988 Debye
        Dipole field          0.0000 Ry au, 
 
        Potential amp.       -0.0052 Ry
        Total length         54.2615 bohr
 
 
     Adding external electric field

     Computed dipole along edir(3) : 
        Dipole                0.0782 Ry au,          0.1988 Debye
        Dipole field          0.0000 Ry au, 
 
        Potential amp.       -0.0052 Ry
        Total length         54.2615 bohr
 

     total cpu time spent up to now is       61.1 secs

     total energy              =   -7294.25585364 Ry
     estimated scf accuracy    <    8977.41972586 Ry

     total magnetization       =   112.78 Bohr mag/cell
     absolute magnetization    =   156.89 Bohr mag/cell

     iteration #  3     ecut=    50.00 Ry     beta= 0.50
     Davidson diagonalization with overlap
     ethr =  1.00E-02,  avg # of iterations =  6.5

     negative rho (up, down):  1.760E+00 1.838E-05
 
     Adding external electric field

     Computed dipole along edir(3) : 
        Dipole               -2.3329 Ry au,         -5.9296 Debye
        Dipole field         -0.0014 Ry au, 
 
        Potential amp.        0.1566 Ry
        Total length         54.2615 bohr
 
 
     Adding external electric field

     Computed dipole along edir(3) : 
        Dipole               -2.3329 Ry au,         -5.9296 Debye
        Dipole field         -0.0014 Ry au, 
 
        Potential amp.        0.1566 Ry
        Total length         54.2615 bohr
 

     total cpu time spent up to now is       77.6 secs

     total energy              =   -7362.51229973 Ry
     estimated scf accuracy    <     713.24740597 Ry

     total magnetization       =   123.86 Bohr mag/cell
     absolute magnetization    =   164.68 Bohr mag/cell

     iteration #  4     ecut=    50.00 Ry     beta= 0.50
     Davidson diagonalization with overlap
     ethr =  1.00E-02,  avg # of iterations =  4.0

     negative rho (up, down):  1.230E+00 5.357E-05
 
     Adding external electric field

     Computed dipole along edir(3) : 
        Dipole               -2.7287 Ry au,         -6.9356 Debye
        Dipole field         -0.0017 Ry au, 
 
        Potential amp.        0.1831 Ry
        Total length         54.2615 bohr
 
 
     Adding external electric field

     Computed dipole along edir(3) : 
        Dipole               -2.7287 Ry au,         -6.9356 Debye
        Dipole field         -0.0017 Ry au, 
 
        Potential amp.        0.1831 Ry
        Total length         54.2615 bohr
 

     total cpu time spent up to now is       91.8 secs

     total energy              =   -7378.89504167 Ry
     estimated scf accuracy    <     104.90388961 Ry

     total magnetization       =    84.28 Bohr mag/cell
     absolute magnetization    =   129.96 Bohr mag/cell

     iteration #  5     ecut=    50.00 Ry     beta= 0.50
     Davidson diagonalization with overlap
     ethr =  9.73E-03,  avg # of iterations =  1.5

     negative rho (up, down):  5.096E-01 5.644E-06
 
     Adding external electric field

     Computed dipole along edir(3) : 
        Dipole               -3.1003 Ry au,         -7.8803 Debye
        Dipole field         -0.0019 Ry au, 
 
        Potential amp.        0.2081 Ry
        Total length         54.2615 bohr
 
 
     Adding external electric field

     Computed dipole along edir(3) : 
        Dipole               -3.1003 Ry au,         -7.8803 Debye
        Dipole field         -0.0019 Ry au, 
 
        Potential amp.        0.2081 Ry
        Total length         54.2615 bohr
 

     total cpu time spent up to now is      103.3 secs

     total energy              =   -7390.01983777 Ry
     estimated scf accuracy    <      67.47531624 Ry

     total magnetization       =    82.01 Bohr mag/cell
     absolute magnetization    =   119.21 Bohr mag/cell

     iteration #  6     ecut=    50.00 Ry     beta= 0.50
     Davidson diagonalization with overlap
     ethr =  6.26E-03,  avg # of iterations =  1.0

     negative rho (up, down):  1.636E-01 1.484E-06
 
     Adding external electric field

     Computed dipole along edir(3) : 
        Dipole               -3.4769 Ry au,         -8.8373 Debye
        Dipole field         -0.0022 Ry au, 
 
        Potential amp.        0.2333 Ry
        Total length         54.2615 bohr
 
 
     Adding external electric field

     Computed dipole along edir(3) : 
        Dipole               -3.4769 Ry au,         -8.8373 Debye
        Dipole field         -0.0022 Ry au, 
 
        Potential amp.        0.2333 Ry
        Total length         54.2615 bohr
 

     total cpu time spent up to now is      114.8 secs

     total energy              =   -7394.18101566 Ry
     estimated scf accuracy    <      25.56541339 Ry

     total magnetization       =    81.68 Bohr mag/cell
     absolute magnetization    =   106.76 Bohr mag/cell

     iteration #  7     ecut=    50.00 Ry     beta= 0.50
     Davidson diagonalization with overlap
     ethr =  2.37E-03,  avg # of iterations =  2.0

     negative rho (up, down):  2.439E-04 3.368E-03
 
     Adding external electric field

     Computed dipole along edir(3) : 
        Dipole               -3.8147 Ry au,         -9.6959 Debye
        Dipole field         -0.0024 Ry au, 
 
        Potential amp.        0.2560 Ry
        Total length         54.2615 bohr
 
 
     Adding external electric field

     Computed dipole along edir(3) : 
        Dipole               -3.8147 Ry au,         -9.6959 Debye
        Dipole field         -0.0024 Ry au, 
 
        Potential amp.        0.2560 Ry
        Total length         54.2615 bohr
 

     total cpu time spent up to now is      127.1 secs

     total energy              =   -7395.88686226 Ry
     estimated scf accuracy    <      59.06802491 Ry

     total magnetization       =    76.02 Bohr mag/cell
     absolute magnetization    =    93.67 Bohr mag/cell

     iteration #  8     ecut=    50.00 Ry     beta= 0.50
     Davidson diagonalization with overlap
     ethr =  2.37E-03,  avg # of iterations =  2.0

     negative rho (up, down):  3.399E-05 4.867E-03
 
     Adding external electric field

     Computed dipole along edir(3) : 
        Dipole               -3.8451 Ry au,         -9.7734 Debye
        Dipole field         -0.0024 Ry au, 
 
        Potential amp.        0.2581 Ry
        Total length         54.2615 bohr
 
 
     Adding external electric field

     Computed dipole along edir(3) : 
        Dipole               -3.8451 Ry au,         -9.7734 Debye
        Dipole field         -0.0024 Ry au, 
 
        Potential amp.        0.2581 Ry
        Total length         54.2615 bohr
 

     total cpu time spent up to now is      139.7 secs

     total energy              =   -7397.54483697 Ry
     estimated scf accuracy    <      31.68678951 Ry

     total magnetization       =    75.24 Bohr mag/cell
     absolute magnetization    =    85.37 Bohr mag/cell

     iteration #  9     ecut=    50.00 Ry     beta= 0.50
     Davidson diagonalization with overlap
     ethr =  2.37E-03,  avg # of iterations =  1.5

     negative rho (up, down):  1.252E-05 5.869E-03
 
     Adding external electric field

     Computed dipole along edir(3) : 
        Dipole               -3.8677 Ry au,         -9.8307 Debye
        Dipole field         -0.0024 Ry au, 
 
        Potential amp.        0.2596 Ry
        Total length         54.2615 bohr
 
 
     Adding external electric field

     Computed dipole along edir(3) : 
        Dipole               -3.8677 Ry au,         -9.8307 Debye
        Dipole field         -0.0024 Ry au, 
 
        Potential amp.        0.2596 Ry
        Total length         54.2615 bohr
 

     total cpu time spent up to now is      150.9 secs

     total energy              =   -7397.78391674 Ry
     estimated scf accuracy    <      11.25985743 Ry

     total magnetization       =    79.17 Bohr mag/cell
     absolute magnetization    =    87.72 Bohr mag/cell

     iteration # 10     ecut=    50.00 Ry     beta= 0.50
     Davidson diagonalization with overlap
     ethr =  1.04E-03,  avg # of iterations =  5.5

     negative rho (up, down):  3.240E-05 1.842E-02
 
     Adding external electric field

     Computed dipole along edir(3) : 
        Dipole               -3.8569 Ry au,         -9.8032 Debye
        Dipole field         -0.0024 Ry au, 
 
        Potential amp.        0.2589 Ry
        Total length         54.2615 bohr
 
 
     Adding external electric field

     Computed dipole along edir(3) : 
        Dipole               -3.8569 Ry au,         -9.8032 Debye
        Dipole field         -0.0024 Ry au, 
 
        Potential amp.        0.2589 Ry
        Total length         54.2615 bohr
 

     total cpu time spent up to now is      164.3 secs

     total energy              =   -7398.01009412 Ry
     estimated scf accuracy    <       6.17155074 Ry

     total magnetization       =    79.62 Bohr mag/cell
     absolute magnetization    =    86.82 Bohr mag/cell

     iteration # 11     ecut=    50.00 Ry     beta= 0.50
     Davidson diagonalization with overlap
     ethr =  5.73E-04,  avg # of iterations =  7.5

     negative rho (up, down):  3.444E-09 2.368E-03
 
     Adding external electric field

     Computed dipole along edir(3) : 
        Dipole               -3.5862 Ry au,         -9.1152 Debye
        Dipole field         -0.0022 Ry au, 
 
        Potential amp.        0.2407 Ry
        Total length         54.2615 bohr
 
 
     Adding external electric field

     Computed dipole along edir(3) : 
        Dipole               -3.5862 Ry au,         -9.1152 Debye
        Dipole field         -0.0022 Ry au, 
 
        Potential amp.        0.2407 Ry
        Total length         54.2615 bohr
 

     total cpu time spent up to now is      181.8 secs

     total energy              =   -7398.04089247 Ry
     estimated scf accuracy    <       6.74421657 Ry

     total magnetization       =    78.58 Bohr mag/cell
     absolute magnetization    =    83.47 Bohr mag/cell

     iteration # 12     ecut=    50.00 Ry     beta= 0.50
     Davidson diagonalization with overlap
     ethr =  5.73E-04,  avg # of iterations =  1.0

     negative rho (up, down):  4.598E-08 1.912E-03
 
     Adding external electric field

     Computed dipole along edir(3) : 
        Dipole               -3.4810 Ry au,         -8.8478 Debye
        Dipole field         -0.0022 Ry au, 
 
        Potential amp.        0.2336 Ry
        Total length         54.2615 bohr
 
 
     Adding external electric field

     Computed dipole along edir(3) : 
        Dipole               -3.4810 Ry au,         -8.8478 Debye
        Dipole field         -0.0022 Ry au, 
 
        Potential amp.        0.2336 Ry
        Total length         54.2615 bohr
 

     total cpu time spent up to now is      192.1 secs

     total energy              =   -7398.11032999 Ry
     estimated scf accuracy    <      10.78733949 Ry

     total magnetization       =    75.26 Bohr mag/cell
     absolute magnetization    =    79.28 Bohr mag/cell

     iteration # 13     ecut=    50.00 Ry     beta= 0.50
     Davidson diagonalization with overlap
     ethr =  5.73E-04,  avg # of iterations =  1.5

     negative rho (up, down):  1.758E-05 6.537E-04
 
     Adding external electric field

     Computed dipole along edir(3) : 
        Dipole               -2.9911 Ry au,         -7.6026 Debye
        Dipole field         -0.0018 Ry au, 
 
        Potential amp.        0.2007 Ry
        Total length         54.2615 bohr
 
 
     Adding external electric field

     Computed dipole along edir(3) : 
        Dipole               -2.9911 Ry au,         -7.6026 Debye
        Dipole field         -0.0018 Ry au, 
 
        Potential amp.        0.2007 Ry
        Total length         54.2615 bohr
 

     total cpu time spent up to now is      202.4 secs

     total energy              =   -7398.05039796 Ry
     estimated scf accuracy    <      12.43561337 Ry

     total magnetization       =    77.28 Bohr mag/cell
     absolute magnetization    =    80.68 Bohr mag/cell

     iteration # 14     ecut=    50.00 Ry     beta= 0.50
     Davidson diagonalization with overlap
     ethr =  5.73E-04,  avg # of iterations =  1.5

     negative rho (up, down):  3.657E-03 1.177E-02
 
     Adding external electric field

     Computed dipole along edir(3) : 
        Dipole               -2.6945 Ry au,         -6.8488 Debye
        Dipole field         -0.0017 Ry au, 
 
        Potential amp.        0.1808 Ry
        Total length         54.2615 bohr
 
 
     Adding external electric field

     Computed dipole along edir(3) : 
        Dipole               -2.6945 Ry au,         -6.8488 Debye
        Dipole field         -0.0017 Ry au, 
 
        Potential amp.        0.1808 Ry
        Total length         54.2615 bohr
 

     total cpu time spent up to now is      213.1 secs

     total energy              =   -7398.01471361 Ry
     estimated scf accuracy    <       5.97851672 Ry

     total magnetization       =    78.31 Bohr mag/cell
     absolute magnetization    =    80.62 Bohr mag/cell

     iteration # 15     ecut=    50.00 Ry     beta= 0.50
     Davidson diagonalization with overlap
     ethr =  5.55E-04,  avg # of iterations =  1.5

     negative rho (up, down):  1.272E-02 3.231E-02
 
     Adding external electric field

     Computed dipole along edir(3) : 
        Dipole               -2.2700 Ry au,         -5.7698 Debye
        Dipole field         -0.0014 Ry au, 
 
        Potential amp.        0.1523 Ry
        Total length         54.2615 bohr
 
 
     Adding external electric field

     Computed dipole along edir(3) : 
        Dipole               -2.2700 Ry au,         -5.7698 Debye
        Dipole field         -0.0014 Ry au, 
 
        Potential amp.        0.1523 Ry
        Total length         54.2615 bohr
 

     total cpu time spent up to now is      224.1 secs

     total energy              =   -7397.98597623 Ry
     estimated scf accuracy    <       3.84001504 Ry

     total magnetization       =    78.55 Bohr mag/cell
     absolute magnetization    =    80.28 Bohr mag/cell

     iteration # 16     ecut=    50.00 Ry     beta= 0.50
     Davidson diagonalization with overlap
     ethr =  3.56E-04,  avg # of iterations =  1.5

     negative rho (up, down):  7.328E-05 3.303E-05
 
     Adding external electric field

     Computed dipole along edir(3) : 
        Dipole               -2.3147 Ry au,         -5.8833 Debye
        Dipole field         -0.0014 Ry au, 
 
        Potential amp.        0.1553 Ry
        Total length         54.2615 bohr
 
 
     Adding external electric field

     Computed dipole along edir(3) : 
        Dipole               -2.3147 Ry au,         -5.8833 Debye
        Dipole field         -0.0014 Ry au, 
 
        Potential amp.        0.1553 Ry
        Total length         54.2615 bohr
 

     total cpu time spent up to now is      235.1 secs

     total energy              =   -7397.98576361 Ry
     estimated scf accuracy    <       1.64701754 Ry

     total magnetization       =    79.58 Bohr mag/cell
     absolute magnetization    =    80.74 Bohr mag/cell

     iteration # 17     ecut=    50.00 Ry     beta= 0.50
     Davidson diagonalization with overlap
     ethr =  1.53E-04,  avg # of iterations =  9.5

     negative rho (up, down):  1.116E-05 1.748E-07
 
     Adding external electric field

     Computed dipole along edir(3) : 
        Dipole               -2.1655 Ry au,         -5.5042 Debye
        Dipole field         -0.0013 Ry au, 
 
        Potential amp.        0.1453 Ry
        Total length         54.2615 bohr
 
 
     Adding external electric field

     Computed dipole along edir(3) : 
        Dipole               -2.1655 Ry au,         -5.5042 Debye
        Dipole field         -0.0013 Ry au, 
 
        Potential amp.        0.1453 Ry
        Total length         54.2615 bohr
 

     total cpu time spent up to now is      254.1 secs

     total energy              =   -7398.03406736 Ry
     estimated scf accuracy    <       0.56735136 Ry

     total magnetization       =    80.42 Bohr mag/cell
     absolute magnetization    =    82.11 Bohr mag/cell

     iteration # 18     ecut=    50.00 Ry     beta= 0.50
     Davidson diagonalization with overlap
     ethr =  5.26E-05,  avg # of iterations =  2.0

     negative rho (up, down):  7.731E-07 0.000E+00
 
     Adding external electric field

     Computed dipole along edir(3) : 
        Dipole               -1.7668 Ry au,         -4.4906 Debye
        Dipole field         -0.0011 Ry au, 
 
        Potential amp.        0.1186 Ry
        Total length         54.2615 bohr
 
 
     Adding external electric field

     Computed dipole along edir(3) : 
        Dipole               -1.7668 Ry au,         -4.4906 Debye
        Dipole field         -0.0011 Ry au, 
 
        Potential amp.        0.1186 Ry
        Total length         54.2615 bohr
 

     total cpu time spent up to now is      266.0 secs

     total energy              =   -7398.04212059 Ry
     estimated scf accuracy    <       0.31777409 Ry

     total magnetization       =    81.08 Bohr mag/cell
     absolute magnetization    =    82.80 Bohr mag/cell

     iteration # 19     ecut=    50.00 Ry     beta= 0.50
     Davidson diagonalization with overlap
     ethr =  2.95E-05,  avg # of iterations = 11.0

     negative rho (up, down):  1.500E-08 0.000E+00
 
     Adding external electric field

     Computed dipole along edir(3) : 
        Dipole               -1.4936 Ry au,         -3.7962 Debye
        Dipole field         -0.0009 Ry au, 
 
        Potential amp.        0.1002 Ry
        Total length         54.2615 bohr
 
 
     Adding external electric field

     Computed dipole along edir(3) : 
        Dipole               -1.4936 Ry au,         -3.7962 Debye
        Dipole field         -0.0009 Ry au, 
 
        Potential amp.        0.1002 Ry
        Total length         54.2615 bohr
 

     total cpu time spent up to now is      286.5 secs

     total energy              =   -7398.04282266 Ry
     estimated scf accuracy    <       0.10342331 Ry

     total magnetization       =    80.66 Bohr mag/cell
     absolute magnetization    =    82.37 Bohr mag/cell

     iteration # 20     ecut=    50.00 Ry     beta= 0.50
     Davidson diagonalization with overlap
     c_bands:  5 eigenvalues not converged
     ethr =  9.59E-06,  avg # of iterations = 11.0
 
     Adding external electric field

     Computed dipole along edir(3) : 
        Dipole               -1.5279 Ry au,         -3.8836 Debye
        Dipole field         -0.0009 Ry au, 
 
        Potential amp.        0.1025 Ry
        Total length         54.2615 bohr
 
 
     Adding external electric field

     Computed dipole along edir(3) : 
        Dipole               -1.5279 Ry au,         -3.8836 Debye
        Dipole field         -0.0009 Ry au, 
 
        Potential amp.        0.1025 Ry
        Total length         54.2615 bohr
 

     total cpu time spent up to now is      304.0 secs

     total energy              =   -7398.04756530 Ry
     estimated scf accuracy    <       0.28940608 Ry

     total magnetization       =    80.09 Bohr mag/cell
     absolute magnetization    =    81.80 Bohr mag/cell

     iteration # 21     ecut=    50.00 Ry     beta= 0.50
     Davidson diagonalization with overlap
     ethr =  9.59E-06,  avg # of iterations =  1.5
 
     Adding external electric field

     Computed dipole along edir(3) : 
        Dipole               -1.4207 Ry au,         -3.6111 Debye
        Dipole field         -0.0009 Ry au, 
 
        Potential amp.        0.0953 Ry
        Total length         54.2615 bohr
 
 
     Adding external electric field

     Computed dipole along edir(3) : 
        Dipole               -1.4207 Ry au,         -3.6111 Debye
        Dipole field         -0.0009 Ry au, 
 
        Potential amp.        0.0953 Ry
        Total length         54.2615 bohr
 

     total cpu time spent up to now is      314.3 secs

     total energy              =   -7398.04894089 Ry
     estimated scf accuracy    <       0.15338395 Ry

     total magnetization       =    80.48 Bohr mag/cell
     absolute magnetization    =    82.19 Bohr mag/cell

     iteration # 22     ecut=    50.00 Ry     beta= 0.50
     Davidson diagonalization with overlap
     ethr =  9.59E-06,  avg # of iterations =  1.0
 
     Adding external electric field

     Computed dipole along edir(3) : 
        Dipole               -1.4360 Ry au,         -3.6499 Debye
        Dipole field         -0.0009 Ry au, 
 
        Potential amp.        0.0964 Ry
        Total length         54.2615 bohr
 
 
     Adding external electric field

     Computed dipole along edir(3) : 
        Dipole               -1.4360 Ry au,         -3.6499 Debye
        Dipole field         -0.0009 Ry au, 
 
        Potential amp.        0.0964 Ry
        Total length         54.2615 bohr
 

     total cpu time spent up to now is      324.5 secs

     total energy              =   -7398.04844436 Ry
     estimated scf accuracy    <       0.32205203 Ry

     total magnetization       =    79.97 Bohr mag/cell
     absolute magnetization    =    81.67 Bohr mag/cell

     iteration # 23     ecut=    50.00 Ry     beta= 0.50
     Davidson diagonalization with overlap
     ethr =  9.59E-06,  avg # of iterations =  1.5
 
     Adding external electric field

     Computed dipole along edir(3) : 
        Dipole               -1.4151 Ry au,         -3.5969 Debye
        Dipole field         -0.0009 Ry au, 
 
        Potential amp.        0.0950 Ry
        Total length         54.2615 bohr
 
 
     Adding external electric field

     Computed dipole along edir(3) : 
        Dipole               -1.4151 Ry au,         -3.5969 Debye
        Dipole field         -0.0009 Ry au, 
 
        Potential amp.        0.0950 Ry
        Total length         54.2615 bohr
 

     total cpu time spent up to now is      335.5 secs

     total energy              =   -7398.04877287 Ry
     estimated scf accuracy    <       0.19340599 Ry

     total magnetization       =    80.32 Bohr mag/cell
     absolute magnetization    =    81.97 Bohr mag/cell

     iteration # 24     ecut=    50.00 Ry     beta= 0.50
     Davidson diagonalization with overlap
     ethr =  9.59E-06,  avg # of iterations =  1.0
 
     Adding external electric field

     Computed dipole along edir(3) : 
        Dipole               -1.4121 Ry au,         -3.5892 Debye
        Dipole field         -0.0009 Ry au, 
 
        Potential amp.        0.0948 Ry
        Total length         54.2615 bohr
 
 
     Adding external electric field

     Computed dipole along edir(3) : 
        Dipole               -1.4121 Ry au,         -3.5892 Debye
        Dipole field         -0.0009 Ry au, 
 
        Potential amp.        0.0948 Ry
        Total length         54.2615 bohr
 

     total cpu time spent up to now is      345.7 secs

     total energy              =   -7398.04714565 Ry
     estimated scf accuracy    <       0.17922208 Ry

     total magnetization       =    80.22 Bohr mag/cell
     absolute magnetization    =    81.84 Bohr mag/cell

     iteration # 25     ecut=    50.00 Ry     beta= 0.50
     Davidson diagonalization with overlap
     ethr =  9.59E-06,  avg # of iterations =  1.0
 
     Adding external electric field

     Computed dipole along edir(3) : 
        Dipole               -1.4133 Ry au,         -3.5922 Debye
        Dipole field         -0.0009 Ry au, 
 
        Potential amp.        0.0949 Ry
        Total length         54.2615 bohr
 
 
     Adding external electric field

     Computed dipole along edir(3) : 
        Dipole               -1.4133 Ry au,         -3.5922 Debye
        Dipole field         -0.0009 Ry au, 
 
        Potential amp.        0.0949 Ry
        Total length         54.2615 bohr
 

     total cpu time spent up to now is      356.0 secs

     total energy              =   -7398.04669762 Ry
     estimated scf accuracy    <       0.29314428 Ry

     total magnetization       =    79.99 Bohr mag/cell
     absolute magnetization    =    81.64 Bohr mag/cell

     iteration # 26     ecut=    50.00 Ry     beta= 0.50
     Davidson diagonalization with overlap
     ethr =  9.59E-06,  avg # of iterations =  1.0
 
     Adding external electric field

     Computed dipole along edir(3) : 
        Dipole               -1.2654 Ry au,         -3.2163 Debye
        Dipole field         -0.0008 Ry au, 
 
        Potential amp.        0.0849 Ry
        Total length         54.2615 bohr
 
 
     Adding external electric field

     Computed dipole along edir(3) : 
        Dipole               -1.2654 Ry au,         -3.2163 Debye
        Dipole field         -0.0008 Ry au, 
 
        Potential amp.        0.0849 Ry
        Total length         54.2615 bohr
 

     total cpu time spent up to now is      365.6 secs

     total energy              =   -7398.04609093 Ry
     estimated scf accuracy    <       0.11425543 Ry

     total magnetization       =    80.40 Bohr mag/cell
     absolute magnetization    =    82.00 Bohr mag/cell

     iteration # 27     ecut=    50.00 Ry     beta= 0.50
     Davidson diagonalization with overlap
     ethr =  9.59E-06,  avg # of iterations =  1.0
 
     Adding external electric field

     Computed dipole along edir(3) : 
        Dipole               -1.1457 Ry au,         -2.9120 Debye
        Dipole field         -0.0007 Ry au, 
 
        Potential amp.        0.0769 Ry
        Total length         54.2615 bohr
 
 
     Adding external electric field

     Computed dipole along edir(3) : 
        Dipole               -1.1457 Ry au,         -2.9120 Debye
        Dipole field         -0.0007 Ry au, 
 
        Potential amp.        0.0769 Ry
        Total length         54.2615 bohr
 

     total cpu time spent up to now is      375.5 secs

     total energy              =   -7398.04477756 Ry
     estimated scf accuracy    <       0.13189489 Ry

     total magnetization       =    80.39 Bohr mag/cell
     absolute magnetization    =    81.92 Bohr mag/cell

     iteration # 28     ecut=    50.00 Ry     beta= 0.50
     Davidson diagonalization with overlap
     ethr =  9.59E-06,  avg # of iterations =  1.0
 
     Adding external electric field

     Computed dipole along edir(3) : 
        Dipole               -0.8359 Ry au,         -2.1246 Debye
        Dipole field         -0.0005 Ry au, 
 
        Potential amp.        0.0561 Ry
        Total length         54.2615 bohr
 
 
     Adding external electric field

     Computed dipole along edir(3) : 
        Dipole               -0.8359 Ry au,         -2.1246 Debye
        Dipole field         -0.0005 Ry au, 
 
        Potential amp.        0.0561 Ry
        Total length         54.2615 bohr
 

     total cpu time spent up to now is      385.7 secs

     total energy              =   -7398.04050291 Ry
     estimated scf accuracy    <       0.13201678 Ry

     total magnetization       =    80.27 Bohr mag/cell
     absolute magnetization    =    81.77 Bohr mag/cell

     iteration # 29     ecut=    50.00 Ry     beta= 0.50
     Davidson diagonalization with overlap
     ethr =  9.59E-06,  avg # of iterations =  2.5
 
     Adding external electric field

     Computed dipole along edir(3) : 
        Dipole               -0.6568 Ry au,         -1.6694 Debye
        Dipole field         -0.0004 Ry au, 
 
        Potential amp.        0.0441 Ry
        Total length         54.2615 bohr
 
 
     Adding external electric field

     Computed dipole along edir(3) : 
        Dipole               -0.6568 Ry au,         -1.6694 Debye
        Dipole field         -0.0004 Ry au, 
 
        Potential amp.        0.0441 Ry
        Total length         54.2615 bohr
 

     total cpu time spent up to now is      397.1 secs

     total energy              =   -7398.03825601 Ry
     estimated scf accuracy    <       0.10679642 Ry

     total magnetization       =    80.34 Bohr mag/cell
     absolute magnetization    =    81.78 Bohr mag/cell

     iteration # 30     ecut=    50.00 Ry     beta= 0.50
     Davidson diagonalization with overlap
     ethr =  9.59E-06,  avg # of iterations =  2.0

     negative rho (up, down):  8.071E-07 5.212E-06
 
     Adding external electric field

     Computed dipole along edir(3) : 
        Dipole               -0.2453 Ry au,         -0.6236 Debye
        Dipole field         -0.0002 Ry au, 
 
        Potential amp.        0.0165 Ry
        Total length         54.2615 bohr
 
 
     Adding external electric field

     Computed dipole along edir(3) : 
        Dipole               -0.2453 Ry au,         -0.6236 Debye
        Dipole field         -0.0002 Ry au, 
 
        Potential amp.        0.0165 Ry
        Total length         54.2615 bohr
 

     total cpu time spent up to now is      407.6 secs

     total energy              =   -7398.03350275 Ry
     estimated scf accuracy    <       0.10476288 Ry

     total magnetization       =    80.29 Bohr mag/cell
     absolute magnetization    =    81.73 Bohr mag/cell

     iteration # 31     ecut=    50.00 Ry     beta= 0.50
     Davidson diagonalization with overlap
     c_bands:  4 eigenvalues not converged
     ethr =  9.59E-06,  avg # of iterations = 12.5

     negative rho (up, down):  3.150E-04 1.574E-04
 
     Adding external electric field

     Computed dipole along edir(3) : 
        Dipole                0.0005 Ry au,          0.0012 Debye
        Dipole field          0.0000 Ry au, 
 
        Potential amp.       -0.0000 Ry
        Total length         54.2615 bohr
 
 
     Adding external electric field

     Computed dipole along edir(3) : 
        Dipole                0.0005 Ry au,          0.0012 Debye
        Dipole field          0.0000 Ry au, 
 
        Potential amp.       -0.0000 Ry
        Total length         54.2615 bohr
 

     total cpu time spent up to now is      424.5 secs

     total energy              =   -7398.02980158 Ry
     estimated scf accuracy    <       0.04867154 Ry

     total magnetization       =    80.30 Bohr mag/cell
     absolute magnetization    =    81.73 Bohr mag/cell

     iteration # 32     ecut=    50.00 Ry     beta= 0.50
     Davidson diagonalization with overlap
     ethr =  4.51E-06,  avg # of iterations = 10.5

     negative rho (up, down):  9.532E-03 8.146E-03
 
     Adding external electric field

     Computed dipole along edir(3) : 
        Dipole                0.3898 Ry au,          0.9909 Debye
        Dipole field          0.0002 Ry au, 
 
        Potential amp.       -0.0262 Ry
        Total length         54.2615 bohr
 
 
     Adding external electric field

     Computed dipole along edir(3) : 
        Dipole                0.3898 Ry au,          0.9909 Debye
        Dipole field          0.0002 Ry au, 
 
        Potential amp.       -0.0262 Ry
        Total length         54.2615 bohr
 

     total cpu time spent up to now is      441.4 secs

     total energy              =   -7398.02793502 Ry
     estimated scf accuracy    <       0.06731819 Ry

     total magnetization       =    80.20 Bohr mag/cell
     absolute magnetization    =    81.71 Bohr mag/cell

     iteration # 33     ecut=    50.00 Ry     beta= 0.50
     Davidson diagonalization with overlap
     c_bands:  3 eigenvalues not converged
     ethr =  4.51E-06,  avg # of iterations = 11.5

     negative rho (up, down):  6.170E-03 5.832E-03
 
     Adding external electric field

     Computed dipole along edir(3) : 
        Dipole                0.3864 Ry au,          0.9823 Debye
        Dipole field          0.0002 Ry au, 
 
        Potential amp.       -0.0259 Ry
        Total length         54.2615 bohr
 
 
     Adding external electric field

     Computed dipole along edir(3) : 
        Dipole                0.3864 Ry au,          0.9823 Debye
        Dipole field          0.0002 Ry au, 
 
        Potential amp.       -0.0259 Ry
        Total length         54.2615 bohr
 

     total cpu time spent up to now is      458.8 secs

     total energy              =   -7398.02825732 Ry
     estimated scf accuracy    <       0.01369210 Ry

     total magnetization       =    80.32 Bohr mag/cell
     absolute magnetization    =    81.86 Bohr mag/cell

     iteration # 34     ecut=    50.00 Ry     beta= 0.50
     Davidson diagonalization with overlap
     c_bands:  4 eigenvalues not converged
     c_bands:  1 eigenvalues not converged
     ethr =  1.27E-06,  avg # of iterations = 20.0

     negative rho (up, down):  3.329E-03 3.112E-03
 
     Adding external electric field

     Computed dipole along edir(3) : 
        Dipole                0.3161 Ry au,          0.8035 Debye
        Dipole field          0.0002 Ry au, 
 
        Potential amp.       -0.0212 Ry
        Total length         54.2615 bohr
 
 
     Adding external electric field

     Computed dipole along edir(3) : 
        Dipole                0.3161 Ry au,          0.8035 Debye
        Dipole field          0.0002 Ry au, 
 
        Potential amp.       -0.0212 Ry
        Total length         54.2615 bohr
 

     total cpu time spent up to now is      479.4 secs

     total energy              =   -7398.02854803 Ry
     estimated scf accuracy    <       0.03971228 Ry

     total magnetization       =    80.40 Bohr mag/cell
     absolute magnetization    =    81.93 Bohr mag/cell

     iteration # 35     ecut=    50.00 Ry     beta= 0.50
     Davidson diagonalization with overlap
     c_bands:  1 eigenvalues not converged
     ethr =  1.27E-06,  avg # of iterations = 11.0

     negative rho (up, down):  2.306E-04 1.960E-04
 
     Adding external electric field

     Computed dipole along edir(3) : 
        Dipole                0.1834 Ry au,          0.4662 Debye
        Dipole field          0.0001 Ry au, 
 
        Potential amp.       -0.0123 Ry
        Total length         54.2615 bohr
 
 
     Adding external electric field

     Computed dipole along edir(3) : 
        Dipole                0.1834 Ry au,          0.4662 Debye
        Dipole field          0.0001 Ry au, 
 
        Potential amp.       -0.0123 Ry
        Total length         54.2615 bohr
 

     total cpu time spent up to now is      494.4 secs

     total energy              =   -7398.02835349 Ry
     estimated scf accuracy    <       0.02018991 Ry

     total magnetization       =    80.36 Bohr mag/cell
     absolute magnetization    =    81.90 Bohr mag/cell

     iteration # 36     ecut=    50.00 Ry     beta= 0.50
     Davidson diagonalization with overlap
     c_bands:  1 eigenvalues not converged
     ethr =  1.27E-06,  avg # of iterations = 12.0

     negative rho (up, down):  2.269E-08 9.770E-10
 
     Adding external electric field

     Computed dipole along edir(3) : 
        Dipole                0.1473 Ry au,          0.3744 Debye
        Dipole field          0.0001 Ry au, 
 
        Potential amp.       -0.0099 Ry
        Total length         54.2615 bohr
 
 
     Adding external electric field

     Computed dipole along edir(3) : 
        Dipole                0.1473 Ry au,          0.3744 Debye
        Dipole field          0.0001 Ry au, 
 
        Potential amp.       -0.0099 Ry
        Total length         54.2615 bohr
 

     total cpu time spent up to now is      510.7 secs

     total energy              =   -7398.02833666 Ry
     estimated scf accuracy    <       0.01704395 Ry

     total magnetization       =    80.46 Bohr mag/cell
     absolute magnetization    =    81.98 Bohr mag/cell

     iteration # 37     ecut=    50.00 Ry     beta= 0.50
     Davidson diagonalization with overlap
     ethr =  1.27E-06,  avg # of iterations =  6.5
 
     Adding external electric field

     Computed dipole along edir(3) : 
        Dipole                0.0811 Ry au,          0.2061 Debye
        Dipole field          0.0001 Ry au, 
 
        Potential amp.       -0.0054 Ry
        Total length         54.2615 bohr
 
 
     Adding external electric field

     Computed dipole along edir(3) : 
        Dipole                0.0811 Ry au,          0.2061 Debye
        Dipole field          0.0001 Ry au, 
 
        Potential amp.       -0.0054 Ry
        Total length         54.2615 bohr
 

     total cpu time spent up to now is      524.4 secs

     total energy              =   -7398.02825263 Ry
     estimated scf accuracy    <       0.01259096 Ry

     total magnetization       =    80.41 Bohr mag/cell
     absolute magnetization    =    81.94 Bohr mag/cell

     iteration # 38     ecut=    50.00 Ry     beta= 0.50
     Davidson diagonalization with overlap
     ethr =  1.17E-06,  avg # of iterations = 12.5

     negative rho (up, down):  7.740E-05 6.662E-05
 
     Adding external electric field

     Computed dipole along edir(3) : 
        Dipole                0.2229 Ry au,          0.5667 Debye
        Dipole field          0.0001 Ry au, 
 
        Potential amp.       -0.0150 Ry
        Total length         54.2615 bohr
 
 
     Adding external electric field

     Computed dipole along edir(3) : 
        Dipole                0.2229 Ry au,          0.5667 Debye
        Dipole field          0.0001 Ry au, 
 
        Potential amp.       -0.0150 Ry
        Total length         54.2615 bohr
 

     total cpu time spent up to now is      541.3 secs

     total energy              =   -7398.02824234 Ry
     estimated scf accuracy    <       0.00593946 Ry

     total magnetization       =    80.42 Bohr mag/cell
     absolute magnetization    =    81.96 Bohr mag/cell

     iteration # 39     ecut=    50.00 Ry     beta= 0.50
     Davidson diagonalization with overlap
     c_bands:  1 eigenvalues not converged
     ethr =  5.51E-07,  avg # of iterations = 12.0

     negative rho (up, down):  2.796E-04 2.529E-04
 
     Adding external electric field

     Computed dipole along edir(3) : 
        Dipole                0.1890 Ry au,          0.4805 Debye
        Dipole field          0.0001 Ry au, 
 
        Potential amp.       -0.0127 Ry
        Total length         54.2615 bohr
 
 
     Adding external electric field

     Computed dipole along edir(3) : 
        Dipole                0.1890 Ry au,          0.4805 Debye
        Dipole field          0.0001 Ry au, 
 
        Potential amp.       -0.0127 Ry
        Total length         54.2615 bohr
 

     total cpu time spent up to now is      557.4 secs

     total energy              =   -7398.02815664 Ry
     estimated scf accuracy    <       0.00389114 Ry

     total magnetization       =    80.18 Bohr mag/cell
     absolute magnetization    =    81.72 Bohr mag/cell

     iteration # 40     ecut=    50.00 Ry     beta= 0.50
     Davidson diagonalization with overlap
     ethr =  3.61E-07,  avg # of iterations =  4.5

     negative rho (up, down):  3.906E-03 3.925E-03
 
     Adding external electric field

     Computed dipole along edir(3) : 
        Dipole                0.2880 Ry au,          0.7320 Debye
        Dipole field          0.0002 Ry au, 
 
        Potential amp.       -0.0193 Ry
        Total length         54.2615 bohr
 
 
     Adding external electric field

     Computed dipole along edir(3) : 
        Dipole                0.2880 Ry au,          0.7320 Debye
        Dipole field          0.0002 Ry au, 
 
        Potential amp.       -0.0193 Ry
        Total length         54.2615 bohr
 

     total cpu time spent up to now is      570.1 secs

     total energy              =   -7398.02840828 Ry
     estimated scf accuracy    <       0.00409609 Ry

     total magnetization       =    80.43 Bohr mag/cell
     absolute magnetization    =    81.96 Bohr mag/cell

     iteration # 41     ecut=    50.00 Ry     beta= 0.50
     Davidson diagonalization with overlap
     ethr =  3.61E-07,  avg # of iterations =  2.0

     negative rho (up, down):  7.262E-03 7.119E-03
 
     Adding external electric field

     Computed dipole along edir(3) : 
        Dipole                0.3193 Ry au,          0.8115 Debye
        Dipole field          0.0002 Ry au, 
 
        Potential amp.       -0.0214 Ry
        Total length         54.2615 bohr
 
 
     Adding external electric field

     Computed dipole along edir(3) : 
        Dipole                0.3193 Ry au,          0.8115 Debye
        Dipole field          0.0002 Ry au, 
 
        Potential amp.       -0.0214 Ry
        Total length         54.2615 bohr
 

     total cpu time spent up to now is      581.1 secs

     total energy              =   -7398.02855424 Ry
     estimated scf accuracy    <       0.00175638 Ry

     total magnetization       =    80.35 Bohr mag/cell
     absolute magnetization    =    81.88 Bohr mag/cell

     iteration # 42     ecut=    50.00 Ry     beta= 0.50
     Davidson diagonalization with overlap
     ethr =  1.63E-07,  avg # of iterations =  8.5

     negative rho (up, down):  7.066E-03 7.066E-03
 
     Adding external electric field

     Computed dipole along edir(3) : 
        Dipole                0.2894 Ry au,          0.7357 Debye
        Dipole field          0.0002 Ry au, 
 
        Potential amp.       -0.0194 Ry
        Total length         54.2615 bohr
 
 
     Adding external electric field

     Computed dipole along edir(3) : 
        Dipole                0.2894 Ry au,          0.7357 Debye
        Dipole field          0.0002 Ry au, 
 
        Potential amp.       -0.0194 Ry
        Total length         54.2615 bohr
 

     total cpu time spent up to now is      596.2 secs

     total energy              =   -7398.02856055 Ry
     estimated scf accuracy    <       0.00056567 Ry

     total magnetization       =    80.29 Bohr mag/cell
     absolute magnetization    =    81.83 Bohr mag/cell

     iteration # 43     ecut=    50.00 Ry     beta= 0.50
     Davidson diagonalization with overlap
     ethr =  5.25E-08,  avg # of iterations =  2.0

     negative rho (up, down):  5.138E-03 5.009E-03
 
     Adding external electric field

     Computed dipole along edir(3) : 
        Dipole                0.2862 Ry au,          0.7273 Debye
        Dipole field          0.0002 Ry au, 
 
        Potential amp.       -0.0192 Ry
        Total length         54.2615 bohr
 
 
     Adding external electric field

     Computed dipole along edir(3) : 
        Dipole                0.2862 Ry au,          0.7273 Debye
        Dipole field          0.0002 Ry au, 
 
        Potential amp.       -0.0192 Ry
        Total length         54.2615 bohr
 

     total cpu time spent up to now is      607.1 secs

     total energy              =   -7398.02849667 Ry
     estimated scf accuracy    <       0.00048176 Ry

     total magnetization       =    80.31 Bohr mag/cell
     absolute magnetization    =    81.84 Bohr mag/cell

     iteration # 44     ecut=    50.00 Ry     beta= 0.50
     Davidson diagonalization with overlap
     ethr =  4.47E-08,  avg # of iterations =  2.0

     negative rho (up, down):  3.968E-03 3.761E-03
 
     Adding external electric field

     Computed dipole along edir(3) : 
        Dipole                0.2841 Ry au,          0.7221 Debye
        Dipole field          0.0002 Ry au, 
 
        Potential amp.       -0.0191 Ry
        Total length         54.2615 bohr
 
 
     Adding external electric field

     Computed dipole along edir(3) : 
        Dipole                0.2841 Ry au,          0.7221 Debye
        Dipole field          0.0002 Ry au, 
 
        Potential amp.       -0.0191 Ry
        Total length         54.2615 bohr
 

     total cpu time spent up to now is      617.9 secs

     total energy              =   -7398.02845854 Ry
     estimated scf accuracy    <       0.00044869 Ry

     total magnetization       =    80.30 Bohr mag/cell
     absolute magnetization    =    81.82 Bohr mag/cell

     iteration # 45     ecut=    50.00 Ry     beta= 0.50
     Davidson diagonalization with overlap
     ethr =  4.16E-08,  avg # of iterations =  2.0

     negative rho (up, down):  1.770E-03 1.469E-03
 
     Adding external electric field

     Computed dipole along edir(3) : 
        Dipole                0.2746 Ry au,          0.6980 Debye
        Dipole field          0.0002 Ry au, 
 
        Potential amp.       -0.0184 Ry
        Total length         54.2615 bohr
 
 
     Adding external electric field

     Computed dipole along edir(3) : 
        Dipole                0.2746 Ry au,          0.6980 Debye
        Dipole field          0.0002 Ry au, 
 
        Potential amp.       -0.0184 Ry
        Total length         54.2615 bohr
 

     total cpu time spent up to now is      628.7 secs

     total energy              =   -7398.02844399 Ry
     estimated scf accuracy    <       0.00006290 Ry

     total magnetization       =    80.29 Bohr mag/cell
     absolute magnetization    =    81.82 Bohr mag/cell

     iteration # 46     ecut=    50.00 Ry     beta= 0.50
     Davidson diagonalization with overlap
     ethr =  5.84E-09,  avg # of iterations =  5.5

     negative rho (up, down):  2.478E-03 2.232E-03
 
     Adding external electric field

     Computed dipole along edir(3) : 
        Dipole                0.2871 Ry au,          0.7297 Debye
        Dipole field          0.0002 Ry au, 
 
        Potential amp.       -0.0193 Ry
        Total length         54.2615 bohr
 
 
     Adding external electric field

     Computed dipole along edir(3) : 
        Dipole                0.2871 Ry au,          0.7297 Debye
        Dipole field          0.0002 Ry au, 
 
        Potential amp.       -0.0193 Ry
        Total length         54.2615 bohr
 

     total cpu time spent up to now is      641.8 secs

     total energy              =   -7398.02844899 Ry
     estimated scf accuracy    <       0.00017442 Ry

     total magnetization       =    80.31 Bohr mag/cell
     absolute magnetization    =    81.84 Bohr mag/cell

     iteration # 47     ecut=    50.00 Ry     beta= 0.50
     Davidson diagonalization with overlap
     ethr =  5.84E-09,  avg # of iterations =  2.0

     negative rho (up, down):  1.216E-03 8.457E-04
 
     Adding external electric field

     Computed dipole along edir(3) : 
        Dipole                0.2756 Ry au,          0.7004 Debye
        Dipole field          0.0002 Ry au, 
 
        Potential amp.       -0.0185 Ry
        Total length         54.2615 bohr
 
 
     Adding external electric field

     Computed dipole along edir(3) : 
        Dipole                0.2756 Ry au,          0.7004 Debye
        Dipole field          0.0002 Ry au, 
 
        Potential amp.       -0.0185 Ry
        Total length         54.2615 bohr
 

     total cpu time spent up to now is      653.6 secs

     total energy              =   -7398.02843868 Ry
     estimated scf accuracy    <       0.00008393 Ry

     total magnetization       =    80.30 Bohr mag/cell
     absolute magnetization    =    81.82 Bohr mag/cell

     iteration # 48     ecut=    50.00 Ry     beta= 0.50
     Davidson diagonalization with overlap
     ethr =  5.84E-09,  avg # of iterations =  2.0

     negative rho (up, down):  1.405E-03 1.038E-03
 
     Adding external electric field

     Computed dipole along edir(3) : 
        Dipole                0.2798 Ry au,          0.7112 Debye
        Dipole field          0.0002 Ry au, 
 
        Potential amp.       -0.0188 Ry
        Total length         54.2615 bohr
 
 
     Adding external electric field

     Computed dipole along edir(3) : 
        Dipole                0.2798 Ry au,          0.7112 Debye
        Dipole field          0.0002 Ry au, 
 
        Potential amp.       -0.0188 Ry
        Total length         54.2615 bohr
 

     total cpu time spent up to now is      664.5 secs

     total energy              =   -7398.02844090 Ry
     estimated scf accuracy    <       0.00006142 Ry

     total magnetization       =    80.31 Bohr mag/cell
     absolute magnetization    =    81.83 Bohr mag/cell

     iteration # 49     ecut=    50.00 Ry     beta= 0.50
     Davidson diagonalization with overlap
     ethr =  5.70E-09,  avg # of iterations =  1.5

     negative rho (up, down):  1.158E-03 7.787E-04
 
     Adding external electric field

     Computed dipole along edir(3) : 
        Dipole                0.2777 Ry au,          0.7058 Debye
        Dipole field          0.0002 Ry au, 
 
        Potential amp.       -0.0186 Ry
        Total length         54.2615 bohr
 
 
     Adding external electric field

     Computed dipole along edir(3) : 
        Dipole                0.2777 Ry au,          0.7058 Debye
        Dipole field          0.0002 Ry au, 
 
        Potential amp.       -0.0186 Ry
        Total length         54.2615 bohr
 

     total cpu time spent up to now is      674.4 secs

     total energy              =   -7398.02844075 Ry
     estimated scf accuracy    <       0.00001145 Ry

     total magnetization       =    80.29 Bohr mag/cell
     absolute magnetization    =    81.81 Bohr mag/cell

     iteration # 50     ecut=    50.00 Ry     beta= 0.50
     Davidson diagonalization with overlap
     ethr =  1.06E-09,  avg # of iterations =  1.5

     negative rho (up, down):  1.056E-03 6.767E-04
 
     Adding external electric field

     Computed dipole along edir(3) : 
        Dipole                0.2769 Ry au,          0.7039 Debye
        Dipole field          0.0002 Ry au, 
 
        Potential amp.       -0.0186 Ry
        Total length         54.2615 bohr
 
 
     Adding external electric field

     Computed dipole along edir(3) : 
        Dipole                0.2769 Ry au,          0.7039 Debye
        Dipole field          0.0002 Ry au, 
 
        Potential amp.       -0.0186 Ry
        Total length         54.2615 bohr
 

     total cpu time spent up to now is      684.8 secs

     total energy              =   -7398.02844041 Ry
     estimated scf accuracy    <       0.00000697 Ry

     total magnetization       =    80.30 Bohr mag/cell
     absolute magnetization    =    81.82 Bohr mag/cell

     iteration # 51     ecut=    50.00 Ry     beta= 0.50
     Davidson diagonalization with overlap
     ethr =  6.46E-10,  avg # of iterations =  1.5

     negative rho (up, down):  9.507E-04 5.693E-04
 
     Adding external electric field

     Computed dipole along edir(3) : 
        Dipole                0.2750 Ry au,          0.6989 Debye
        Dipole field          0.0002 Ry au, 
 
        Potential amp.       -0.0185 Ry
        Total length         54.2615 bohr
 
 
     Adding external electric field

     Computed dipole along edir(3) : 
        Dipole                0.2750 Ry au,          0.6989 Debye
        Dipole field          0.0002 Ry au, 
 
        Potential amp.       -0.0185 Ry
        Total length         54.2615 bohr
 

     total cpu time spent up to now is      694.8 secs

     total energy              =   -7398.02843969 Ry
     estimated scf accuracy    <       0.00000681 Ry

     total magnetization       =    80.30 Bohr mag/cell
     absolute magnetization    =    81.82 Bohr mag/cell

     iteration # 52     ecut=    50.00 Ry     beta= 0.50
     Davidson diagonalization with overlap
     ethr =  6.31E-10,  avg # of iterations =  1.5

     negative rho (up, down):  9.179E-04 5.372E-04
 
     Adding external electric field

     Computed dipole along edir(3) : 
        Dipole                0.2739 Ry au,          0.6962 Debye
        Dipole field          0.0002 Ry au, 
 
        Potential amp.       -0.0184 Ry
        Total length         54.2615 bohr
 
 
     Adding external electric field

     Computed dipole along edir(3) : 
        Dipole                0.2739 Ry au,          0.6962 Debye
        Dipole field          0.0002 Ry au, 
 
        Potential amp.       -0.0184 Ry
        Total length         54.2615 bohr
 

     total cpu time spent up to now is      705.2 secs

     total energy              =   -7398.02843955 Ry
     estimated scf accuracy    <       0.00000310 Ry

     total magnetization       =    80.29 Bohr mag/cell
     absolute magnetization    =    81.82 Bohr mag/cell

     iteration # 53     ecut=    50.00 Ry     beta= 0.50
     Davidson diagonalization with overlap
     ethr =  2.87E-10,  avg # of iterations =  1.0

     negative rho (up, down):  9.303E-04 5.486E-04
 
     Adding external electric field

     Computed dipole along edir(3) : 
        Dipole                0.2843 Ry au,          0.7227 Debye
        Dipole field          0.0002 Ry au, 
 
        Potential amp.       -0.0191 Ry
        Total length         54.2615 bohr
 
 
     Adding external electric field

     Computed dipole along edir(3) : 
        Dipole                0.2843 Ry au,          0.7227 Debye
        Dipole field          0.0002 Ry au, 
 
        Potential amp.       -0.0191 Ry
        Total length         54.2615 bohr
 
 
     Magnetic moment per site  (integrated on atomic sphere of radius R)
     atom   1 (R=0.087)  charge= 12.0159  magn=  3.7460
     atom   2 (R=0.080)  charge=  7.1300  magn=  1.5392
     atom   3 (R=0.080)  charge=  7.1448  magn=  1.4657
     atom   4 (R=0.080)  charge=  7.1278  magn=  1.5427
     atom   5 (R=0.080)  charge=  7.1474  magn=  1.5073
     atom   6 (R=0.080)  charge=  7.1493  magn=  1.4969
     atom   7 (R=0.080)  charge=  7.0968  magn=  1.6472
     atom   8 (R=0.080)  charge=  7.1290  magn=  1.5377
     atom   9 (R=0.080)  charge=  7.1457  magn=  1.4692
     atom  10 (R=0.080)  charge=  7.1275  magn=  1.5509
     atom  11 (R=0.080)  charge=  7.1450  magn=  1.5025
     atom  12 (R=0.080)  charge=  7.1472  magn=  1.4975
     atom  13 (R=0.065)  charge=  0.7302  magn=  0.0076
     atom  14 (R=0.065)  charge=  0.7272  magn=  0.0055
     atom  15 (R=0.065)  charge=  0.7266  magn=  0.0047
     atom  16 (R=0.065)  charge=  0.7271  magn=  0.0050
     atom  17 (R=0.043)  charge=  1.9498  magn=  0.0548
     atom  18 (R=0.043)  charge=  1.9483  magn=  0.0744
     atom  19 (R=0.043)  charge=  1.9411  magn=  0.0974
     atom  20 (R=0.043)  charge=  1.9473  magn=  0.0772
     atom  21 (R=0.043)  charge=  1.9588  magn=  0.0419
     atom  22 (R=0.043)  charge=  1.9503  magn=  0.0287
     atom  23 (R=0.043)  charge=  1.9385  magn=  0.0416
     atom  24 (R=0.043)  charge=  1.9519  magn=  0.0552
     atom  25 (R=0.043)  charge=  1.9489  magn=  0.0573
     atom  26 (R=0.043)  charge=  1.9476  magn=  0.0428
     atom  27 (R=0.043)  charge=  1.9503  magn=  0.0480
     atom  28 (R=0.043)  charge=  1.9491  magn=  0.0475
     atom  29 (R=0.043)  charge=  1.9520  magn=  0.0374
     atom  30 (R=0.043)  charge=  1.9489  magn=  0.0514
     atom  31 (R=0.043)  charge=  1.9530  magn=  0.0530
     atom  32 (R=0.043)  charge=  1.9515  magn=  0.0441
     atom  33 (R=0.065)  charge=  0.7271  magn=  0.0050
     atom  34 (R=0.065)  charge=  0.7276  magn=  0.0053
     atom  35 (R=0.065)  charge=  0.7254  magn=  0.0034
     atom  36 (R=0.065)  charge=  0.7276  magn=  0.0055
     atom  37 (R=0.043)  charge=  1.9415  magn=  0.0790
     atom  38 (R=0.043)  charge=  1.9465  magn=  0.0734
     atom  39 (R=0.043)  charge=  1.9426  magn=  0.1085
     atom  40 (R=0.043)  charge=  1.9475  magn=  0.0779
     atom  41 (R=0.043)  charge=  1.9515  magn=  0.0561
     atom  42 (R=0.043)  charge=  1.9453  magn=  0.0540
     atom  43 (R=0.043)  charge=  1.9424  magn=  0.0451
     atom  44 (R=0.043)  charge=  1.9523  magn=  0.0551
     atom  45 (R=0.043)  charge=  1.9503  magn=  0.0570
     atom  46 (R=0.043)  charge=  1.9500  magn=  0.0645
     atom  47 (R=0.043)  charge=  1.9525  magn=  0.0473
     atom  48 (R=0.043)  charge=  1.9517  magn=  0.0497
     atom  49 (R=0.043)  charge=  1.9513  magn=  0.0497
     atom  50 (R=0.043)  charge=  1.9453  magn=  0.0487
     atom  51 (R=0.043)  charge=  1.9507  magn=  0.0603
     atom  52 (R=0.043)  charge=  1.9520  magn=  0.0499
     atom  53 (R=0.087)  charge= 12.0510  magn=  3.8735
     atom  54 (R=0.080)  charge=  7.1312  magn=  1.5389
     atom  55 (R=0.080)  charge=  7.1303  magn=  1.5461
     atom  56 (R=0.080)  charge=  7.1316  magn=  1.5453
     atom  57 (R=0.080)  charge=  7.1581  magn=  1.5050
     atom  58 (R=0.080)  charge=  7.1492  magn=  1.5030
     atom  59 (R=0.080)  charge=  7.1307  magn=  1.5395
     atom  60 (R=0.080)  charge=  7.1331  magn=  1.5384
     atom  61 (R=0.080)  charge=  7.1295  magn=  1.5472
     atom  62 (R=0.080)  charge=  7.1331  magn=  1.5418
     atom  63 (R=0.080)  charge=  7.1543  magn=  1.5021
     atom  64 (R=0.080)  charge=  7.1508  magn=  1.5044
     atom  65 (R=0.065)  charge=  0.7503  magn=  0.0079
     atom  66 (R=0.065)  charge=  0.7286  magn=  0.0061
     atom  67 (R=0.065)  charge=  0.7478  magn=  0.0062
     atom  68 (R=0.065)  charge=  0.7366  magn=  0.0055
     atom  69 (R=0.043)  charge=  1.9534  magn=  0.0635
     atom  70 (R=0.043)  charge=  1.9501  magn=  0.0666
     atom  71 (R=0.043)  charge=  1.9466  magn=  0.0783
     atom  72 (R=0.043)  charge=  1.9468  magn=  0.0792
     atom  73 (R=0.043)  charge=  1.9619  magn=  0.0475
     atom  74 (R=0.043)  charge=  1.9525  magn=  0.0455
     atom  75 (R=0.043)  charge=  1.9534  magn=  0.0561
     atom  76 (R=0.043)  charge=  1.9544  magn=  0.0576
     atom  77 (R=0.043)  charge=  1.9516  magn=  0.0572
     atom  78 (R=0.043)  charge=  1.9746  magn=  0.0431
     atom  79 (R=0.043)  charge=  1.9523  magn=  0.0502
     atom  80 (R=0.043)  charge=  1.9515  magn=  0.0491
     atom  81 (R=0.043)  charge=  1.9648  magn=  0.0366
     atom  82 (R=0.043)  charge=  1.9515  magn=  0.0555
     atom  83 (R=0.043)  charge=  1.9709  magn=  0.0528
     atom  84 (R=0.043)  charge=  1.9513  magn=  0.0471
     atom  85 (R=0.065)  charge=  0.7481  magn=  0.0056
     atom  86 (R=0.065)  charge=  0.7369  magn=  0.0064
     atom  87 (R=0.065)  charge=  0.7467  magn=  0.0054
     atom  88 (R=0.065)  charge=  0.7268  magn=  0.0057
     atom  89 (R=0.043)  charge=  1.9481  magn=  0.0803
     atom  90 (R=0.043)  charge=  1.9454  magn=  0.0803
     atom  91 (R=0.043)  charge=  1.9491  magn=  0.0817
[...]
    -5.9515  -5.9428  -5.9224  -5.9166  -5.9018  -5.8541  -5.8197  -5.8030
    -5.7779  -5.7614  -5.7425  -5.7383  -5.7095  -5.6900  -5.6719  -5.6552
    -5.6444  -5.6118  -5.6066  -5.5943  -5.5918  -5.5714  -5.5177  -5.4845
    -5.4556  -5.4264  -5.3988  -5.3792  -5.3638  -5.3543  -5.3274  -5.2555
    -5.2248  -5.2045  -5.1898  -5.1183  -5.1087  -5.0889  -5.0371  -5.0215
    -5.0104  -4.9581  -4.9245  -4.9038  -4.8818  -4.8561  -4.8444  -4.7949
    -4.7831  -4.7419  -4.7056  -4.6807  -4.6561  -4.6287  -4.5510  -4.5368
    -4.4959  -4.4845  -4.4542  -4.4372  -4.4151  -4.3862  -4.3513  -4.3391
    -4.3195  -4.2769  -4.2191  -4.1824  -4.1386  -4.1233  -4.1086  -4.1007
    -4.0500  -4.0095  -3.9931  -3.9788  -3.9481  -3.9181  -3.9013  -3.8739
    -3.8499  -3.8458  -3.7902  -3.7876  -3.7582  -3.7230  -3.7065  -3.6933
    -3.6792  -3.6544  -3.6407  -3.6319  -3.6223  -3.6036  -3.5696  -3.5283
    -3.5082  -3.5029  -3.4848  -3.4774  -3.4697  -3.4622  -3.4324  -3.4255
    -3.4187  -3.3787  -3.3559  -3.3275  -3.3127  -3.2939  -3.2511  -3.2436
    -3.2304  -3.2009  -3.1649  -3.1645  -3.1517  -3.1313  -3.1231  -3.1110
    -3.0802  -3.0749  -3.0358  -3.0010  -2.9916  -2.9783  -2.9624  -2.9220
    -2.9037  -2.8956  -2.8833  -2.8369  -2.8269  -2.8123  -2.7904  -2.7779
    -2.7615  -2.7553  -2.7437  -2.7332  -2.7233  -2.7213  -2.7102  -2.6829
    -2.6630  -2.6456  -2.6354  -2.6276  -2.6013  -2.5858  -2.5742  -2.5498
    -2.5381  -2.5078  -2.5057  -2.4859  -2.4653  -2.4502  -2.4379  -2.4285
    -2.3948  -2.3827  -2.3708  -2.3537  -2.3262  -2.2941  -2.2829  -2.2563
    -2.2480  -2.2305  -2.2016  -2.1832  -2.1753  -2.1474  -2.1181  -2.1110
    -2.0975  -2.0718  -2.0584  -2.0446  -2.0325  -2.0151  -1.9939  -1.9646
    -1.9538  -1.9387  -1.9362  -1.9273  -1.8932  -1.8849  -1.8692  -1.8505
    -1.8259  -1.7826  -1.7774  -1.7422  -1.7332  -1.7049  -1.6887  -1.6801
    -1.6705  -1.6514  -1.6472  -1.6017  -1.5955  -1.5714  -1.5276  -1.5174
    -1.5036  -1.4961  -1.4674  -1.4445  -1.4365  -1.4185  -1.3994  -1.3881
    -1.3676  -1.3467  -1.3242  -1.2837  -1.2729  -1.2484  -1.2258  -1.2010
    -1.1561  -1.1205  -1.0729  -0.9721  -0.9546  -0.9210  -0.8690  -0.8308
    -0.8117  -0.7475  -0.6468  -0.5210  -0.3786  -0.3257  -0.3082  -0.2036
     0.1302   0.1537   0.1831   0.2209   0.2508   0.2714   0.2730   0.2964
     0.3004   0.3163   0.3369   0.3395   0.3462   0.3673   0.3699   0.3712
     0.3833   0.3863   0.3979   0.4041   0.4171   0.4257   0.4291   0.4389
     0.4439   0.4503   0.4569   0.4588   0.4686   0.4720   0.4787   0.4840
     0.5019   0.5052   0.5100   0.5140   0.5197   0.5222   0.5335   0.5398
     0.5561   0.5579   0.5656   0.5684   0.5766   0.5828   0.5963   0.6021
     0.6053   0.6125   0.6196   0.6244   0.6284   0.6431   0.6571   0.6666
     0.6697   0.6771   0.6864   0.6903   0.6926   0.7034   0.7081   0.7201
     0.7316   0.7392   0.7407   0.7443   0.7549   0.7611   0.7613   0.7680
     0.7741   0.7799   0.8101   0.8162   0.8235   0.8325   0.8455   0.8528
     0.8553   0.8715   0.8756   0.8806   0.8969   0.9007   0.9070   0.9182
     0.9239   0.9309   0.9552   0.9568   0.9892   0.9969   1.0126   1.0265
     1.1363   1.1701   1.6061   1.6932   1.6982   1.7276   1.7312   1.7484
     1.7608   1.8558   1.8812   1.9003   1.9172   1.9618   1.9671   1.9876
     1.9986   2.0213   2.0404   2.0609   2.0726   2.0747   2.0941   2.1324
     2.1566   2.1721   2.1813   2.2103   2.2179   2.2532   2.2563   2.2624
     2.2765   2.2845   2.3066   2.3162   2.3250   2.3343   2.3489   2.3559
     2.3710   2.3832   2.3920   2.3946   2.4107   2.4255   2.4450   2.4855
     2.4909   2.5077   2.5156   2.5305   2.5430   2.5476   2.5683   2.5912
     2.5991   2.6090   2.6443   2.6622   2.7011   2.7294   2.7474   2.8086
     2.8268   2.8610   2.8793   2.9243   2.9279   3.3723   3.4008   3.6085
     3.6647   3.8009   3.8632   3.9455   4.0085   4.0281   4.0921   4.6069
     4.6680   4.7763   4.8993   4.9342   4.9599   5.0533   5.4385   6.3410
     6.3651   6.5144   6.6081   6.7281   6.8126   6.8486   6.9019   6.9407
     7.0503   7.0931   7.1344   7.1537   7.3418   7.3922   7.4084   7.4397
     7.5265   7.5906   7.6222   7.7083   7.7486   7.7544   7.8211   7.8501
     7.8886   7.9479   7.9686   8.0015   8.0219   8.0541   8.0802   8.1179
     8.1436   8.1766   8.1891   8.2341   8.2539   8.2792   8.3126   8.3432
     8.3671   8.4062   8.4302   8.4883   8.4918   8.5057   8.5252   8.5410
     8.5546   8.5700   8.5935   8.6067   8.6473   8.6684   8.6768   8.6893
     8.7259   8.7427   8.8046   8.8073   8.8530   8.8690   8.9180

     the Fermi energy is     1.5829 ev

!    total energy              =   -7398.02843931 Ry
     estimated scf accuracy    <       0.00000048 Ry
     smearing contrib. (-TS)   =      -0.01555705 Ry
     internal energy E=F+TS    =   -7398.01288226 Ry

     The total energy is F=E-TS. E is the sum of the following terms:
     one-electron contribution =  -91618.80212218 Ry
     hartree contribution      =   46457.68150852 Ry
     xc contribution           =   -2260.28416893 Ry
     ewald contribution        =   40025.22404429 Ry
     Dispersion Correction     =      -1.83219396 Ry
     electric field correction =       0.00005000 Ry

     total magnetization       =    80.30 Bohr mag/cell
     absolute magnetization    =    81.82 Bohr mag/cell

     convergence has been achieved in  53 iterations

     negative rho (up, down):  9.303E-04 5.486E-04

     Forces acting on atoms (cartesian axes, Ry/au):

     atom    1 type  2   force =     0.00013066   -0.00009742   -0.00031418
     atom    2 type  1   force =    -0.00030873    0.00023333   -0.00009389
     atom    3 type  1   force =    -0.00002488   -0.00064925   -0.00055827
     atom    4 type  1   force =    -0.00015557    0.00039443    0.00027858
     atom    5 type  1   force =    -0.00001507    0.00031441   -0.00001163
     atom    6 type  1   force =    -0.00010981   -0.00015054   -0.00011894
     atom    7 type  1   force =     0.00047714    0.00078349   -0.00061622
     atom    8 type  1   force =    -0.00002056   -0.00041731    0.00025240
     atom    9 type  1   force =    -0.00039151    0.00053279   -0.00040087
     atom   10 type  1   force =    -0.00012485   -0.00002999   -0.00028252
     atom   11 type  1   force =    -0.00038304   -0.00051322   -0.00004800
     atom   12 type  1   force =     0.00046560    0.00034459   -0.00055931
     atom   13 type  3   force =    -0.00012242    0.00015134    0.00001344
     atom   14 type  3   force =    -0.00028214   -0.00026886   -0.00025572
     atom   15 type  3   force =     0.00011791    0.00005664   -0.00007047
     atom   16 type  3   force =     0.00076429    0.00008813   -0.00003655
     atom   17 type  4   force =     0.00007468   -0.00016117   -0.00021997
     atom   18 type  4   force =     0.00029503    0.00005811   -0.00036241
     atom   19 type  4   force =    -0.00030520    0.00019902    0.00038606
     atom   20 type  4   force =    -0.00019828    0.00015057    0.00017890
     atom   21 type  4   force =     0.00001071    0.00040227   -0.00000693
     atom   22 type  4   force =     0.00020834   -0.00021489   -0.00040963
     atom   23 type  4   force =    -0.00002243    0.00055239   -0.00045216
     atom   24 type  4   force =     0.00031597    0.00015342    0.00031275
     atom   25 type  4   force =     0.00008250   -0.00030726   -0.00006624
     atom   26 type  4   force =    -0.00018333    0.00027052   -0.00002216
     atom   27 type  4   force =     0.00045460   -0.00006155   -0.00015123
     atom   28 type  4   force =     0.00002993    0.00013799    0.00011294
     atom   29 type  4   force =    -0.00021688   -0.00022968    0.00021892
     atom   30 type  4   force =    -0.00010407   -0.00019044   -0.00041284
     atom   31 type  4   force =     0.00002259    0.00007093   -0.00018322
     atom   32 type  4   force =    -0.00022677    0.00040151    0.00014502
     atom   33 type  3   force =    -0.00005181    0.00006095   -0.00031354
     atom   34 type  3   force =     0.00042329   -0.00007404   -0.00036981
     atom   35 type  3   force =     0.00028093    0.00002447   -0.00036493
     atom   36 type  3   force =    -0.00061637    0.00007383    0.00005200
     atom   37 type  4   force =     0.00012840   -0.00004385   -0.00004335
     atom   38 type  4   force =     0.00001534    0.00047900    0.00001476
     atom   39 type  4   force =    -0.00021695   -0.00003766    0.00097972
     atom   40 type  4   force =     0.00030875    0.00005953   -0.00024423
     atom   41 type  4   force =    -0.00026650    0.00004251   -0.00005542
     atom   42 type  4   force =    -0.00044871   -0.00033014   -0.00066062
     atom   43 type  4   force =    -0.00043945   -0.00028838   -0.00036494
     atom   44 type  4   force =     0.00010629    0.00018445   -0.00029552
     atom   45 type  4   force =     0.00012314   -0.00009471   -0.00036458
     atom   46 type  4   force =     0.00008016   -0.00040582   -0.00043687
     atom   47 type  4   force =    -0.00005541    0.00015616   -0.00006299
     atom   48 type  4   force =     0.00046314    0.00029249   -0.00003240
     atom   49 type  4   force =    -0.00021251    0.00037402    0.00008455
     atom   50 type  4   force =     0.00027158   -0.00018726   -0.00004447
     atom   51 type  4   force =     0.00004899   -0.00010850    0.00015286
     atom   52 type  4   force =    -0.00020808   -0.00001732   -0.00008881
     atom   53 type  2   force =     0.00242312   -0.00382144    0.00625605
     atom   54 type  1   force =     0.00505256   -0.00223548    0.00396759
     atom   55 type  1   force =     0.00759356   -0.00386291    0.00228878
     atom   56 type  1   force =    -0.00196676    0.01031554    0.00609764
     atom   57 type  1   force =    -0.00008747    0.02311586    0.01498595
     atom   58 type  1   force =     0.00203740   -0.00328552   -0.00149804
     atom   59 type  1   force =     0.00046966   -0.00716956    0.00434045
     atom   60 type  1   force =    -0.00520924   -0.00200149    0.00488016
     atom   61 type  1   force =    -0.00194386   -0.00159749    0.00355247
     atom   62 type  1   force =    -0.00429502    0.00828502    0.00609349
     atom   63 type  1   force =    -0.01106904    0.02593620    0.01877197
     atom   64 type  1   force =    -0.00193379    0.00116921    0.00148955
     atom   65 type  3   force =     0.04624115   -0.11371527   -0.01071343
     atom   66 type  3   force =    -0.00035498   -0.00161640    0.00358466
     atom   67 type  3   force =    -0.03981052    0.12606613    0.01445865
     atom   68 type  3   force =     0.06271894   -0.00164958   -0.00324935
     atom   69 type  4   force =     0.01394664   -0.01839321    0.00383615
     atom   70 type  4   force =    -0.00104037    0.00281979   -0.00129972
     atom   71 type  4   force =    -0.00155747    0.00332966   -0.00550867
     atom   72 type  4   force =     0.00404327    0.00188130   -0.00086558
     atom   73 type  4   force =     0.00099128   -0.01153443    0.00263910
     atom   74 type  4   force =     0.00121590   -0.00020019   -0.00076727
     atom   75 type  4   force =     0.00058839    0.01354639    0.00505737
     atom   76 type  4   force =     0.00832527    0.00521701    0.00916519
     atom   77 type  4   force =     0.00708140   -0.00267541    0.00152988
     atom   78 type  4   force =     0.04433938   -0.14241405   -0.00540424
     atom   79 type  4   force =     0.00181756    0.00190826    0.00139095
     atom   80 type  4   force =     0.00032571    0.00229593   -0.00167779
     atom   81 type  4   force =     0.06783735    0.00090980   -0.00661598
     atom   82 type  4   force =     0.00035162    0.00090094   -0.00118656
     atom   83 type  4   force =    -0.03913290    0.13478009    0.00264168
     atom   84 type  4   force =    -0.00300988   -0.01099651   -0.00412273
     atom   85 type  3   force =     0.04006060   -0.12015039   -0.01813387
     atom   86 type  3   force =    -0.06379597   -0.00050387    0.00766306
     atom   87 type  3   force =    -0.04506830    0.12375101    0.01939598
     atom   88 type  3   force =    -0.00165406    0.00016497    0.00267079
     atom   89 type  4   force =     0.00902138   -0.01531173    0.00395969
     atom   90 type  4   force =    -0.00462981    0.00116044   -0.00003388
     atom   91 type  4   force =    -0.00886017    0.00837338   -0.00644080
     atom   92 type  4   force =     0.00000886    0.00017522   -0.00074425
     atom   93 type  4   force =    -0.00172258   -0.00834760    0.00731996
     atom   94 type  4   force =    -0.00404608    0.00091956   -0.00081275
     atom   95 type  4   force =    -0.00525074    0.01346056    0.00739163
     atom   96 type  4   force =     0.00413150    0.00516402    0.00955656
     atom   97 type  4   force =    -0.00003200    0.00030979    0.00063154
     atom   98 type  4   force =     0.04031642   -0.14097207   -0.00544504
     atom   99 type  4   force =    -0.06661856    0.00000612    0.00630955
     atom  100 type  4   force =    -0.00198382    0.00353586   -0.00256124
     atom  101 type  4   force =    -0.00002032    0.00080714   -0.00090234
     atom  102 type  4   force =    -0.00612087    0.00440790   -0.00141242
     atom  103 type  4   force =    -0.04028687    0.13343343    0.00427160
     atom  104 type  4   force =    -0.00703682   -0.00988981   -0.00528847
     atom  105 type  2   force =     0.00413071   -0.00656385   -0.01771727
     atom  106 type  1   force =     0.02825096    0.01428536    0.01192886
     atom  107 type  1   force =     0.00866012   -0.00615702   -0.01372132
     atom  108 type  1   force =    -0.02843838    0.02171870    0.01899419
     atom  109 type  1   force =     0.00498656    0.01618912    0.00977633
     atom  110 type  1   force =    -0.00251788   -0.00877409   -0.00647963
     atom  111 type  1   force =    -0.00082363   -0.00949918   -0.01123084
     atom  112 type  1   force =     0.02919528    0.01753649    0.01163142
     atom  113 type  1   force =    -0.00067143   -0.00500550   -0.01358601
     atom  114 type  1   force =    -0.02969666    0.02077122    0.01881541
     atom  115 type  1   force =    -0.00713078    0.01857170    0.01245730
     atom  116 type  1   force =    -0.00555949   -0.00437106   -0.00265169
     atom  117 type  3   force =     0.01425092   -0.17387780   -0.10886590
     atom  118 type  3   force =     0.00518559   -0.00850890   -0.01252282
     atom  119 type  3   force =    -0.04467759    0.12500607   -0.00180330
     atom  120 type  3   force =     0.09507438   -0.04105995   -0.07975963
     atom  121 type  4   force =     0.00611340   -0.01714056    0.03733876
     atom  122 type  4   force =    -0.00355792    0.00379031    0.00437068
     atom  123 type  4   force =    -0.00081235    0.00259541   -0.00295315
     atom  124 type  4   force =     0.00853504    0.00213676    0.02700842
     atom  125 type  4   force =     0.00983677   -0.01698752    0.01570496
     atom  126 type  4   force =    -0.00756518    0.00100497   -0.00322560
     atom  127 type  4   force =     0.00398161    0.00965806    0.00035957
     atom  128 type  4   force =    -0.00056313   -0.00119206    0.02993432
     atom  129 type  4   force =    -0.00758664    0.02563308    0.00115958
     atom  130 type  4   force =     0.04342715   -0.14605546   -0.00194203
     atom  131 type  4   force =    -0.01754454   -0.00038001    0.00283716
     atom  132 type  4   force =     0.00334719    0.00264527    0.00197270
     atom  133 type  4   force =     0.06982406    0.00370910   -0.00193408
     atom  134 type  4   force =     0.00092431    0.00361850    0.00268395
     atom  135 type  4   force =    -0.02762570    0.17238471    0.00602212
     atom  136 type  4   force =     0.01971929   -0.00863188    0.00398431
     atom  137 type  3   force =     0.00909864   -0.16686630   -0.09428372
     atom  138 type  3   force =    -0.06471401   -0.00205935   -0.00485237
     atom  139 type  3   force =    -0.04871908    0.11826171    0.00162181
     atom  140 type  3   force =     0.03145511   -0.04326152   -0.07373167
     atom  141 type  4   force =     0.00461521   -0.01334547    0.03213602
     atom  142 type  4   force =    -0.00548293   -0.00030809    0.00421469
     atom  143 type  4   force =    -0.00815032    0.00812938   -0.00360871
     atom  144 type  4   force =     0.00388235    0.00133939    0.02760015
     atom  145 type  4   force =     0.00684165   -0.01310381    0.03211523
     atom  146 type  4   force =    -0.00873324   -0.00179806   -0.00314785
     atom  147 type  4   force =     0.00031635    0.00987411    0.00254047
     atom  148 type  4   force =    -0.00785823    0.00112504    0.02885496
     atom  149 type  4   force =    -0.01310972    0.02956432    0.00047212
     atom  150 type  4   force =     0.03983349   -0.13834659   -0.00144100
     atom  151 type  4   force =    -0.08629763   -0.00174293    0.00913720
     atom  152 type  4   force =     0.00116862    0.00389406    0.00139316
     atom  153 type  4   force =    -0.00348425    0.00083686    0.00293162
     atom  154 type  4   force =    -0.00591065    0.00596250    0.00127478
     atom  155 type  4   force =    -0.02803628    0.16658303    0.00480590
     atom  156 type  4   force =     0.01068604   -0.00970310   -0.00139650
     atom  157 type  4   force =     0.00478167    0.00350361   -0.00216746
     atom  158 type  5   force =    -0.00524408   -0.00355490    0.00164362

     Total force =     0.671293     Total SCF correction =     0.003152
 
     init_run     :      7.05s CPU      7.78s WALL (       1 calls)
     electrons    :    666.43s CPU    704.93s WALL (       1 calls)
     forces       :      3.30s CPU      3.69s WALL (       1 calls)
     force_london :      0.09s CPU      0.09s WALL (       1 calls)

     Called by init_run:
     wfcinit      :      4.13s CPU      4.31s WALL (       1 calls)
     potinit      :      0.57s CPU      0.77s WALL (       1 calls)
     hinit0       :      1.22s CPU      1.30s WALL (       1 calls)

     Called by electrons:
     c_bands      :    539.55s CPU    560.97s WALL (      53 calls)
     sum_band     :     81.65s CPU     90.85s WALL (      53 calls)
     v_of_rho     :      9.47s CPU     10.34s WALL (      54 calls)
     newd         :     23.96s CPU     31.20s WALL (      54 calls)
     mix_rho      :     11.72s CPU     11.80s WALL (      53 calls)
     energy_londo :      0.09s CPU      0.09s WALL (       1 calls)

     Called by c_bands:
     init_us_2    :      1.45s CPU      1.51s WALL (     216 calls)
     init_us_2:cp :      1.44s CPU      1.50s WALL (     216 calls)
     regterg      :    529.02s CPU    550.27s WALL (     106 calls)

     Called by *egterg:
     rdiaghg      :    186.53s CPU    197.27s WALL (     595 calls)
     h_psi        :    187.01s CPU    191.70s WALL (     597 calls)
     s_psi        :     38.04s CPU     38.05s WALL (     597 calls)
     g_psi        :      0.26s CPU      0.26s WALL (     489 calls)

     Called by h_psi:
     h_psi:calbec :     50.82s CPU     54.57s WALL (     597 calls)
     vloc_psi     :     96.28s CPU     96.78s WALL (     597 calls)
     add_vuspsi   :     39.47s CPU     39.91s WALL (     597 calls)

     General routines
     calbec       :     74.76s CPU     80.37s WALL (     711 calls)
     fft          :     10.24s CPU     11.32s WALL (     985 calls)
     ffts         :      7.58s CPU      7.61s WALL (    6557 calls)
     fftw         :    110.24s CPU    110.75s WALL (  181206 calls)
     interpolate  :      0.76s CPU      0.83s WALL (     108 calls)
 
     Parallel routines
 
     PWSCF        :  11m18.82s CPU  11m58.73s WALL

 
   This run was terminated on:   3:22:54  20Nov2025            

=------------------------------------------------------------------------------=
   JOB DONE.
=------------------------------------------------------------------------------=
