
     Program PWSCF v.7.2 starts on 20Nov2025 at  2: 9:21 

     This program is part of the open-source Quantum ESPRESSO suite
     for quantum simulation of materials; please cite
         "P. Giannozzi et al., J. Phys.:Condens. Matter 21 395502 (2009);
         "P. Giannozzi et al., J. Phys.:Condens. Matter 29 465901 (2017);
         "P. Giannozzi et al., J. Chem. Phys. 152 154105 (2020);
          URL http://www.quantum-espresso.org", 
     in publications or presentations arising from this work. More details at
     http://www.quantum-espresso.org/quote

     Parallel version (MPI), running on    64 processors

     MPI processes distributed on     4 nodes
     386302 MiB available memory on the printing compute node when the environment starts
 
     Reading input from PWINPUT_atm158_xm

     Current dimensions of program PWSCF are:
     Max number of different atomic species (ntypx) = 10
     Max number of k-points (npk) =  40000
     Max angular momentum in pseudopotentials (lmaxx) =  4
     Presently no symmetry can be used with electric field

     file Ni.pbe-n-rrkjus_psl.1.0.0.UPF: wavefunction(s)  3D renormalized
     file Mn.pbe-spn-rrkjus_psl.0.3.1.UPF: wavefunction(s)  3D renormalized
     file O.pbe-rrkjus.UPF: wavefunction(s)  2S renormalized
     file H.pbe-rrkjus.UPF: wavefunction(s)  1S renormalized

     gamma-point specific algorithms are used
 
     R & G space division:  proc/nbgrp/npool/nimage =      64
     Subspace diagonalization in iterative solution of the eigenvalue problem:
     one sub-group per band group will be used
     custom distributed-memory algorithm (size of sub-group:  6*  6 procs)

 
     Parallelization info
     --------------------
     sticks:   dense  smooth     PW     G-vecs:    dense   smooth      PW
     Min         208      82     20                59912    15118    1876
     Max         210      84     22                59974    15196    1926
     Sum       13399    5355   1345              3836275   970529  121367
 
     Using Slab Decomposition
 


     bravais-lattice index     =            0
     lattice parameter (alat)  =      17.7004  a.u.
     unit-cell volume          =   20319.7251 (a.u.)^3
     number of atoms/cell      =          158
     number of atomic types    =            5
     number of electrons       =      1078.00
     number of Kohn-Sham states=          647
     kinetic-energy cutoff     =      50.0000  Ry
     charge density cutoff     =     500.0000  Ry
     scf convergence threshold =      1.0E-06
     mixing beta               =       0.5000
     number of iterations used =            8  local-TF  mixing
     Exchange-correlation=  SLA  PW   PBE  PBE
                           (   1   4   3   4   0   0   0)

     celldm(1)=  17.700384  celldm(2)=   0.000000  celldm(3)=   0.000000
     celldm(4)=   0.000000  celldm(5)=   0.000000  celldm(6)=   0.000000

     crystal axes: (cart. coord. in units of alat)
               a(1) = (   1.000000   0.000000   0.000000 )  
               a(2) = (   0.000000   1.075730   0.000000 )  
               a(3) = (   0.000000   0.000000   3.406172 )  

     reciprocal axes: (cart. coord. in units 2 pi/alat)
               b(1) = (  1.000000  0.000000  0.000000 )  
               b(2) = (  0.000000  0.929602  0.000000 )  
               b(3) = (  0.000000  0.000000  0.293585 )  


     PseudoPot. # 1 for Ni read from file:
     ~/PSEUDO/Ni.pbe-n-rrkjus_psl.1.0.0.UPF
     MD5 check sum: Not computed, couldn't open file
     Pseudo is Ultrasoft + core correction, Zval = 10.0
     Generated using "atomic" code by A. Dal Corso  v.5.1.2
     Using radial grid of 1195 points,  6 beta functions with: 
                l(1) =   0
                l(2) =   0
                l(3) =   1
                l(4) =   1
                l(5) =   2
                l(6) =   2
     Q(r) pseudized with 0 coefficients 


     PseudoPot. # 2 for Mn read from file:
     ~/PSEUDO/Mn.pbe-spn-rrkjus_psl.0.3.1.UPF
     MD5 check sum: Not computed, couldn't open file
     Pseudo is Ultrasoft + core correction, Zval = 15.0
     Generated using &quot;atomic&quot; code by A. Dal Corso  v.6.2.2
     Using radial grid of 1187 points,  6 beta functions with: 
                l(1) =   0
                l(2) =   0
                l(3) =   1
                l(4) =   1
                l(5) =   2
                l(6) =   2
     Q(r) pseudized with 0 coefficients 


     PseudoPot. # 3 for P  read from file:
     ~/PSEUDO/P.pbe-n-rrkjus_psl.1.0.0.UPF
     MD5 check sum: Not computed, couldn't open file
     Pseudo is Ultrasoft + core correction, Zval =  5.0
     Generated using "atomic" code by A. Dal Corso  v.5.1
     Using radial grid of 1147 points,  6 beta functions with: 
                l(1) =   0
                l(2) =   0
                l(3) =   1
                l(4) =   1
                l(5) =   2
                l(6) =   2
     Q(r) pseudized with 0 coefficients 


     PseudoPot. # 4 for O  read from file:
     ~/PSEUDO/O.pbe-rrkjus.UPF
     MD5 check sum: Not computed, couldn't open file
     Pseudo is Ultrasoft, Zval =  6.0
     Generated by new atomic code, or converted to UPF format
     Using radial grid of 1269 points,  4 beta functions with: 
                l(1) =   0
                l(2) =   0
                l(3) =   1
                l(4) =   1
     Q(r) pseudized with 0 coefficients 


     PseudoPot. # 5 for H  read from file:
     ~/PSEUDO/H.pbe-rrkjus.UPF
     MD5 check sum: Not computed, couldn't open file
     Pseudo is Ultrasoft, Zval =  1.0
     Generated by new atomic code, or converted to UPF format
     Using radial grid of 1061 points,  2 beta functions with: 
                l(1) =   0
                l(2) =   0
     Q(r) pseudized with 0 coefficients 


     atomic species   valence    mass     pseudopotential
     Ni               10.00    58.69300     Ni( 1.00)
     Mn               15.00    54.93800     Mn( 1.00)
     P                 5.00    30.97300     P ( 1.00)
     O                 6.00    15.99900     O ( 1.00)
     H                 1.00     1.00790     H ( 1.00)

     Starting magnetic structure 
     atomic species   magnetization
     Ni              1.000
     Mn              1.000
     P               1.000
     O               1.000
     H               0.000

     No symmetry found



   Cartesian axes

     site n.     atom                  positions (alat units)
         1        Mn     tau(   1) = (   0.2487148   0.8375267   1.6951957  )
         2        Ni     tau(   2) = (   0.4985680   0.7741854   1.3708613  )
         3        Ni     tau(   3) = (  -0.0011545   0.3006174   1.6748188  )
         4        Ni     tau(   4) = (   0.2613034   0.2387656   1.3682654  )
         5        Ni     tau(   5) = (   0.9963341   1.0779630   1.5338071  )
         6        Ni     tau(   6) = (   0.2553410   0.5376272   1.5302552  )
         7        Ni     tau(   7) = (   0.7421076   0.8435707   1.7073254  )
         8        Ni     tau(   8) = (   0.9925505   0.7752294   1.3710528  )
         9        Ni     tau(   9) = (   0.5021333   0.2954136   1.6750756  )
        10        Ni     tau(  10) = (   0.7611689   0.2373559   1.3675061  )
        11        Ni     tau(  11) = (   0.5009702   1.0742604   1.5366496  )
        12        Ni     tau(  12) = (   0.7544547   0.5384375   1.5322894  )
        13        P      tau(  13) = (   0.2115511   0.9728651   1.3803029  )
        14        P      tau(  14) = (   0.4665848   0.6401311   1.6901980  )
        15        P      tau(  15) = (   0.2857882   0.1150193   1.6956783  )
        16        P      tau(  16) = (   0.0437806   0.4336934   1.3698950  )
        17        O      tau(  17) = (   0.1341895   0.9017796   1.5160649  )
        18        O      tau(  18) = (   0.3918354   0.7064542   1.5480543  )
        19        O      tau(  19) = (   0.3659047   0.1699051   1.5489901  )
        20        O      tau(  20) = (   0.1220478   0.3634760   1.5065536  )
        21        O      tau(  21) = (   0.1491769   0.8830546   1.2562069  )
        22        O      tau(  22) = (   0.4014483   0.7325987   1.8096174  )
        23        O      tau(  23) = (   0.3477141   0.2121598   1.8095684  )
        24        O      tau(  24) = (   0.1043448   0.3449385   1.2442231  )
        25        O      tau(  25) = (   0.1038610   0.5888479   1.3734716  )
        26        O      tau(  26) = (   0.3384087   1.0313531   1.6992469  )
        27        O      tau(  27) = (   0.3808703   0.4260931   1.3818057  )
        28        O      tau(  28) = (   0.1211112   0.1186251   1.6801879  )
        29        O      tau(  29) = (   0.1290557   0.6512937   1.6784404  )
        30        O      tau(  30) = (   0.4077914   0.4842311   1.6878311  )
        31        O      tau(  31) = (   0.1525182   0.0517135   1.3798448  )
        32        O      tau(  32) = (   0.3752655   0.9631458   1.3897289  )
        33        P      tau(  33) = (   0.7115935   0.9699435   1.3754512  )
        34        P      tau(  34) = (   0.9627941   0.6488001   1.6882550  )
        35        P      tau(  35) = (   0.7877941   0.1135143   1.6933997  )
        36        P      tau(  36) = (   0.5450057   0.4319961   1.3698026  )
        37        O      tau(  37) = (   0.6347424   0.8975550   1.5107968  )
        38        O      tau(  38) = (   0.8874360   0.7086109   1.5448689  )
        39        O      tau(  39) = (   0.8663690   0.1747348   1.5464995  )
        40        O      tau(  40) = (   0.6223636   0.3611942   1.5061123  )
        41        O      tau(  41) = (   0.6513775   0.8826145   1.2479475  )
        42        O      tau(  42) = (   0.9079471   0.7471932   1.8059270  )
        43        O      tau(  43) = (   0.8460393   0.2141480   1.8067812  )
        44        O      tau(  44) = (   0.6057326   0.3434800   1.2439494  )
        45        O      tau(  45) = (   0.6051788   0.5869386   1.3743458  )
        46        O      tau(  46) = (   0.8485507   1.0338148   1.6901252  )
        47        O      tau(  47) = (   0.8800306   0.4271144   1.3821281  )
        48        O      tau(  48) = (   0.6230808   0.1160198   1.6767091  )
        49        O      tau(  49) = (   0.6309458   0.6452848   1.6833570  )
        50        O      tau(  50) = (   0.9073287   0.4911282   1.6902526  )
        51        O      tau(  51) = (   0.6516592   0.0493454   1.3784195  )
        52        O      tau(  52) = (   0.8758524   0.9648084   1.3850114  )
        53        Mn     tau(  53) = (   0.2404744   0.8246335   1.0701417  )
        54        Ni     tau(  54) = (   0.4968126   0.7601755   0.7454373  )
        55        Ni     tau(  55) = (   0.0066150   0.2811828   1.0628866  )
        56        Ni     tau(  56) = (   0.2585722   0.2230943   0.7421070  )
        57        Ni     tau(  57) = (   0.9987350   1.0571496   0.9014992  )
        58        Ni     tau(  58) = (   0.2517397   0.5205596   0.9040596  )
        59        Ni     tau(  59) = (   0.7451645   0.8212628   1.0648168  )
        60        Ni     tau(  60) = (   0.9939181   0.7613889   0.7462324  )
        61        Ni     tau(  61) = (   0.5111533   0.2799173   1.0618053  )
        62        Ni     tau(  62) = (   0.7606326   0.2194352   0.7418547  )
        63        Ni     tau(  63) = (   0.5024065   1.0563218   0.8999416  )
        64        Ni     tau(  64) = (   0.7529977   0.5192985   0.9024691  )
        65        P      tau(  65) = (   0.2092944   0.9606182   0.7524883  )
        66        P      tau(  66) = (   0.4655727   0.6234620   1.0595283  )
        67        P      tau(  67) = (   0.2910699   0.0902448   1.0573821  )
        68        P      tau(  68) = (   0.0396216   0.4163480   0.7471080  )
        69        O      tau(  69) = (   0.1294378   0.8888345   0.8859300  )
        70        O      tau(  70) = (   0.3874505   0.6929859   0.9232915  )
        71        O      tau(  71) = (   0.3702540   0.1589885   0.9209891  )
        72        O      tau(  72) = (   0.1184398   0.3458043   0.8831565  )
        73        O      tau(  73) = (   0.1451572   0.8725966   0.6282341  )
        74        O      tau(  74) = (   0.4048762   0.7120670   1.1852426  )
        75        O      tau(  75) = (   0.3523506   0.1775664   1.1834175  )
        76        O      tau(  76) = (   0.1017610   0.3285569   0.6213347  )
        77        O      tau(  77) = (   0.0975396   0.5724373   0.7511996  )
        78        O      tau(  78) = (   0.3483552   1.0190030   1.0599597  )
        79        O      tau(  79) = (   0.3784305   0.4100203   0.7560991  )
        80        O      tau(  80) = (   0.1268237   0.0943029   1.0477175  )
        81        O      tau(  81) = (   0.1212267   0.6299255   1.0507023  )
        82        O      tau(  82) = (   0.4053315   0.4684472   1.0569297  )
        83        O      tau(  83) = (   0.1536621   0.0322003   0.7496532  )
        84        O      tau(  84) = (   0.3732349   0.9506802   0.7613277  )
        85        P      tau(  85) = (   0.7119823   0.9571059   0.7496908  )
        86        P      tau(  86) = (   0.9615208   0.6238477   1.0606987  )
        87        P      tau(  87) = (   0.7927710   0.0845145   1.0577754  )
        88        P      tau(  88) = (   0.5426404   0.4144760   0.7459181  )
        89        O      tau(  89) = (   0.6326879   0.8866267   0.8856678  )
        90        O      tau(  90) = (   0.8842163   0.6958291   0.9244764  )
        91        O      tau(  91) = (   0.8716178   0.1552836   0.9216415  )
        92        O      tau(  92) = (   0.6212010   0.3433751   0.8818834  )
        93        O      tau(  93) = (   0.6507714   0.8687427   0.6238197  )
        94        O      tau(  94) = (   0.9014054   0.7139543   1.1859242  )
        95        O      tau(  95) = (   0.8548963   0.1722994   1.1834447  )
        96        O      tau(  96) = (   0.6044469   0.3253792   0.6209553  )
        97        O      tau(  97) = (   0.6024424   0.5698225   0.7490903  )
        98        O      tau(  98) = (   0.8498940   1.0129567   1.0594762  )
        99        O      tau(  99) = (   0.8798395   0.4080910   0.7564148  )
       100        O      tau( 100) = (   0.6286921   0.0909721   1.0472573  )
       101        O      tau( 101) = (   0.6294973   0.6302838   1.0497366  )
       102        O      tau( 102) = (   0.9024339   0.4685397   1.0573501  )
       103        O      tau( 103) = (   0.6547812   0.0286072   0.7473283  )
       104        O      tau( 104) = (   0.8760507   0.9507690   0.7605412  )
       105        Mn     tau( 105) = (   0.2404744   0.8121420   0.4502541  )
       106        Ni     tau( 106) = (   0.4968126   0.7476840   0.1255496  )
       107        Ni     tau( 107) = (   0.0066150   0.2686914   0.4429989  )
       108        Ni     tau( 108) = (   0.2585722   0.2106028   0.1222194  )
       109        Ni     tau( 109) = (   0.9987350   1.0446581   0.2816116  )
       110        Ni     tau( 110) = (   0.2517397   0.5080681   0.2841720  )
       111        Ni     tau( 111) = (   0.7451645   0.8087713   0.4449291  )
       112        Ni     tau( 112) = (   0.9939181   0.7488974   0.1263448  )
       113        Ni     tau( 113) = (   0.5111533   0.2674258   0.4419177  )
       114        Ni     tau( 114) = (   0.7606326   0.2069438   0.1219670  )
       115        Ni     tau( 115) = (   0.5024065   1.0438304   0.2800540  )
       116        Ni     tau( 116) = (   0.7529977   0.5068070   0.2825815  )
       117        P      tau( 117) = (   0.2092944   0.9481267   0.1326007  )
       118        P      tau( 118) = (   0.4655727   0.6109705   0.4396407  )
       119        P      tau( 119) = (   0.2910699   0.0777534   0.4374945  )
       120        P      tau( 120) = (   0.0396216   0.4038566   0.1272204  )
       121        O      tau( 121) = (   0.1294378   0.8763430   0.2660424  )
       122        O      tau( 122) = (   0.3874505   0.6804944   0.3034039  )
       123        O      tau( 123) = (   0.3702540   0.1464970   0.3011014  )
       124        O      tau( 124) = (   0.1184398   0.3333129   0.2632689  )
       125        O      tau( 125) = (   0.1451572   0.8601051   0.0083464  )
       126        O      tau( 126) = (   0.4048762   0.6995756   0.5653550  )
       127        O      tau( 127) = (   0.3523506   0.1650749   0.5635298  )
       128        O      tau( 128) = (   0.1017610   0.3160655   0.0014470  )
       129        O      tau( 129) = (   0.0975396   0.5599458   0.1313120  )
       130        O      tau( 130) = (   0.3483552   1.0065115   0.4400720  )
       131        O      tau( 131) = (   0.3784305   0.3975288   0.1362114  )
       132        O      tau( 132) = (   0.1268237   0.0818115   0.4278298  )
       133        O      tau( 133) = (   0.1212267   0.6174340   0.4308146  )
       134        O      tau( 134) = (   0.4053315   0.4559557   0.4370420  )
       135        O      tau( 135) = (   0.1536621   0.0197088   0.1297656  )
       136        O      tau( 136) = (   0.3732349   0.9381887   0.1414400  )
       137        P      tau( 137) = (   0.7119823   0.9446144   0.1298032  )
       138        P      tau( 138) = (   0.9615208   0.6113562   0.4408111  )
       139        P      tau( 139) = (   0.7927710   0.0720230   0.4378878  )
       140        P      tau( 140) = (   0.5426404   0.4019845   0.1260304  )
       141        O      tau( 141) = (   0.6326879   0.8741353   0.2657802  )
       142        O      tau( 142) = (   0.8842163   0.6833376   0.3045887  )
       143        O      tau( 143) = (   0.8716178   0.1427921   0.3017538  )
       144        O      tau( 144) = (   0.6212010   0.3308836   0.2619957  )
       145        O      tau( 145) = (   0.6507714   0.8562512   0.0039320  )
       146        O      tau( 146) = (   0.9014054   0.7014628   0.5660366  )
       147        O      tau( 147) = (   0.8548963   0.1598079   0.5635571  )
       148        O      tau( 148) = (   0.6044469   0.3128877   0.0010676  )
       149        O      tau( 149) = (   0.6024424   0.5573310   0.1292027  )
       150        O      tau( 150) = (   0.8498940   1.0004653   0.4395886  )
       151        O      tau( 151) = (   0.8798395   0.3955995   0.1365272  )
       152        O      tau( 152) = (   0.6286921   0.0784807   0.4273696  )
       153        O      tau( 153) = (   0.6294973   0.6177923   0.4298489  )
       154        O      tau( 154) = (   0.9024339   0.4560482   0.4374624  )
       155        O      tau( 155) = (   0.6547812   0.0161158   0.1274406  )
       156        O      tau( 156) = (   0.8760507   0.9382775   0.1406535  )
       157        O      tau( 157) = (   0.6290941   0.9242713   1.8436369  )
       158        H      tau( 158) = (   0.5513261   0.8599107   1.8761737  )

     -------------------------------------------------
     Parameters for Dispersion (Grimme-D2) Correction:
     -------------------------------------------------
       atom      VdW radius       C_6     

        Ni         2.952        374.666
        Mn         2.952        374.666
        P          3.222        271.980
        O          2.536         24.284
        H          1.892          4.857

     number of k points=     1  Gaussian smearing, width (Ry)=  0.0100
                       cart. coord. in units 2pi/alat
        k(    1) = (   0.0000000   0.0000000   0.0000000), wk =   1.0000000

     Dense  grid:  1918138 G-vectors     FFT dimensions: ( 125, 135, 432)

     Smooth grid:   485265 G-vectors     FFT dimensions: (  80,  90, 288)

     Estimated max dynamical RAM per process >     320.12 MB

     Estimated total dynamical RAM >      20.01 GB
     Generating pointlists ...
     new r_m :   0.0803 (alat units)  1.4208 (a.u.) for type    1
     new r_m :   0.0869 (alat units)  1.5388 (a.u.) for type    2
     new r_m :   0.0650 (alat units)  1.1499 (a.u.) for type    3
     new r_m :   0.0437 (alat units)  0.7744 (a.u.) for type    4
     new r_m :   0.0437 (alat units)  0.7744 (a.u.) for type    5

     Initial potential from superposition of free atoms

     starting charge    1077.8900, renormalised to    1078.0000

     negative rho (up, down):  1.227E-03 4.513E-04
 
     Adding external electric field

     Computed dipole along edir(3) : 
        Dipole                1.6379 Ry au,          4.1630 Debye
        Dipole field          0.0010 Ry au, 
 
        Potential amp.       -0.1099 Ry
        Total length         54.2615 bohr
 
 
     Adding external electric field

     Computed dipole along edir(3) : 
        Dipole                1.6379 Ry au,          4.1630 Debye
        Dipole field          0.0010 Ry au, 
 
        Potential amp.       -0.1099 Ry
        Total length         54.2615 bohr
 
     Starting wfcs are  812 randomized atomic wfcs

     total cpu time spent up to now is       10.3 secs

     Self-consistent Calculation

     iteration #  1     ecut=    50.00 Ry     beta= 0.50
     Davidson diagonalization with overlap
     ethr =  1.00E-02,  avg # of iterations =  6.0

     negative rho (up, down):  2.471E+00 1.794E-05
 
     Adding external electric field

     Computed dipole along edir(3) : 
        Dipole              -21.2652 Ry au,        -54.0507 Debye
        Dipole field         -0.0132 Ry au, 
 
        Potential amp.        1.4272 Ry
        Total length         54.2615 bohr
 
 
     Adding external electric field

     Computed dipole along edir(3) : 
        Dipole              -21.2652 Ry au,        -54.0507 Debye
        Dipole field         -0.0132 Ry au, 
 
        Potential amp.        1.4272 Ry
        Total length         54.2615 bohr
 

     total cpu time spent up to now is       36.3 secs

     total energy              =   -7214.29805543 Ry
     estimated scf accuracy    <     731.20213439 Ry

     total magnetization       =   216.00 Bohr mag/cell
     absolute magnetization    =   298.17 Bohr mag/cell

     iteration #  2     ecut=    50.00 Ry     beta= 0.50
     Davidson diagonalization with overlap
     ethr =  1.00E-02,  avg # of iterations =  8.5

     negative rho (up, down):  2.217E+00 3.847E-05
 
     Adding external electric field

     Computed dipole along edir(3) : 
        Dipole               -1.2872 Ry au,         -3.2718 Debye
        Dipole field         -0.0008 Ry au, 
 
        Potential amp.        0.0864 Ry
        Total length         54.2615 bohr
 
 
     Adding external electric field

     Computed dipole along edir(3) : 
        Dipole               -1.2872 Ry au,         -3.2718 Debye
        Dipole field         -0.0008 Ry au, 
 
        Potential amp.        0.0864 Ry
        Total length         54.2615 bohr
 

     total cpu time spent up to now is       60.0 secs

     total energy              =   -7313.96916350 Ry
     estimated scf accuracy    <    5543.61564908 Ry

     total magnetization       =   133.53 Bohr mag/cell
     absolute magnetization    =   174.48 Bohr mag/cell

     iteration #  3     ecut=    50.00 Ry     beta= 0.50
     Davidson diagonalization with overlap
     ethr =  1.00E-02,  avg # of iterations =  4.0

     negative rho (up, down):  1.540E+00 1.936E-04
 
     Adding external electric field

     Computed dipole along edir(3) : 
        Dipole               -2.9257 Ry au,         -7.4363 Debye
        Dipole field         -0.0018 Ry au, 
 
        Potential amp.        0.1964 Ry
        Total length         54.2615 bohr
 
 
     Adding external electric field

     Computed dipole along edir(3) : 
        Dipole               -2.9257 Ry au,         -7.4363 Debye
        Dipole field         -0.0018 Ry au, 
 
        Potential amp.        0.1964 Ry
        Total length         54.2615 bohr
 

     total cpu time spent up to now is       74.1 secs

     total energy              =   -7363.46413611 Ry
     estimated scf accuracy    <     677.84366302 Ry

     total magnetization       =   119.76 Bohr mag/cell
     absolute magnetization    =   165.58 Bohr mag/cell

     iteration #  4     ecut=    50.00 Ry     beta= 0.50
     Davidson diagonalization with overlap
     ethr =  1.00E-02,  avg # of iterations =  2.0

     negative rho (up, down):  1.279E+00 2.086E-04
 
     Adding external electric field

     Computed dipole along edir(3) : 
        Dipole               -3.1282 Ry au,         -7.9511 Debye
        Dipole field         -0.0019 Ry au, 
 
        Potential amp.        0.2099 Ry
        Total length         54.2615 bohr
 
 
     Adding external electric field

     Computed dipole along edir(3) : 
        Dipole               -3.1282 Ry au,         -7.9511 Debye
        Dipole field         -0.0019 Ry au, 
 
        Potential amp.        0.2099 Ry
        Total length         54.2615 bohr
 

     total cpu time spent up to now is       87.7 secs

     total energy              =   -7377.32897521 Ry
     estimated scf accuracy    <     212.31489994 Ry

     total magnetization       =    84.89 Bohr mag/cell
     absolute magnetization    =   133.62 Bohr mag/cell

     iteration #  5     ecut=    50.00 Ry     beta= 0.50
     Davidson diagonalization with overlap
     ethr =  1.00E-02,  avg # of iterations =  1.0

     negative rho (up, down):  5.305E-01 1.363E-09
 
     Adding external electric field

     Computed dipole along edir(3) : 
        Dipole               -3.1945 Ry au,         -8.1195 Debye
        Dipole field         -0.0020 Ry au, 
 
        Potential amp.        0.2144 Ry
        Total length         54.2615 bohr
 
 
     Adding external electric field

     Computed dipole along edir(3) : 
        Dipole               -3.1945 Ry au,         -8.1195 Debye
        Dipole field         -0.0020 Ry au, 
 
        Potential amp.        0.2144 Ry
        Total length         54.2615 bohr
 

     total cpu time spent up to now is       99.5 secs

     total energy              =   -7390.26859084 Ry
     estimated scf accuracy    <      48.52356614 Ry

     total magnetization       =    83.00 Bohr mag/cell
     absolute magnetization    =   123.98 Bohr mag/cell

     iteration #  6     ecut=    50.00 Ry     beta= 0.50
     Davidson diagonalization with overlap
     ethr =  4.50E-03,  avg # of iterations =  2.0

     negative rho (up, down):  2.040E-01 3.413E-07
 
     Adding external electric field

     Computed dipole along edir(3) : 
        Dipole               -3.5144 Ry au,         -8.9327 Debye
        Dipole field         -0.0022 Ry au, 
 
        Potential amp.        0.2359 Ry
        Total length         54.2615 bohr
 
 
     Adding external electric field

     Computed dipole along edir(3) : 
        Dipole               -3.5144 Ry au,         -8.9327 Debye
        Dipole field         -0.0022 Ry au, 
 
        Potential amp.        0.2359 Ry
        Total length         54.2615 bohr
 

     total cpu time spent up to now is      112.1 secs

     total energy              =   -7393.46356930 Ry
     estimated scf accuracy    <      43.88172176 Ry

     total magnetization       =    82.00 Bohr mag/cell
     absolute magnetization    =   110.01 Bohr mag/cell

     iteration #  7     ecut=    50.00 Ry     beta= 0.50
     Davidson diagonalization with overlap
     ethr =  4.07E-03,  avg # of iterations =  1.5

     negative rho (up, down):  1.151E-03 2.715E-03
 
     Adding external electric field

     Computed dipole along edir(3) : 
        Dipole               -3.6802 Ry au,         -9.3543 Debye
        Dipole field         -0.0023 Ry au, 
 
        Potential amp.        0.2470 Ry
        Total length         54.2615 bohr
 
 
     Adding external electric field

     Computed dipole along edir(3) : 
        Dipole               -3.6802 Ry au,         -9.3543 Debye
        Dipole field         -0.0023 Ry au, 
 
        Potential amp.        0.2470 Ry
        Total length         54.2615 bohr
 

     total cpu time spent up to now is      124.1 secs

     total energy              =   -7396.68626985 Ry
     estimated scf accuracy    <      22.84589062 Ry

     total magnetization       =    80.00 Bohr mag/cell
     absolute magnetization    =    99.08 Bohr mag/cell

     iteration #  8     ecut=    50.00 Ry     beta= 0.50
     Davidson diagonalization with overlap
     ethr =  2.12E-03,  avg # of iterations =  2.0

     negative rho (up, down):  2.517E-04 5.952E-03
 
     Adding external electric field

     Computed dipole along edir(3) : 
        Dipole               -3.7157 Ry au,         -9.4443 Debye
        Dipole field         -0.0023 Ry au, 
 
        Potential amp.        0.2494 Ry
        Total length         54.2615 bohr
 
 
     Adding external electric field

     Computed dipole along edir(3) : 
        Dipole               -3.7157 Ry au,         -9.4443 Debye
        Dipole field         -0.0023 Ry au, 
 
        Potential amp.        0.2494 Ry
        Total length         54.2615 bohr
 

     total cpu time spent up to now is      136.7 secs

     total energy              =   -7396.87129743 Ry
     estimated scf accuracy    <      59.72646497 Ry

     total magnetization       =    73.85 Bohr mag/cell
     absolute magnetization    =    85.50 Bohr mag/cell

     iteration #  9     ecut=    50.00 Ry     beta= 0.50
     Davidson diagonalization with overlap
     ethr =  2.12E-03,  avg # of iterations =  2.0

     negative rho (up, down):  3.567E-04 7.114E-03
 
     Adding external electric field

     Computed dipole along edir(3) : 
        Dipole               -3.6692 Ry au,         -9.3261 Debye
        Dipole field         -0.0023 Ry au, 
 
        Potential amp.        0.2463 Ry
        Total length         54.2615 bohr
 
 
     Adding external electric field

     Computed dipole along edir(3) : 
        Dipole               -3.6692 Ry au,         -9.3261 Debye
        Dipole field         -0.0023 Ry au, 
 
        Potential amp.        0.2463 Ry
        Total length         54.2615 bohr
 

     total cpu time spent up to now is      149.3 secs

     total energy              =   -7397.95184870 Ry
     estimated scf accuracy    <      11.33429529 Ry

     total magnetization       =    75.53 Bohr mag/cell
     absolute magnetization    =    84.03 Bohr mag/cell

     iteration # 10     ecut=    50.00 Ry     beta= 0.50
     Davidson diagonalization with overlap
     ethr =  1.05E-03,  avg # of iterations =  4.0

     negative rho (up, down):  8.386E-04 1.324E-02
 
     Adding external electric field

     Computed dipole along edir(3) : 
        Dipole               -3.5685 Ry au,         -9.0701 Debye
        Dipole field         -0.0022 Ry au, 
 
        Potential amp.        0.2395 Ry
        Total length         54.2615 bohr
 
 
     Adding external electric field

     Computed dipole along edir(3) : 
        Dipole               -3.5685 Ry au,         -9.0701 Debye
        Dipole field         -0.0022 Ry au, 
 
        Potential amp.        0.2395 Ry
        Total length         54.2615 bohr
 

     total cpu time spent up to now is      162.3 secs

     total energy              =   -7397.98064552 Ry
     estimated scf accuracy    <       7.66095772 Ry

     total magnetization       =    79.06 Bohr mag/cell
     absolute magnetization    =    86.09 Bohr mag/cell

     iteration # 11     ecut=    50.00 Ry     beta= 0.50
     Davidson diagonalization with overlap
     ethr =  7.11E-04,  avg # of iterations =  8.0

     negative rho (up, down):  1.618E-06 1.097E-03
 
     Adding external electric field

     Computed dipole along edir(3) : 
        Dipole               -3.4153 Ry au,         -8.6808 Debye
        Dipole field         -0.0021 Ry au, 
 
        Potential amp.        0.2292 Ry
        Total length         54.2615 bohr
 
 
     Adding external electric field

     Computed dipole along edir(3) : 
        Dipole               -3.4153 Ry au,         -8.6808 Debye
        Dipole field         -0.0021 Ry au, 
 
        Potential amp.        0.2292 Ry
        Total length         54.2615 bohr
 

     total cpu time spent up to now is      179.6 secs

     total energy              =   -7398.00232067 Ry
     estimated scf accuracy    <       6.71493843 Ry

     total magnetization       =    79.36 Bohr mag/cell
     absolute magnetization    =    84.25 Bohr mag/cell

     iteration # 12     ecut=    50.00 Ry     beta= 0.50
     Davidson diagonalization with overlap
     ethr =  6.23E-04,  avg # of iterations =  2.0

     negative rho (up, down):  7.540E-08 1.846E-04
 
     Adding external electric field

     Computed dipole along edir(3) : 
        Dipole               -3.1942 Ry au,         -8.1189 Debye
        Dipole field         -0.0020 Ry au, 
 
        Potential amp.        0.2144 Ry
        Total length         54.2615 bohr
 
 
     Adding external electric field

     Computed dipole along edir(3) : 
        Dipole               -3.1942 Ry au,         -8.1189 Debye
        Dipole field         -0.0020 Ry au, 
 
        Potential amp.        0.2144 Ry
        Total length         54.2615 bohr
 

     total cpu time spent up to now is      191.6 secs

     total energy              =   -7398.06678004 Ry
     estimated scf accuracy    <       9.19137501 Ry

     total magnetization       =    74.97 Bohr mag/cell
     absolute magnetization    =    79.90 Bohr mag/cell

     iteration # 13     ecut=    50.00 Ry     beta= 0.50
     Davidson diagonalization with overlap
     ethr =  6.23E-04,  avg # of iterations =  1.5

     negative rho (up, down):  2.741E-09 8.416E-06
 
     Adding external electric field

     Computed dipole along edir(3) : 
        Dipole               -2.9378 Ry au,         -7.4671 Debye
        Dipole field         -0.0018 Ry au, 
 
        Potential amp.        0.1972 Ry
        Total length         54.2615 bohr
 
 
     Adding external electric field

     Computed dipole along edir(3) : 
        Dipole               -2.9378 Ry au,         -7.4671 Debye
        Dipole field         -0.0018 Ry au, 
 
        Potential amp.        0.1972 Ry
        Total length         54.2615 bohr
 

     total cpu time spent up to now is      203.4 secs

     total energy              =   -7398.03102553 Ry
     estimated scf accuracy    <       6.25117939 Ry

     total magnetization       =    76.15 Bohr mag/cell
     absolute magnetization    =    79.81 Bohr mag/cell

     iteration # 14     ecut=    50.00 Ry     beta= 0.50
     Davidson diagonalization with overlap
     ethr =  5.80E-04,  avg # of iterations =  4.5

     negative rho (up, down):  1.044E-05 3.416E-08
 
     Adding external electric field

     Computed dipole along edir(3) : 
        Dipole               -2.4519 Ry au,         -6.2321 Debye
        Dipole field         -0.0015 Ry au, 
 
        Potential amp.        0.1646 Ry
        Total length         54.2615 bohr
 
 
     Adding external electric field

     Computed dipole along edir(3) : 
        Dipole               -2.4519 Ry au,         -6.2321 Debye
        Dipole field         -0.0015 Ry au, 
 
        Potential amp.        0.1646 Ry
        Total length         54.2615 bohr
 

     total cpu time spent up to now is      216.1 secs

     total energy              =   -7398.02257793 Ry
     estimated scf accuracy    <       6.08863103 Ry

     total magnetization       =    76.73 Bohr mag/cell
     absolute magnetization    =    79.33 Bohr mag/cell

     iteration # 15     ecut=    50.00 Ry     beta= 0.50
     Davidson diagonalization with overlap
     ethr =  5.65E-04,  avg # of iterations =  1.5

     negative rho (up, down):  3.816E-03 6.054E-03
 
     Adding external electric field

     Computed dipole along edir(3) : 
        Dipole               -1.9620 Ry au,         -4.9868 Debye
        Dipole field         -0.0012 Ry au, 
 
        Potential amp.        0.1317 Ry
        Total length         54.2615 bohr
 
 
     Adding external electric field

     Computed dipole along edir(3) : 
        Dipole               -1.9620 Ry au,         -4.9868 Debye
        Dipole field         -0.0012 Ry au, 
 
        Potential amp.        0.1317 Ry
        Total length         54.2615 bohr
 

     total cpu time spent up to now is      227.6 secs

     total energy              =   -7397.97846768 Ry
     estimated scf accuracy    <       3.99465040 Ry

     total magnetization       =    79.93 Bohr mag/cell
     absolute magnetization    =    81.81 Bohr mag/cell

     iteration # 16     ecut=    50.00 Ry     beta= 0.50
     Davidson diagonalization with overlap
     c_bands:  3 eigenvalues not converged
     ethr =  3.71E-04,  avg # of iterations = 10.5

     negative rho (up, down):  1.155E-03 1.974E-03
 
     Adding external electric field

     Computed dipole along edir(3) : 
        Dipole               -1.9488 Ry au,         -4.9534 Debye
        Dipole field         -0.0012 Ry au, 
 
        Potential amp.        0.1308 Ry
        Total length         54.2615 bohr
 
 
     Adding external electric field

     Computed dipole along edir(3) : 
        Dipole               -1.9488 Ry au,         -4.9534 Debye
        Dipole field         -0.0012 Ry au, 
 
        Potential amp.        0.1308 Ry
        Total length         54.2615 bohr
 

     total cpu time spent up to now is      246.4 secs

     total energy              =   -7397.85915911 Ry
     estimated scf accuracy    <       9.98609758 Ry

     total magnetization       =    78.48 Bohr mag/cell
     absolute magnetization    =    79.45 Bohr mag/cell

     iteration # 17     ecut=    50.00 Ry     beta= 0.50
     Davidson diagonalization with overlap
     ethr =  3.71E-04,  avg # of iterations =  1.0
 
     Adding external electric field

     Computed dipole along edir(3) : 
        Dipole               -2.1176 Ry au,         -5.3823 Debye
        Dipole field         -0.0013 Ry au, 
 
        Potential amp.        0.1421 Ry
        Total length         54.2615 bohr
 
 
     Adding external electric field

     Computed dipole along edir(3) : 
        Dipole               -2.1176 Ry au,         -5.3823 Debye
        Dipole field         -0.0013 Ry au, 
 
        Potential amp.        0.1421 Ry
        Total length         54.2615 bohr
 

     total cpu time spent up to now is      257.0 secs

     total energy              =   -7397.96557422 Ry
     estimated scf accuracy    <       0.90958911 Ry

     total magnetization       =    80.15 Bohr mag/cell
     absolute magnetization    =    81.15 Bohr mag/cell

     iteration # 18     ecut=    50.00 Ry     beta= 0.50
     Davidson diagonalization with overlap
     ethr =  8.44E-05,  avg # of iterations =  3.0
 
     Adding external electric field

     Computed dipole along edir(3) : 
        Dipole               -1.8077 Ry au,         -4.5946 Debye
        Dipole field         -0.0011 Ry au, 
 
        Potential amp.        0.1213 Ry
        Total length         54.2615 bohr
 
 
     Adding external electric field

     Computed dipole along edir(3) : 
        Dipole               -1.8077 Ry au,         -4.5946 Debye
        Dipole field         -0.0011 Ry au, 
 
        Potential amp.        0.1213 Ry
        Total length         54.2615 bohr
 

     total cpu time spent up to now is      269.7 secs

     total energy              =   -7398.03220614 Ry
     estimated scf accuracy    <       0.49456781 Ry

     total magnetization       =    79.91 Bohr mag/cell
     absolute magnetization    =    81.70 Bohr mag/cell

     iteration # 19     ecut=    50.00 Ry     beta= 0.50
     Davidson diagonalization with overlap
     ethr =  4.59E-05,  avg # of iterations = 12.0
 
     Adding external electric field

     Computed dipole along edir(3) : 
        Dipole               -1.6766 Ry au,         -4.2616 Debye
        Dipole field         -0.0010 Ry au, 
 
        Potential amp.        0.1125 Ry
        Total length         54.2615 bohr
 
 
     Adding external electric field

     Computed dipole along edir(3) : 
        Dipole               -1.6766 Ry au,         -4.2616 Debye
        Dipole field         -0.0010 Ry au, 
 
        Potential amp.        0.1125 Ry
        Total length         54.2615 bohr
 

     total cpu time spent up to now is      294.2 secs

     total energy              =   -7398.05107202 Ry
     estimated scf accuracy    <       0.18891308 Ry

     total magnetization       =    81.04 Bohr mag/cell
     absolute magnetization    =    82.50 Bohr mag/cell

     iteration # 20     ecut=    50.00 Ry     beta= 0.50
     Davidson diagonalization with overlap
     ethr =  1.75E-05,  avg # of iterations =  3.0
 
     Adding external electric field

     Computed dipole along edir(3) : 
        Dipole               -1.6747 Ry au,         -4.2566 Debye
        Dipole field         -0.0010 Ry au, 
 
        Potential amp.        0.1124 Ry
        Total length         54.2615 bohr
 
 
     Adding external electric field

     Computed dipole along edir(3) : 
        Dipole               -1.6747 Ry au,         -4.2566 Debye
        Dipole field         -0.0010 Ry au, 
 
        Potential amp.        0.1124 Ry
        Total length         54.2615 bohr
 

     total cpu time spent up to now is      306.6 secs

     total energy              =   -7398.05263435 Ry
     estimated scf accuracy    <       0.18293822 Ry

     total magnetization       =    80.68 Bohr mag/cell
     absolute magnetization    =    82.15 Bohr mag/cell

     iteration # 21     ecut=    50.00 Ry     beta= 0.50
     Davidson diagonalization with overlap
     ethr =  1.70E-05,  avg # of iterations =  2.0
 
     Adding external electric field

     Computed dipole along edir(3) : 
        Dipole               -1.5742 Ry au,         -4.0012 Debye
        Dipole field         -0.0010 Ry au, 
 
        Potential amp.        0.1057 Ry
        Total length         54.2615 bohr
 
 
     Adding external electric field

     Computed dipole along edir(3) : 
        Dipole               -1.5742 Ry au,         -4.0012 Debye
        Dipole field         -0.0010 Ry au, 
 
        Potential amp.        0.1057 Ry
        Total length         54.2615 bohr
 

     total cpu time spent up to now is      318.5 secs

     total energy              =   -7398.05295350 Ry
     estimated scf accuracy    <       0.11989478 Ry

     total magnetization       =    80.82 Bohr mag/cell
     absolute magnetization    =    82.39 Bohr mag/cell

     iteration # 22     ecut=    50.00 Ry     beta= 0.50
     Davidson diagonalization with overlap
     c_bands:  2 eigenvalues not converged
     ethr =  1.11E-05,  avg # of iterations = 11.0
 
     Adding external electric field

     Computed dipole along edir(3) : 
        Dipole               -1.5458 Ry au,         -3.9290 Debye
        Dipole field         -0.0010 Ry au, 
 
        Potential amp.        0.1037 Ry
        Total length         54.2615 bohr
 
 
     Adding external electric field

     Computed dipole along edir(3) : 
        Dipole               -1.5458 Ry au,         -3.9290 Debye
        Dipole field         -0.0010 Ry au, 
 
        Potential amp.        0.1037 Ry
        Total length         54.2615 bohr
 

     total cpu time spent up to now is      337.6 secs

     total energy              =   -7398.05296341 Ry
     estimated scf accuracy    <       0.13153859 Ry

     total magnetization       =    80.46 Bohr mag/cell
     absolute magnetization    =    82.05 Bohr mag/cell

     iteration # 23     ecut=    50.00 Ry     beta= 0.50
     Davidson diagonalization with overlap
     ethr =  1.11E-05,  avg # of iterations =  1.5
 
     Adding external electric field

     Computed dipole along edir(3) : 
        Dipole               -1.3879 Ry au,         -3.5277 Debye
        Dipole field         -0.0009 Ry au, 
 
        Potential amp.        0.0931 Ry
        Total length         54.2615 bohr
 
 
     Adding external electric field

     Computed dipole along edir(3) : 
        Dipole               -1.3879 Ry au,         -3.5277 Debye
        Dipole field         -0.0009 Ry au, 
 
        Potential amp.        0.0931 Ry
        Total length         54.2615 bohr
 

     total cpu time spent up to now is      349.1 secs

     total energy              =   -7398.05027303 Ry
     estimated scf accuracy    <       0.10624094 Ry

     total magnetization       =    80.78 Bohr mag/cell
     absolute magnetization    =    82.38 Bohr mag/cell

     iteration # 24     ecut=    50.00 Ry     beta= 0.50
     Davidson diagonalization with overlap
     ethr =  9.86E-06,  avg # of iterations =  1.5
 
     Adding external electric field

     Computed dipole along edir(3) : 
        Dipole               -1.3227 Ry au,         -3.3621 Debye
        Dipole field         -0.0008 Ry au, 
 
        Potential amp.        0.0888 Ry
        Total length         54.2615 bohr
 
 
     Adding external electric field

     Computed dipole along edir(3) : 
        Dipole               -1.3227 Ry au,         -3.3621 Debye
        Dipole field         -0.0008 Ry au, 
 
        Potential amp.        0.0888 Ry
        Total length         54.2615 bohr
 

     total cpu time spent up to now is      360.5 secs

     total energy              =   -7398.04963055 Ry
     estimated scf accuracy    <       0.09554910 Ry

     total magnetization       =    80.47 Bohr mag/cell
     absolute magnetization    =    82.10 Bohr mag/cell

     iteration # 25     ecut=    50.00 Ry     beta= 0.50
     Davidson diagonalization with overlap
     ethr =  8.86E-06,  avg # of iterations =  1.5
 
     Adding external electric field

     Computed dipole along edir(3) : 
        Dipole               -1.3108 Ry au,         -3.3318 Debye
        Dipole field         -0.0008 Ry au, 
 
        Potential amp.        0.0880 Ry
        Total length         54.2615 bohr
 
 
     Adding external electric field

     Computed dipole along edir(3) : 
        Dipole               -1.3108 Ry au,         -3.3318 Debye
        Dipole field         -0.0008 Ry au, 
 
        Potential amp.        0.0880 Ry
        Total length         54.2615 bohr
 

     total cpu time spent up to now is      374.2 secs

     total energy              =   -7398.05025312 Ry
     estimated scf accuracy    <       0.14444256 Ry

     total magnetization       =    80.49 Bohr mag/cell
     absolute magnetization    =    82.08 Bohr mag/cell

     iteration # 26     ecut=    50.00 Ry     beta= 0.50
     Davidson diagonalization with overlap
     ethr =  8.86E-06,  avg # of iterations =  1.5
 
     Adding external electric field

     Computed dipole along edir(3) : 
        Dipole               -1.1564 Ry au,         -2.9392 Debye
        Dipole field         -0.0007 Ry au, 
 
        Potential amp.        0.0776 Ry
        Total length         54.2615 bohr
 
 
     Adding external electric field

     Computed dipole along edir(3) : 
        Dipole               -1.1564 Ry au,         -2.9392 Debye
        Dipole field         -0.0007 Ry au, 
 
        Potential amp.        0.0776 Ry
        Total length         54.2615 bohr
 

     total cpu time spent up to now is      385.4 secs

     total energy              =   -7398.04788600 Ry
     estimated scf accuracy    <       0.14014654 Ry

     total magnetization       =    80.51 Bohr mag/cell
     absolute magnetization    =    82.09 Bohr mag/cell

     iteration # 27     ecut=    50.00 Ry     beta= 0.50
     Davidson diagonalization with overlap
     ethr =  8.86E-06,  avg # of iterations =  1.5
 
     Adding external electric field

     Computed dipole along edir(3) : 
        Dipole               -1.1369 Ry au,         -2.8896 Debye
        Dipole field         -0.0007 Ry au, 
 
        Potential amp.        0.0763 Ry
        Total length         54.2615 bohr
 
 
     Adding external electric field

     Computed dipole along edir(3) : 
        Dipole               -1.1369 Ry au,         -2.8896 Debye
        Dipole field         -0.0007 Ry au, 
 
        Potential amp.        0.0763 Ry
        Total length         54.2615 bohr
 

     total cpu time spent up to now is      396.6 secs

     total energy              =   -7398.04716908 Ry
     estimated scf accuracy    <       0.15708154 Ry

     total magnetization       =    80.25 Bohr mag/cell
     absolute magnetization    =    81.87 Bohr mag/cell

     iteration # 28     ecut=    50.00 Ry     beta= 0.50
     Davidson diagonalization with overlap
     ethr =  8.86E-06,  avg # of iterations =  1.5
 
     Adding external electric field

     Computed dipole along edir(3) : 
        Dipole               -1.0879 Ry au,         -2.7653 Debye
        Dipole field         -0.0007 Ry au, 
 
        Potential amp.        0.0730 Ry
        Total length         54.2615 bohr
 
 
     Adding external electric field

     Computed dipole along edir(3) : 
        Dipole               -1.0879 Ry au,         -2.7653 Debye
        Dipole field         -0.0007 Ry au, 
 
        Potential amp.        0.0730 Ry
        Total length         54.2615 bohr
 

     total cpu time spent up to now is      408.1 secs

     total energy              =   -7398.04599998 Ry
     estimated scf accuracy    <       0.20545720 Ry

     total magnetization       =    79.91 Bohr mag/cell
     absolute magnetization    =    81.57 Bohr mag/cell

     iteration # 29     ecut=    50.00 Ry     beta= 0.50
     Davidson diagonalization with overlap
     ethr =  8.86E-06,  avg # of iterations =  1.5
 
     Adding external electric field

     Computed dipole along edir(3) : 
        Dipole               -0.6621 Ry au,         -1.6830 Debye
        Dipole field         -0.0004 Ry au, 
 
        Potential amp.        0.0444 Ry
        Total length         54.2615 bohr
 
 
     Adding external electric field

     Computed dipole along edir(3) : 
        Dipole               -0.6621 Ry au,         -1.6830 Debye
        Dipole field         -0.0004 Ry au, 
 
        Potential amp.        0.0444 Ry
        Total length         54.2615 bohr
 

     total cpu time spent up to now is      419.6 secs

     total energy              =   -7398.04117042 Ry
     estimated scf accuracy    <       0.14104763 Ry

     total magnetization       =    80.30 Bohr mag/cell
     absolute magnetization    =    81.97 Bohr mag/cell

     iteration # 30     ecut=    50.00 Ry     beta= 0.50
     Davidson diagonalization with overlap
     ethr =  8.86E-06,  avg # of iterations =  3.5
 
     Adding external electric field

     Computed dipole along edir(3) : 
        Dipole               -1.1089 Ry au,         -2.8186 Debye
        Dipole field         -0.0007 Ry au, 
 
        Potential amp.        0.0744 Ry
        Total length         54.2615 bohr
 
 
     Adding external electric field

     Computed dipole along edir(3) : 
        Dipole               -1.1089 Ry au,         -2.8186 Debye
        Dipole field         -0.0007 Ry au, 
 
        Potential amp.        0.0744 Ry
        Total length         54.2615 bohr
 

     total cpu time spent up to now is      432.6 secs

     total energy              =   -7398.04854900 Ry
     estimated scf accuracy    <       0.22278525 Ry

     total magnetization       =    80.17 Bohr mag/cell
     absolute magnetization    =    81.86 Bohr mag/cell

     iteration # 31     ecut=    50.00 Ry     beta= 0.50
     Davidson diagonalization with overlap
     ethr =  8.86E-06,  avg # of iterations =  1.5
 
     Adding external electric field

     Computed dipole along edir(3) : 
        Dipole               -1.0679 Ry au,         -2.7144 Debye
        Dipole field         -0.0007 Ry au, 
 
        Potential amp.        0.0717 Ry
        Total length         54.2615 bohr
 
 
     Adding external electric field

     Computed dipole along edir(3) : 
        Dipole               -1.0679 Ry au,         -2.7144 Debye
        Dipole field         -0.0007 Ry au, 
 
        Potential amp.        0.0717 Ry
        Total length         54.2615 bohr
 

     total cpu time spent up to now is      443.4 secs

     total energy              =   -7398.04681832 Ry
     estimated scf accuracy    <       0.24325918 Ry

     total magnetization       =    80.16 Bohr mag/cell
     absolute magnetization    =    81.85 Bohr mag/cell

     iteration # 32     ecut=    50.00 Ry     beta= 0.50
     Davidson diagonalization with overlap
     ethr =  8.86E-06,  avg # of iterations =  1.0

     negative rho (up, down):  3.300E-07 7.212E-09
 
     Adding external electric field

     Computed dipole along edir(3) : 
        Dipole                0.0166 Ry au,          0.0422 Debye
        Dipole field          0.0000 Ry au, 
 
        Potential amp.       -0.0011 Ry
        Total length         54.2615 bohr
 
 
     Adding external electric field

     Computed dipole along edir(3) : 
        Dipole                0.0166 Ry au,          0.0422 Debye
        Dipole field          0.0000 Ry au, 
 
        Potential amp.       -0.0011 Ry
        Total length         54.2615 bohr
 

     total cpu time spent up to now is      454.5 secs

     total energy              =   -7398.02850781 Ry
     estimated scf accuracy    <       0.19690949 Ry

     total magnetization       =    80.22 Bohr mag/cell
     absolute magnetization    =    81.88 Bohr mag/cell

     iteration # 33     ecut=    50.00 Ry     beta= 0.50
     Davidson diagonalization with overlap
     c_bands:  1 eigenvalues not converged
     ethr =  8.86E-06,  avg # of iterations = 19.0

     negative rho (up, down):  2.158E-04 3.155E-05
 
     Adding external electric field

     Computed dipole along edir(3) : 
        Dipole                0.2058 Ry au,          0.5231 Debye
        Dipole field          0.0001 Ry au, 
 
        Potential amp.       -0.0138 Ry
        Total length         54.2615 bohr
 
 
     Adding external electric field

     Computed dipole along edir(3) : 
        Dipole                0.2058 Ry au,          0.5231 Debye
        Dipole field          0.0001 Ry au, 
 
        Potential amp.       -0.0138 Ry
        Total length         54.2615 bohr
 

     total cpu time spent up to now is      481.0 secs

     total energy              =   -7398.02982075 Ry
     estimated scf accuracy    <       0.04468683 Ry

     total magnetization       =    80.35 Bohr mag/cell
     absolute magnetization    =    81.96 Bohr mag/cell

     iteration # 34     ecut=    50.00 Ry     beta= 0.50
     Davidson diagonalization with overlap
     ethr =  4.15E-06,  avg # of iterations =  2.0

     negative rho (up, down):  4.983E-07 2.838E-09
 
     Adding external electric field

     Computed dipole along edir(3) : 
        Dipole                0.0850 Ry au,          0.2161 Debye
        Dipole field          0.0001 Ry au, 
 
        Potential amp.       -0.0057 Ry
        Total length         54.2615 bohr
 
 
     Adding external electric field

     Computed dipole along edir(3) : 
        Dipole                0.0850 Ry au,          0.2161 Debye
        Dipole field          0.0001 Ry au, 
 
        Potential amp.       -0.0057 Ry
        Total length         54.2615 bohr
 

     total cpu time spent up to now is      493.1 secs

     total energy              =   -7398.03032772 Ry
     estimated scf accuracy    <       0.02977424 Ry

     total magnetization       =    80.28 Bohr mag/cell
     absolute magnetization    =    81.86 Bohr mag/cell

     iteration # 35     ecut=    50.00 Ry     beta= 0.50
     Davidson diagonalization with overlap
     ethr =  2.76E-06,  avg # of iterations =  2.0

     negative rho (up, down):  8.845E-07 4.379E-08
 
     Adding external electric field

     Computed dipole along edir(3) : 
        Dipole                0.1069 Ry au,          0.2718 Debye
        Dipole field          0.0001 Ry au, 
 
        Potential amp.       -0.0072 Ry
        Total length         54.2615 bohr
 
 
     Adding external electric field

     Computed dipole along edir(3) : 
        Dipole                0.1069 Ry au,          0.2718 Debye
        Dipole field          0.0001 Ry au, 
 
        Potential amp.       -0.0072 Ry
        Total length         54.2615 bohr
 

     total cpu time spent up to now is      504.2 secs

     total energy              =   -7398.02957928 Ry
     estimated scf accuracy    <       0.01692774 Ry

     total magnetization       =    80.45 Bohr mag/cell
     absolute magnetization    =    82.02 Bohr mag/cell

     iteration # 36     ecut=    50.00 Ry     beta= 0.50
     Davidson diagonalization with overlap
     ethr =  1.57E-06,  avg # of iterations =  2.0

     negative rho (up, down):  4.386E-04 7.500E-04
 
     Adding external electric field

     Computed dipole along edir(3) : 
        Dipole                0.2275 Ry au,          0.5782 Debye
        Dipole field          0.0001 Ry au, 
 
        Potential amp.       -0.0153 Ry
        Total length         54.2615 bohr
 
 
     Adding external electric field

     Computed dipole along edir(3) : 
        Dipole                0.2275 Ry au,          0.5782 Debye
        Dipole field          0.0001 Ry au, 
 
        Potential amp.       -0.0153 Ry
        Total length         54.2615 bohr
 

     total cpu time spent up to now is      515.4 secs

     total energy              =   -7398.02791506 Ry
     estimated scf accuracy    <       0.02355951 Ry

     total magnetization       =    80.20 Bohr mag/cell
     absolute magnetization    =    81.75 Bohr mag/cell

     iteration # 37     ecut=    50.00 Ry     beta= 0.50
     Davidson diagonalization with overlap
     ethr =  1.57E-06,  avg # of iterations =  8.0

     negative rho (up, down):  1.706E-05 1.862E-05
 
     Adding external electric field

     Computed dipole along edir(3) : 
        Dipole                0.1536 Ry au,          0.3903 Debye
        Dipole field          0.0001 Ry au, 
 
        Potential amp.       -0.0103 Ry
        Total length         54.2615 bohr
 
 
     Adding external electric field

     Computed dipole along edir(3) : 
        Dipole                0.1536 Ry au,          0.3903 Debye
        Dipole field          0.0001 Ry au, 
 
        Potential amp.       -0.0103 Ry
        Total length         54.2615 bohr
 

     total cpu time spent up to now is      529.2 secs

     total energy              =   -7398.02864242 Ry
     estimated scf accuracy    <       0.04267748 Ry

     total magnetization       =    80.24 Bohr mag/cell
     absolute magnetization    =    81.74 Bohr mag/cell

     iteration # 38     ecut=    50.00 Ry     beta= 0.50
     Davidson diagonalization with overlap
     ethr =  1.57E-06,  avg # of iterations =  2.0

     negative rho (up, down):  2.052E-03 2.305E-03
 
     Adding external electric field

     Computed dipole along edir(3) : 
        Dipole                0.3087 Ry au,          0.7847 Debye
        Dipole field          0.0002 Ry au, 
 
        Potential amp.       -0.0207 Ry
        Total length         54.2615 bohr
 
 
     Adding external electric field

     Computed dipole along edir(3) : 
        Dipole                0.3087 Ry au,          0.7847 Debye
        Dipole field          0.0002 Ry au, 
 
        Potential amp.       -0.0207 Ry
        Total length         54.2615 bohr
 

     total cpu time spent up to now is      540.8 secs

     total energy              =   -7398.02810130 Ry
     estimated scf accuracy    <       0.02532101 Ry

     total magnetization       =    80.35 Bohr mag/cell
     absolute magnetization    =    81.86 Bohr mag/cell

     iteration # 39     ecut=    50.00 Ry     beta= 0.50
     Davidson diagonalization with overlap
     ethr =  1.57E-06,  avg # of iterations =  3.0

     negative rho (up, down):  2.050E-06 4.191E-06
 
     Adding external electric field

     Computed dipole along edir(3) : 
        Dipole                0.1398 Ry au,          0.3554 Debye
        Dipole field          0.0001 Ry au, 
 
        Potential amp.       -0.0094 Ry
        Total length         54.2615 bohr
 
 
     Adding external electric field

     Computed dipole along edir(3) : 
        Dipole                0.1398 Ry au,          0.3554 Debye
        Dipole field          0.0001 Ry au, 
 
        Potential amp.       -0.0094 Ry
        Total length         54.2615 bohr
 

     total cpu time spent up to now is      552.8 secs

     total energy              =   -7398.02787402 Ry
     estimated scf accuracy    <       0.01181641 Ry

     total magnetization       =    80.28 Bohr mag/cell
     absolute magnetization    =    81.80 Bohr mag/cell

     iteration # 40     ecut=    50.00 Ry     beta= 0.50
     Davidson diagonalization with overlap
     ethr =  1.10E-06,  avg # of iterations =  2.0

     negative rho (up, down):  3.510E-03 3.870E-03
 
     Adding external electric field

     Computed dipole along edir(3) : 
        Dipole                0.3282 Ry au,          0.8342 Debye
        Dipole field          0.0002 Ry au, 
 
        Potential amp.       -0.0220 Ry
        Total length         54.2615 bohr
 
 
     Adding external electric field

     Computed dipole along edir(3) : 
        Dipole                0.3282 Ry au,          0.8342 Debye
        Dipole field          0.0002 Ry au, 
 
        Potential amp.       -0.0220 Ry
        Total length         54.2615 bohr
 

     total cpu time spent up to now is      564.2 secs

     total energy              =   -7398.02817747 Ry
     estimated scf accuracy    <       0.00852944 Ry

     total magnetization       =    80.21 Bohr mag/cell
     absolute magnetization    =    81.72 Bohr mag/cell

     iteration # 41     ecut=    50.00 Ry     beta= 0.50
     Davidson diagonalization with overlap
     c_bands:  5 eigenvalues not converged
     c_bands:  2 eigenvalues not converged
     ethr =  7.91E-07,  avg # of iterations = 20.0

     negative rho (up, down):  4.941E-04 4.809E-04
 
     Adding external electric field

     Computed dipole along edir(3) : 
        Dipole                0.2620 Ry au,          0.6660 Debye
        Dipole field          0.0002 Ry au, 
 
        Potential amp.       -0.0176 Ry
        Total length         54.2615 bohr
 
 
     Adding external electric field

     Computed dipole along edir(3) : 
        Dipole                0.2620 Ry au,          0.6660 Debye
        Dipole field          0.0002 Ry au, 
 
        Potential amp.       -0.0176 Ry
        Total length         54.2615 bohr
 

     total cpu time spent up to now is      585.4 secs

     total energy              =   -7398.02782959 Ry
     estimated scf accuracy    <       0.03469166 Ry

     total magnetization       =    80.29 Bohr mag/cell
     absolute magnetization    =    81.79 Bohr mag/cell

     iteration # 42     ecut=    50.00 Ry     beta= 0.50
     Davidson diagonalization with overlap
     ethr =  7.91E-07,  avg # of iterations =  3.5

     negative rho (up, down):  1.334E-03 1.201E-03
 
     Adding external electric field

     Computed dipole along edir(3) : 
        Dipole                0.3060 Ry au,          0.7779 Debye
        Dipole field          0.0002 Ry au, 
 
        Potential amp.       -0.0205 Ry
        Total length         54.2615 bohr
 
 
     Adding external electric field

     Computed dipole along edir(3) : 
        Dipole                0.3060 Ry au,          0.7779 Debye
        Dipole field          0.0002 Ry au, 
 
        Potential amp.       -0.0205 Ry
        Total length         54.2615 bohr
 

     total cpu time spent up to now is      598.2 secs

     total energy              =   -7398.02829028 Ry
     estimated scf accuracy    <       0.00385953 Ry

     total magnetization       =    80.32 Bohr mag/cell
     absolute magnetization    =    81.83 Bohr mag/cell

     iteration # 43     ecut=    50.00 Ry     beta= 0.50
     Davidson diagonalization with overlap
     ethr =  3.58E-07,  avg # of iterations =  2.0

     negative rho (up, down):  1.737E-03 1.471E-03
 
     Adding external electric field

     Computed dipole along edir(3) : 
        Dipole                0.3068 Ry au,          0.7798 Debye
        Dipole field          0.0002 Ry au, 
 
        Potential amp.       -0.0206 Ry
        Total length         54.2615 bohr
 
 
     Adding external electric field

     Computed dipole along edir(3) : 
        Dipole                0.3068 Ry au,          0.7798 Debye
        Dipole field          0.0002 Ry au, 
 
        Potential amp.       -0.0206 Ry
        Total length         54.2615 bohr
 

     total cpu time spent up to now is      609.7 secs

     total energy              =   -7398.02838725 Ry
     estimated scf accuracy    <       0.00278222 Ry

     total magnetization       =    80.36 Bohr mag/cell
     absolute magnetization    =    81.87 Bohr mag/cell

     iteration # 44     ecut=    50.00 Ry     beta= 0.50
     Davidson diagonalization with overlap
     ethr =  2.58E-07,  avg # of iterations =  2.0

     negative rho (up, down):  1.556E-03 1.117E-03
 
     Adding external electric field

     Computed dipole along edir(3) : 
        Dipole                0.3001 Ry au,          0.7629 Debye
        Dipole field          0.0002 Ry au, 
 
        Potential amp.       -0.0201 Ry
        Total length         54.2615 bohr
 
 
     Adding external electric field

     Computed dipole along edir(3) : 
        Dipole                0.3001 Ry au,          0.7629 Debye
        Dipole field          0.0002 Ry au, 
 
        Potential amp.       -0.0201 Ry
        Total length         54.2615 bohr
 

     total cpu time spent up to now is      621.3 secs

     total energy              =   -7398.02837837 Ry
     estimated scf accuracy    <       0.00085950 Ry

     total magnetization       =    80.33 Bohr mag/cell
     absolute magnetization    =    81.85 Bohr mag/cell

     iteration # 45     ecut=    50.00 Ry     beta= 0.50
     Davidson diagonalization with overlap
     ethr =  7.97E-08,  avg # of iterations =  2.0

     negative rho (up, down):  4.200E-03 4.056E-03
 
     Adding external electric field

     Computed dipole along edir(3) : 
        Dipole                0.3118 Ry au,          0.7926 Debye
        Dipole field          0.0002 Ry au, 
 
        Potential amp.       -0.0209 Ry
        Total length         54.2615 bohr
 
 
     Adding external electric field

     Computed dipole along edir(3) : 
        Dipole                0.3118 Ry au,          0.7926 Debye
        Dipole field          0.0002 Ry au, 
 
        Potential amp.       -0.0209 Ry
        Total length         54.2615 bohr
 

     total cpu time spent up to now is      632.7 secs

     total energy              =   -7398.02838287 Ry
     estimated scf accuracy    <       0.00236652 Ry

     total magnetization       =    80.35 Bohr mag/cell
     absolute magnetization    =    81.87 Bohr mag/cell

     iteration # 46     ecut=    50.00 Ry     beta= 0.50
     Davidson diagonalization with overlap
     ethr =  7.97E-08,  avg # of iterations =  2.0

     negative rho (up, down):  3.170E-03 2.982E-03
 
     Adding external electric field

     Computed dipole along edir(3) : 
        Dipole                0.3043 Ry au,          0.7735 Debye
        Dipole field          0.0002 Ry au, 
 
        Potential amp.       -0.0204 Ry
        Total length         54.2615 bohr
 
 
     Adding external electric field

     Computed dipole along edir(3) : 
        Dipole                0.3043 Ry au,          0.7735 Debye
        Dipole field          0.0002 Ry au, 
 
        Potential amp.       -0.0204 Ry
        Total length         54.2615 bohr
 

     total cpu time spent up to now is      644.4 secs

     total energy              =   -7398.02838014 Ry
     estimated scf accuracy    <       0.00086195 Ry

     total magnetization       =    80.26 Bohr mag/cell
     absolute magnetization    =    81.79 Bohr mag/cell

     iteration # 47     ecut=    50.00 Ry     beta= 0.50
     Davidson diagonalization with overlap
     ethr =  7.97E-08,  avg # of iterations =  1.5

     negative rho (up, down):  9.683E-04 6.396E-04
 
     Adding external electric field

     Computed dipole along edir(3) : 
        Dipole                0.2793 Ry au,          0.7099 Debye
        Dipole field          0.0002 Ry au, 
 
        Potential amp.       -0.0187 Ry
        Total length         54.2615 bohr
 
 
     Adding external electric field

     Computed dipole along edir(3) : 
        Dipole                0.2793 Ry au,          0.7099 Debye
        Dipole field          0.0002 Ry au, 
 
        Potential amp.       -0.0187 Ry
        Total length         54.2615 bohr
 

     total cpu time spent up to now is      655.3 secs

     total energy              =   -7398.02837482 Ry
     estimated scf accuracy    <       0.00049307 Ry

     total magnetization       =    80.35 Bohr mag/cell
     absolute magnetization    =    81.88 Bohr mag/cell

     iteration # 48     ecut=    50.00 Ry     beta= 0.50
     Davidson diagonalization with overlap
     ethr =  4.57E-08,  avg # of iterations =  2.0

     negative rho (up, down):  2.096E-03 1.869E-03
 
     Adding external electric field

     Computed dipole along edir(3) : 
        Dipole                0.2826 Ry au,          0.7183 Debye
        Dipole field          0.0002 Ry au, 
 
        Potential amp.       -0.0190 Ry
        Total length         54.2615 bohr
 
 
     Adding external electric field

     Computed dipole along edir(3) : 
        Dipole                0.2826 Ry au,          0.7183 Debye
        Dipole field          0.0002 Ry au, 
 
        Potential amp.       -0.0190 Ry
        Total length         54.2615 bohr
 

     total cpu time spent up to now is      666.6 secs

     total energy              =   -7398.02838010 Ry
     estimated scf accuracy    <       0.00024174 Ry

     total magnetization       =    80.32 Bohr mag/cell
     absolute magnetization    =    81.85 Bohr mag/cell

     iteration # 49     ecut=    50.00 Ry     beta= 0.50
     Davidson diagonalization with overlap
     ethr =  2.24E-08,  avg # of iterations =  1.5

     negative rho (up, down):  1.282E-03 9.636E-04
 
     Adding external electric field

     Computed dipole along edir(3) : 
        Dipole                0.2827 Ry au,          0.7186 Debye
        Dipole field          0.0002 Ry au, 
 
        Potential amp.       -0.0190 Ry
        Total length         54.2615 bohr
 
 
     Adding external electric field

     Computed dipole along edir(3) : 
        Dipole                0.2827 Ry au,          0.7186 Debye
        Dipole field          0.0002 Ry au, 
 
        Potential amp.       -0.0190 Ry
        Total length         54.2615 bohr
 

     total cpu time spent up to now is      677.4 secs

     total energy              =   -7398.02837353 Ry
     estimated scf accuracy    <       0.00018400 Ry

     total magnetization       =    80.30 Bohr mag/cell
     absolute magnetization    =    81.84 Bohr mag/cell

     iteration # 50     ecut=    50.00 Ry     beta= 0.50
     Davidson diagonalization with overlap
     ethr =  1.71E-08,  avg # of iterations =  2.0

     negative rho (up, down):  1.087E-03 7.547E-04
 
     Adding external electric field

     Computed dipole along edir(3) : 
        Dipole                0.2814 Ry au,          0.7152 Debye
        Dipole field          0.0002 Ry au, 
 
        Potential amp.       -0.0189 Ry
        Total length         54.2615 bohr
 
 
     Adding external electric field

     Computed dipole along edir(3) : 
        Dipole                0.2814 Ry au,          0.7152 Debye
        Dipole field          0.0002 Ry au, 
 
        Potential amp.       -0.0189 Ry
        Total length         54.2615 bohr
 

     total cpu time spent up to now is      688.9 secs

     total energy              =   -7398.02837669 Ry
     estimated scf accuracy    <       0.00015081 Ry

     total magnetization       =    80.32 Bohr mag/cell
     absolute magnetization    =    81.85 Bohr mag/cell

     iteration # 51     ecut=    50.00 Ry     beta= 0.50
     Davidson diagonalization with overlap
     ethr =  1.40E-08,  avg # of iterations =  1.0

     negative rho (up, down):  1.119E-03 7.745E-04
 
     Adding external electric field

     Computed dipole along edir(3) : 
        Dipole                0.2803 Ry au,          0.7124 Debye
        Dipole field          0.0002 Ry au, 
 
        Potential amp.       -0.0188 Ry
        Total length         54.2615 bohr
 
 
     Adding external electric field

     Computed dipole along edir(3) : 
        Dipole                0.2803 Ry au,          0.7124 Debye
        Dipole field          0.0002 Ry au, 
 
        Potential amp.       -0.0188 Ry
        Total length         54.2615 bohr
 

     total cpu time spent up to now is      699.1 secs

     total energy              =   -7398.02837614 Ry
     estimated scf accuracy    <       0.00013055 Ry

     total magnetization       =    80.31 Bohr mag/cell
     absolute magnetization    =    81.84 Bohr mag/cell

     iteration # 52     ecut=    50.00 Ry     beta= 0.50
     Davidson diagonalization with overlap
     ethr =  1.21E-08,  avg # of iterations =  2.0

     negative rho (up, down):  1.000E-03 6.038E-04
 
     Adding external electric field

     Computed dipole along edir(3) : 
        Dipole                0.2852 Ry au,          0.7249 Debye
        Dipole field          0.0002 Ry au, 
 
        Potential amp.       -0.0191 Ry
        Total length         54.2615 bohr
 
 
     Adding external electric field

     Computed dipole along edir(3) : 
        Dipole                0.2852 Ry au,          0.7249 Debye
        Dipole field          0.0002 Ry au, 
 
        Potential amp.       -0.0191 Ry
        Total length         54.2615 bohr
 

     total cpu time spent up to now is      710.4 secs

     total energy              =   -7398.02837494 Ry
     estimated scf accuracy    <       0.00003992 Ry

     total magnetization       =    80.29 Bohr mag/cell
     absolute magnetization    =    81.82 Bohr mag/cell

     iteration # 53     ecut=    50.00 Ry     beta= 0.50
     Davidson diagonalization with overlap
     ethr =  3.70E-09,  avg # of iterations =  2.0

     negative rho (up, down):  9.201E-04 5.280E-04
 
     Adding external electric field

     Computed dipole along edir(3) : 
        Dipole                0.2835 Ry au,          0.7206 Debye
        Dipole field          0.0002 Ry au, 
 
        Potential amp.       -0.0190 Ry
        Total length         54.2615 bohr
 
 
     Adding external electric field

     Computed dipole along edir(3) : 
        Dipole                0.2835 Ry au,          0.7206 Debye
        Dipole field          0.0002 Ry au, 
 
        Potential amp.       -0.0190 Ry
        Total length         54.2615 bohr
 

     total cpu time spent up to now is      722.3 secs

     total energy              =   -7398.02837544 Ry
     estimated scf accuracy    <       0.00004832 Ry

     total magnetization       =    80.31 Bohr mag/cell
     absolute magnetization    =    81.84 Bohr mag/cell

     iteration # 54     ecut=    50.00 Ry     beta= 0.50
     Davidson diagonalization with overlap
     ethr =  3.70E-09,  avg # of iterations =  2.0

     negative rho (up, down):  9.296E-04 5.420E-04
 
     Adding external electric field

     Computed dipole along edir(3) : 
        Dipole                0.2825 Ry au,          0.7181 Debye
        Dipole field          0.0002 Ry au, 
 
        Potential amp.       -0.0190 Ry
        Total length         54.2615 bohr
 
 
     Adding external electric field

     Computed dipole along edir(3) : 
        Dipole                0.2825 Ry au,          0.7181 Debye
        Dipole field          0.0002 Ry au, 
 
        Potential amp.       -0.0190 Ry
        Total length         54.2615 bohr
 

     total cpu time spent up to now is      734.2 secs

     total energy              =   -7398.02837682 Ry
     estimated scf accuracy    <       0.00000855 Ry

     total magnetization       =    80.30 Bohr mag/cell
     absolute magnetization    =    81.83 Bohr mag/cell

     iteration # 55     ecut=    50.00 Ry     beta= 0.50
     Davidson diagonalization with overlap
     ethr =  7.93E-10,  avg # of iterations =  2.0

     negative rho (up, down):  9.395E-04 5.520E-04
 
     Adding external electric field

     Computed dipole along edir(3) : 
        Dipole                0.2826 Ry au,          0.7182 Debye
        Dipole field          0.0002 Ry au, 
 
        Potential amp.       -0.0190 Ry
        Total length         54.2615 bohr
 
 
     Adding external electric field

     Computed dipole along edir(3) : 
        Dipole                0.2826 Ry au,          0.7182 Debye
        Dipole field          0.0002 Ry au, 
 
        Potential amp.       -0.0190 Ry
        Total length         54.2615 bohr
 

     total cpu time spent up to now is      746.1 secs

     total energy              =   -7398.02837683 Ry
     estimated scf accuracy    <       0.00000873 Ry

     total magnetization       =    80.29 Bohr mag/cell
     absolute magnetization    =    81.82 Bohr mag/cell

     iteration # 56     ecut=    50.00 Ry     beta= 0.50
     Davidson diagonalization with overlap
     ethr =  7.93E-10,  avg # of iterations =  1.0

     negative rho (up, down):  9.535E-04 5.713E-04
 
     Adding external electric field

     Computed dipole along edir(3) : 
        Dipole                0.2816 Ry au,          0.7159 Debye
        Dipole field          0.0002 Ry au, 
 
        Potential amp.       -0.0189 Ry
        Total length         54.2615 bohr
 
 
     Adding external electric field

     Computed dipole along edir(3) : 
        Dipole                0.2816 Ry au,          0.7159 Debye
        Dipole field          0.0002 Ry au, 
 
        Potential amp.       -0.0189 Ry
        Total length         54.2615 bohr
 

     total cpu time spent up to now is      756.2 secs

     total energy              =   -7398.02837709 Ry
     estimated scf accuracy    <       0.00000476 Ry

     total magnetization       =    80.30 Bohr mag/cell
     absolute magnetization    =    81.82 Bohr mag/cell

     iteration # 57     ecut=    50.00 Ry     beta= 0.50
     Davidson diagonalization with overlap
     ethr =  4.41E-10,  avg # of iterations =  1.0

     negative rho (up, down):  9.490E-04 5.672E-04
 
     Adding external electric field

     Computed dipole along edir(3) : 
        Dipole                0.2817 Ry au,          0.7160 Debye
        Dipole field          0.0002 Ry au, 
 
        Potential amp.       -0.0189 Ry
        Total length         54.2615 bohr
 
 
     Adding external electric field

     Computed dipole along edir(3) : 
        Dipole                0.2817 Ry au,          0.7160 Debye
        Dipole field          0.0002 Ry au, 
 
        Potential amp.       -0.0189 Ry
        Total length         54.2615 bohr
 

     total cpu time spent up to now is      766.4 secs

     total energy              =   -7398.02837702 Ry
     estimated scf accuracy    <       0.00000695 Ry

     total magnetization       =    80.30 Bohr mag/cell
     absolute magnetization    =    81.83 Bohr mag/cell

     iteration # 58     ecut=    50.00 Ry     beta= 0.50
     Davidson diagonalization with overlap
     ethr =  4.41E-10,  avg # of iterations =  1.0

     negative rho (up, down):  9.490E-04 5.687E-04
 
     Adding external electric field

     Computed dipole along edir(3) : 
        Dipole                0.2816 Ry au,          0.7158 Debye
        Dipole field          0.0002 Ry au, 
 
        Potential amp.       -0.0189 Ry
        Total length         54.2615 bohr
 
 
     Adding external electric field

     Computed dipole along edir(3) : 
        Dipole                0.2816 Ry au,          0.7158 Debye
        Dipole field          0.0002 Ry au, 
 
        Potential amp.       -0.0189 Ry
        Total length         54.2615 bohr
 

     total cpu time spent up to now is      776.9 secs

     total energy              =   -7398.02837709 Ry
     estimated scf accuracy    <       0.00000174 Ry

     total magnetization       =    80.30 Bohr mag/cell
     absolute magnetization    =    81.82 Bohr mag/cell

     iteration # 59     ecut=    50.00 Ry     beta= 0.50
     Davidson diagonalization with overlap
[...]
    -5.9497  -5.9411  -5.9207  -5.9148  -5.9003  -5.8523  -5.8179  -5.8012
    -5.7761  -5.7595  -5.7406  -5.7369  -5.7080  -5.6882  -5.6703  -5.6534
    -5.6427  -5.6101  -5.6048  -5.5930  -5.5899  -5.5695  -5.5163  -5.4827
    -5.4543  -5.4246  -5.3971  -5.3776  -5.3623  -5.3526  -5.3255  -5.2544
    -5.2235  -5.2026  -5.1883  -5.1166  -5.1078  -5.0869  -5.0357  -5.0217
    -5.0085  -4.9562  -4.9232  -4.9021  -4.8802  -4.8542  -4.8427  -4.7940
    -4.7811  -4.7401  -4.7036  -4.6790  -4.6545  -4.6266  -4.5495  -4.5328
    -4.4940  -4.4825  -4.4524  -4.4352  -4.4134  -4.3841  -4.3495  -4.3371
    -4.3144  -4.2747  -4.2171  -4.1807  -4.1368  -4.1220  -4.1072  -4.0985
    -4.0480  -4.0077  -3.9913  -3.9768  -3.9465  -3.9164  -3.8995  -3.8720
    -3.8481  -3.8438  -3.7883  -3.7859  -3.7566  -3.7212  -3.7048  -3.6915
    -3.6776  -3.6526  -3.6388  -3.6302  -3.6206  -3.6020  -3.5683  -3.5264
    -3.5066  -3.5013  -3.4832  -3.4757  -3.4681  -3.4609  -3.4306  -3.4237
    -3.4169  -3.3769  -3.3541  -3.3260  -3.3108  -3.2925  -3.2495  -3.2420
    -3.2290  -3.1992  -3.1632  -3.1627  -3.1501  -3.1295  -3.1214  -3.1099
    -3.0784  -3.0732  -3.0339  -2.9993  -2.9899  -2.9768  -2.9609  -2.9202
    -2.9019  -2.8939  -2.8814  -2.8354  -2.8252  -2.8107  -2.7885  -2.7760
    -2.7596  -2.7536  -2.7418  -2.7314  -2.7216  -2.7194  -2.7084  -2.6814
    -2.6614  -2.6441  -2.6337  -2.6261  -2.5996  -2.5842  -2.5724  -2.5481
    -2.5363  -2.5062  -2.5041  -2.4842  -2.4635  -2.4486  -2.4364  -2.4269
    -2.3930  -2.3813  -2.3691  -2.3521  -2.3246  -2.2927  -2.2812  -2.2544
    -2.2467  -2.2286  -2.1999  -2.1817  -2.1736  -2.1459  -2.1166  -2.1096
    -2.0959  -2.0703  -2.0566  -2.0428  -2.0306  -2.0135  -1.9930  -1.9629
    -1.9520  -1.9375  -1.9346  -1.9259  -1.8915  -1.8831  -1.8674  -1.8486
    -1.8242  -1.7811  -1.7760  -1.7405  -1.7317  -1.7038  -1.6876  -1.6799
    -1.6688  -1.6506  -1.6458  -1.6004  -1.5938  -1.5696  -1.5257  -1.5156
    -1.5020  -1.4946  -1.4660  -1.4432  -1.4349  -1.4171  -1.3976  -1.3866
    -1.3664  -1.3451  -1.3223  -1.2820  -1.2716  -1.2465  -1.2242  -1.1999
    -1.1544  -1.1198  -1.0712  -0.9699  -0.9525  -0.9139  -0.8669  -0.8292
    -0.8096  -0.7432  -0.6462  -0.5188  -0.3765  -0.3225  -0.3060  -0.2015
     0.1322   0.1558   0.1851   0.2229   0.2529   0.2734   0.2745   0.2979
     0.3024   0.3181   0.3388   0.3414   0.3480   0.3691   0.3718   0.3730
     0.3850   0.3879   0.3998   0.4058   0.4190   0.4275   0.4308   0.4407
     0.4457   0.4520   0.4587   0.4604   0.4705   0.4738   0.4804   0.4858
     0.5038   0.5070   0.5117   0.5158   0.5216   0.5240   0.5352   0.5415
     0.5580   0.5597   0.5675   0.5702   0.5783   0.5843   0.5978   0.6038
     0.6071   0.6142   0.6212   0.6262   0.6303   0.6450   0.6590   0.6686
     0.6715   0.6788   0.6883   0.6921   0.6945   0.7051   0.7100   0.7219
     0.7335   0.7410   0.7427   0.7460   0.7567   0.7630   0.7632   0.7697
     0.7755   0.7817   0.8120   0.8181   0.8254   0.8343   0.8473   0.8545
     0.8570   0.8734   0.8776   0.8825   0.8986   0.9025   0.9090   0.9197
     0.9254   0.9328   0.9570   0.9587   0.9906   0.9984   1.0145   1.0285
     1.1383   1.1720   1.6085   1.6951   1.7001   1.7295   1.7327   1.7503
     1.7623   1.8578   1.8831   1.9022   1.9190   1.9637   1.9691   1.9894
     1.9999   2.0232   2.0423   2.0626   2.0743   2.0765   2.0958   2.1341
     2.1583   2.1737   2.1830   2.2119   2.2196   2.2551   2.2580   2.2643
     2.2784   2.2862   2.3083   2.3181   2.3269   2.3360   2.3508   2.3576
     2.3725   2.3848   2.3934   2.3963   2.4124   2.4271   2.4469   2.4873
     2.4921   2.5093   2.5172   2.5319   2.5447   2.5494   2.5699   2.5929
     2.6010   2.6109   2.6457   2.6638   2.7030   2.7310   2.7485   2.8105
     2.8286   2.8629   2.8804   2.9262   2.9290   3.3746   3.4032   3.6111
     3.6669   3.8030   3.8650   3.9477   4.0104   4.0299   4.0940   4.6099
     4.6696   4.7784   4.9014   4.9357   4.9617   5.0550   5.4397   6.3418
     6.3672   6.5165   6.6098   6.7301   6.8134   6.8500   6.9030   6.9404
     7.0518   7.0945   7.1353   7.1552   7.3432   7.3938   7.4097   7.4412
     7.5267   7.5883   7.6238   7.7095   7.7501   7.7558   7.8229   7.8517
     7.8900   7.9493   7.9686   8.0024   8.0232   8.0554   8.0820   8.1193
     8.1454   8.1775   8.1902   8.2345   8.2546   8.2802   8.3138   8.3447
     8.3679   8.4075   8.4307   8.4893   8.4929   8.5046   8.5267   8.5421
     8.5554   8.5714   8.5949   8.6081   8.6490   8.6691   8.6782   8.6900
     8.7261   8.7413   8.8052   8.8085   8.8561   8.8721   8.9170

     the Fermi energy is     1.5848 ev

!    total energy              =   -7398.02837663 Ry
     estimated scf accuracy    <       0.00000040 Ry
     smearing contrib. (-TS)   =      -0.01556323 Ry
     internal energy E=F+TS    =   -7398.01281341 Ry

     The total energy is F=E-TS. E is the sum of the following terms:
     one-electron contribution =  -91618.18647239 Ry
     hartree contribution      =   46457.42841718 Ry
     xc contribution           =   -2260.27596294 Ry
     ewald contribution        =   40024.85337030 Ry
     Dispersion Correction     =      -1.83221379 Ry
     electric field correction =       0.00004824 Ry

     total magnetization       =    80.30 Bohr mag/cell
     absolute magnetization    =    81.82 Bohr mag/cell

     convergence has been achieved in  59 iterations

     negative rho (up, down):  9.301E-04 5.485E-04

     Forces acting on atoms (cartesian axes, Ry/au):

     atom    1 type  2   force =    -0.00005196   -0.00014498   -0.00045854
     atom    2 type  1   force =    -0.00035480    0.00016434   -0.00028454
     atom    3 type  1   force =     0.00001077   -0.00063101   -0.00055374
     atom    4 type  1   force =    -0.00018198    0.00035389    0.00005838
     atom    5 type  1   force =     0.00000797    0.00027046   -0.00013845
     atom    6 type  1   force =    -0.00009403   -0.00009375   -0.00015477
     atom    7 type  1   force =    -0.00009823    0.00047877   -0.00024190
     atom    8 type  1   force =     0.00000713   -0.00038054    0.00010480
     atom    9 type  1   force =    -0.00036932    0.00068503   -0.00039746
     atom   10 type  1   force =    -0.00009502   -0.00002051   -0.00045159
     atom   11 type  1   force =    -0.00040992   -0.00052490   -0.00024468
     atom   12 type  1   force =     0.00041808    0.00033342   -0.00064834
     atom   13 type  3   force =    -0.00015956    0.00012822    0.00005535
     atom   14 type  3   force =    -0.00000029   -0.00030983   -0.00039442
     atom   15 type  3   force =     0.00011933    0.00008500   -0.00009933
     atom   16 type  3   force =     0.00076260    0.00008343   -0.00000768
     atom   17 type  4   force =     0.00001468   -0.00019111   -0.00019142
     atom   18 type  4   force =     0.00025417    0.00008829   -0.00031041
     atom   19 type  4   force =    -0.00029074    0.00023366    0.00032151
     atom   20 type  4   force =    -0.00016003    0.00009399    0.00029088
     atom   21 type  4   force =    -0.00002034    0.00038445   -0.00003835
     atom   22 type  4   force =     0.00009997   -0.00008745    0.00012542
     atom   23 type  4   force =     0.00001583    0.00065750   -0.00020644
     atom   24 type  4   force =     0.00033967    0.00012643    0.00026362
     atom   25 type  4   force =     0.00012514   -0.00022201   -0.00006899
     atom   26 type  4   force =    -0.00010378    0.00018191    0.00008859
     atom   27 type  4   force =     0.00035514   -0.00004764   -0.00014750
     atom   28 type  4   force =    -0.00010479    0.00011752    0.00016819
     atom   29 type  4   force =    -0.00014548   -0.00026703    0.00027012
     atom   30 type  4   force =    -0.00018194   -0.00022954   -0.00031241
     atom   31 type  4   force =    -0.00003059    0.00015957   -0.00019231
     atom   32 type  4   force =    -0.00010591    0.00040023    0.00014055
     atom   33 type  3   force =    -0.00004934    0.00005395   -0.00029660
     atom   34 type  3   force =     0.00043002   -0.00009728   -0.00037944
     atom   35 type  3   force =     0.00030473    0.00008868   -0.00036792
     atom   36 type  3   force =    -0.00061137    0.00007017    0.00008041
     atom   37 type  4   force =     0.00007714   -0.00012569    0.00008004
     atom   38 type  4   force =    -0.00000060    0.00053035   -0.00005536
     atom   39 type  4   force =    -0.00020685   -0.00001728    0.00093598
     atom   40 type  4   force =     0.00034740    0.00000830   -0.00014029
     atom   41 type  4   force =    -0.00028864    0.00001703   -0.00009685
     atom   42 type  4   force =    -0.00046509   -0.00022990   -0.00042805
     atom   43 type  4   force =    -0.00040875   -0.00019615   -0.00013777
     atom   44 type  4   force =     0.00013231    0.00016684   -0.00033182
     atom   45 type  4   force =     0.00016098   -0.00002167   -0.00037720
     atom   46 type  4   force =     0.00011850   -0.00058301   -0.00033483
     atom   47 type  4   force =    -0.00015489    0.00016561   -0.00005936
     atom   48 type  4   force =     0.00031173    0.00026874    0.00002948
     atom   49 type  4   force =    -0.00010927    0.00033476    0.00011620
     atom   50 type  4   force =     0.00020988   -0.00030118    0.00002958
     atom   51 type  4   force =    -0.00000129   -0.00000795    0.00013869
     atom   52 type  4   force =    -0.00011596   -0.00001072   -0.00009183
     atom   53 type  2   force =     0.00244384   -0.00380964    0.00595263
     atom   54 type  1   force =     0.00499389   -0.00219192    0.00389386
     atom   55 type  1   force =     0.00758430   -0.00390122    0.00206604
     atom   56 type  1   force =    -0.00195789    0.01027363    0.00610174
     atom   57 type  1   force =    -0.00006322    0.02307220    0.01485008
     atom   58 type  1   force =     0.00207651   -0.00324075   -0.00166651
     atom   59 type  1   force =     0.00045571   -0.00715924    0.00407199
     atom   60 type  1   force =    -0.00514569   -0.00194651    0.00482205
     atom   61 type  1   force =    -0.00192685   -0.00159493    0.00332317
     atom   62 type  1   force =    -0.00432699    0.00826381    0.00612293
     atom   63 type  1   force =    -0.01109533    0.02586483    0.01860016
     atom   64 type  1   force =    -0.00198225    0.00121431    0.00135563
     atom   65 type  3   force =     0.04625268   -0.11371909   -0.01065765
     atom   66 type  3   force =    -0.00035461   -0.00161901    0.00361855
     atom   67 type  3   force =    -0.03981414    0.12605683    0.01449615
     atom   68 type  3   force =     0.06272056   -0.00164781   -0.00319894
     atom   69 type  4   force =     0.01396151   -0.01836766    0.00378878
     atom   70 type  4   force =    -0.00101353    0.00279274   -0.00126290
     atom   71 type  4   force =    -0.00157344    0.00330729   -0.00547073
     atom   72 type  4   force =     0.00403043    0.00189843   -0.00088261
     atom   73 type  4   force =     0.00107062   -0.01150338    0.00271896
     atom   74 type  4   force =     0.00120451   -0.00018522   -0.00072327
     atom   75 type  4   force =     0.00061057    0.01356698    0.00509216
     atom   76 type  4   force =     0.00829954    0.00524933    0.00923759
     atom   77 type  4   force =     0.00705411   -0.00273316    0.00155018
     atom   78 type  4   force =     0.04434476   -0.14240379   -0.00540609
     atom   79 type  4   force =     0.00188715    0.00190871    0.00141366
     atom   80 type  4   force =     0.00033156    0.00229288   -0.00167516
     atom   81 type  4   force =     0.06783844    0.00090020   -0.00661531
     atom   82 type  4   force =     0.00035666    0.00090583   -0.00118406
     atom   83 type  4   force =    -0.03909137    0.13468247    0.00267064
     atom   84 type  4   force =    -0.00311451   -0.01100568   -0.00410328
     atom   85 type  3   force =     0.04006353   -0.12015990   -0.01808369
     atom   86 type  3   force =    -0.06379394   -0.00050478    0.00770329
     atom   87 type  3   force =    -0.04507243    0.12374615    0.01943438
     atom   88 type  3   force =    -0.00165605    0.00016875    0.00272038
     atom   89 type  4   force =     0.00904082   -0.01528587    0.00391939
     atom   90 type  4   force =    -0.00461893    0.00114491    0.00000312
     atom   91 type  4   force =    -0.00887395    0.00835120   -0.00640295
     atom   92 type  4   force =    -0.00001055    0.00019587   -0.00076064
     atom   93 type  4   force =    -0.00168544   -0.00831355    0.00741837
     atom   94 type  4   force =    -0.00406898    0.00093722   -0.00077811
     atom   95 type  4   force =    -0.00523667    0.01347546    0.00742974
     atom   96 type  4   force =     0.00409288    0.00519712    0.00962856
     atom   97 type  4   force =    -0.00007687    0.00024134    0.00066088
     atom   98 type  4   force =     0.04030632   -0.14096450   -0.00544262
     atom   99 type  4   force =    -0.06656395    0.00000910    0.00633347
     atom  100 type  4   force =    -0.00197443    0.00353288   -0.00256051
     atom  101 type  4   force =    -0.00003598    0.00081012   -0.00090184
     atom  102 type  4   force =    -0.00612734    0.00440363   -0.00140478
     atom  103 type  4   force =    -0.04025838    0.13334809    0.00430684
     atom  104 type  4   force =    -0.00711055   -0.00989969   -0.00526180
     atom  105 type  2   force =     0.00421797   -0.00659028   -0.01779850
     atom  106 type  1   force =     0.02818233    0.01427257    0.01184586
     atom  107 type  1   force =     0.00870930   -0.00611890   -0.01381566
     atom  108 type  1   force =    -0.02839343    0.02171141    0.01884408
     atom  109 type  1   force =     0.00507033    0.01613635    0.00966147
     atom  110 type  1   force =    -0.00248085   -0.00869444   -0.00656518
     atom  111 type  1   force =    -0.00089982   -0.00951622   -0.01126738
     atom  112 type  1   force =     0.02923245    0.01754125    0.01154718
     atom  113 type  1   force =    -0.00070357   -0.00498198   -0.01367410
     atom  114 type  1   force =    -0.02968254    0.02075787    0.01862217
     atom  115 type  1   force =    -0.00721197    0.01847908    0.01235280
     atom  116 type  1   force =    -0.00561074   -0.00434191   -0.00277455
     atom  117 type  3   force =     0.01425756   -0.17388708   -0.10883072
     atom  118 type  3   force =     0.00518574   -0.00851337   -0.01247910
     atom  119 type  3   force =    -0.04468087    0.12501755   -0.00176321
     atom  120 type  3   force =     0.09507675   -0.04105665   -0.07972175
     atom  121 type  4   force =     0.00618939   -0.01708039    0.03727770
     atom  122 type  4   force =    -0.00351096    0.00373358    0.00449917
     atom  123 type  4   force =    -0.00086056    0.00253181   -0.00285816
     atom  124 type  4   force =     0.00849210    0.00219576    0.02695246
     atom  125 type  4   force =     0.00989216   -0.01690651    0.01593827
     atom  126 type  4   force =    -0.00752395    0.00096035   -0.00331610
     atom  127 type  4   force =     0.00393761    0.00960962    0.00031689
     atom  128 type  4   force =    -0.00060988   -0.00110362    0.03015791
     atom  129 type  4   force =    -0.00764733    0.02550637    0.00120069
     atom  130 type  4   force =     0.04333748   -0.14596053   -0.00195112
     atom  131 type  4   force =    -0.01739177   -0.00038213    0.00287278
     atom  132 type  4   force =     0.00345141    0.00263483    0.00198172
     atom  133 type  4   force =     0.06970998    0.00374491   -0.00192422
     atom  134 type  4   force =     0.00096965    0.00373044    0.00267993
     atom  135 type  4   force =    -0.02754853    0.17222200    0.00607663
     atom  136 type  4   force =     0.01955453   -0.00864599    0.00403513
     atom  137 type  3   force =     0.00910528   -0.16687702   -0.09424647
     atom  138 type  3   force =    -0.06472594   -0.00205759   -0.00481098
     atom  139 type  3   force =    -0.04871803    0.11826359    0.00166263
     atom  140 type  3   force =     0.03145164   -0.04326295   -0.07369489
     atom  141 type  4   force =     0.00464614   -0.01329295    0.03205647
     atom  142 type  4   force =    -0.00543501   -0.00035793    0.00430503
     atom  143 type  4   force =    -0.00819522    0.00808286   -0.00354494
     atom  144 type  4   force =     0.00383681    0.00140077    0.02752755
     atom  145 type  4   force =     0.00687938   -0.01301861    0.03236108
     atom  146 type  4   force =    -0.00868573   -0.00183850   -0.00319672
     atom  147 type  4   force =     0.00028760    0.00984189    0.00251928
     atom  148 type  4   force =    -0.00790427    0.00121751    0.02909378
     atom  149 type  4   force =    -0.01319319    0.02942419    0.00052470
     atom  150 type  4   force =     0.03979152   -0.13827466   -0.00143968
     atom  151 type  4   force =    -0.08615458   -0.00174495    0.00916587
     atom  152 type  4   force =     0.00124415    0.00388532    0.00139910
     atom  153 type  4   force =    -0.00360551    0.00084647    0.00293513
     atom  154 type  4   force =    -0.00586845    0.00605158    0.00127554
     atom  155 type  4   force =    -0.02796360    0.16643241    0.00485658
     atom  156 type  4   force =     0.01055350   -0.00971313   -0.00136281
     atom  157 type  4   force =    -0.00816311   -0.00632806    0.00387841
     atom  158 type  5   force =     0.00845763    0.00666960   -0.00490683

     Total force =     0.671178     Total SCF correction =     0.002210
 
     init_run     :      7.31s CPU      8.16s WALL (       1 calls)
     electrons    :    732.80s CPU    776.83s WALL (       1 calls)
     forces       :      3.64s CPU      4.05s WALL (       1 calls)
     force_london :      0.10s CPU      0.10s WALL (       1 calls)

     Called by init_run:
     wfcinit      :      4.42s CPU      4.65s WALL (       1 calls)
     potinit      :      0.51s CPU      0.74s WALL (       1 calls)
     hinit0       :      1.20s CPU      1.31s WALL (       1 calls)

     Called by electrons:
     c_bands      :    585.14s CPU    609.33s WALL (      59 calls)
     sum_band     :     95.46s CPU    105.90s WALL (      59 calls)
     v_of_rho     :     10.97s CPU     11.85s WALL (      60 calls)
     newd         :     27.99s CPU     36.78s WALL (      60 calls)
     mix_rho      :     13.06s CPU     13.13s WALL (      59 calls)
     energy_londo :      0.09s CPU      0.09s WALL (       1 calls)

     Called by c_bands:
     init_us_2    :      1.72s CPU      1.78s WALL (     240 calls)
     init_us_2:cp :      1.72s CPU      1.78s WALL (     240 calls)
     regterg      :    572.15s CPU    596.15s WALL (     119 calls)

     Called by *egterg:
     rdiaghg      :    177.46s CPU    187.59s WALL (     521 calls)
     h_psi        :    215.55s CPU    221.31s WALL (     523 calls)
     s_psi        :     44.24s CPU     44.26s WALL (     523 calls)
     g_psi        :      0.32s CPU      0.33s WALL (     402 calls)

     Called by h_psi:
     h_psi:calbec :     56.10s CPU     60.71s WALL (     523 calls)
     vloc_psi     :    114.32s CPU    114.90s WALL (     523 calls)
     add_vuspsi   :     44.59s CPU     45.15s WALL (     523 calls)

     General routines
     calbec       :     83.26s CPU     89.91s WALL (     649 calls)
     fft          :     11.49s CPU     12.63s WALL (    1093 calls)
     ffts         :      8.24s CPU      8.26s WALL (    6693 calls)
     fftw         :    129.39s CPU    130.00s WALL (  200748 calls)
     interpolate  :      0.88s CPU      0.96s WALL (     120 calls)
 
     Parallel routines
 
     PWSCF        :  12m25.76s CPU  13m11.34s WALL

 
   This run was terminated on:   2:22:33  20Nov2025            

=------------------------------------------------------------------------------=
   JOB DONE.
=------------------------------------------------------------------------------=
