
     Program PWSCF v.7.2 starts on 17Nov2025 at 18:59:29 

     This program is part of the open-source Quantum ESPRESSO suite
     for quantum simulation of materials; please cite
         "P. Giannozzi et al., J. Phys.:Condens. Matter 21 395502 (2009);
         "P. Giannozzi et al., J. Phys.:Condens. Matter 29 465901 (2017);
         "P. Giannozzi et al., J. Chem. Phys. 152 154105 (2020);
          URL http://www.quantum-espresso.org", 
     in publications or presentations arising from this work. More details at
     http://www.quantum-espresso.org/quote

     Parallel version (MPI), running on    64 processors

     MPI processes distributed on     4 nodes
     466617 MiB available memory on the printing compute node when the environment starts
 
     Reading input from PWINPUT_atm157_zp

     Current dimensions of program PWSCF are:
     Max number of different atomic species (ntypx) = 10
     Max number of k-points (npk) =  40000
     Max angular momentum in pseudopotentials (lmaxx) =  4
     Presently no symmetry can be used with electric field

     file Ni.pbe-n-rrkjus_psl.1.0.0.UPF: wavefunction(s)  3D renormalized
     file Mn.pbe-spn-rrkjus_psl.0.3.1.UPF: wavefunction(s)  3D renormalized
     file O.pbe-rrkjus.UPF: wavefunction(s)  2S renormalized
     file H.pbe-rrkjus.UPF: wavefunction(s)  1S renormalized

     gamma-point specific algorithms are used
 
     R & G space division:  proc/nbgrp/npool/nimage =      64
     Subspace diagonalization in iterative solution of the eigenvalue problem:
     one sub-group per band group will be used
     custom distributed-memory algorithm (size of sub-group:  7*  7 procs)

 
     Parallelization info
     --------------------
     sticks:   dense  smooth     PW     G-vecs:    dense   smooth      PW
     Min         214      85     20                61830    15614    1928
     Max         216      86     22                61864    15658    1982
     Sum       13727    5503   1375              3958051  1001255  125211
 
     Using Slab Decomposition
 


     bravais-lattice index     =            0
     lattice parameter (alat)  =      17.8532  a.u.
     unit-cell volume          =   20962.6682 (a.u.)^3
     number of atoms/cell      =          158
     number of atomic types    =            5
     number of electrons       =      1108.00
     number of Kohn-Sham states=          665
     kinetic-energy cutoff     =      50.0000  Ry
     charge density cutoff     =     500.0000  Ry
     scf convergence threshold =      1.0E-06
     mixing beta               =       0.1000
     number of iterations used =            8  local-TF  mixing
     Exchange-correlation=  SLA  PW   PBE  PBE
                           (   1   4   3   4   0   0   0)

     celldm(1)=  17.853155  celldm(2)=   0.000000  celldm(3)=   0.000000
     celldm(4)=   0.000000  celldm(5)=   0.000000  celldm(6)=   0.000000

     crystal axes: (cart. coord. in units of alat)
               a(1) = (   1.000000   0.000000   0.000000 )  
               a(2) = (   0.003237   1.081997   0.000000 )  
               a(3) = (   0.000000   0.000000   3.404673 )  

     reciprocal axes: (cart. coord. in units 2 pi/alat)
               b(1) = (  1.000000 -0.002992  0.000000 )  
               b(2) = (  0.000000  0.924217  0.000000 )  
               b(3) = (  0.000000  0.000000  0.293714 )  


     PseudoPot. # 1 for Ni read from file:
     ~/PSEUDO/Ni.pbe-n-rrkjus_psl.1.0.0.UPF
     MD5 check sum: Not computed, couldn't open file
     Pseudo is Ultrasoft + core correction, Zval = 10.0
     Generated using "atomic" code by A. Dal Corso  v.5.1.2
     Using radial grid of 1195 points,  6 beta functions with: 
                l(1) =   0
                l(2) =   0
                l(3) =   1
                l(4) =   1
                l(5) =   2
                l(6) =   2
     Q(r) pseudized with 0 coefficients 


     PseudoPot. # 2 for Mn read from file:
     ~/PSEUDO/Mn.pbe-spn-rrkjus_psl.0.3.1.UPF
     MD5 check sum: Not computed, couldn't open file
     Pseudo is Ultrasoft + core correction, Zval = 15.0
     Generated using &quot;atomic&quot; code by A. Dal Corso  v.6.2.2
     Using radial grid of 1187 points,  6 beta functions with: 
                l(1) =   0
                l(2) =   0
                l(3) =   1
                l(4) =   1
                l(5) =   2
                l(6) =   2
     Q(r) pseudized with 0 coefficients 


     PseudoPot. # 3 for P  read from file:
     ~/PSEUDO/P.pbe-n-rrkjus_psl.1.0.0.UPF
     MD5 check sum: Not computed, couldn't open file
     Pseudo is Ultrasoft + core correction, Zval =  5.0
     Generated using "atomic" code by A. Dal Corso  v.5.1
     Using radial grid of 1147 points,  6 beta functions with: 
                l(1) =   0
                l(2) =   0
                l(3) =   1
                l(4) =   1
                l(5) =   2
                l(6) =   2
     Q(r) pseudized with 0 coefficients 


     PseudoPot. # 4 for O  read from file:
     ~/PSEUDO/O.pbe-rrkjus.UPF
     MD5 check sum: Not computed, couldn't open file
     Pseudo is Ultrasoft, Zval =  6.0
     Generated by new atomic code, or converted to UPF format
     Using radial grid of 1269 points,  4 beta functions with: 
                l(1) =   0
                l(2) =   0
                l(3) =   1
                l(4) =   1
     Q(r) pseudized with 0 coefficients 


     PseudoPot. # 5 for H  read from file:
     ~/PSEUDO/H.pbe-rrkjus.UPF
     MD5 check sum: Not computed, couldn't open file
     Pseudo is Ultrasoft, Zval =  1.0
     Generated by new atomic code, or converted to UPF format
     Using radial grid of 1061 points,  2 beta functions with: 
                l(1) =   0
                l(2) =   0
     Q(r) pseudized with 0 coefficients 


     atomic species   valence    mass     pseudopotential
     Ni               10.00    58.69300     Ni( 1.00)
     Mn               15.00    54.93800     Mn( 1.00)
     P                 5.00    30.97300     P ( 1.00)
     O                 6.00    15.99900     O ( 1.00)
     H                 1.00     1.00790     H ( 1.00)

     Starting magnetic structure 
     atomic species   magnetization
     Ni              1.000
     Mn              1.000
     P               1.000
     O               1.000
     H               0.000

     No symmetry found



   Cartesian axes

     site n.     atom                  positions (alat units)
         1        Ni     tau(   1) = (   0.2448189   0.8359134   0.1216996  )
         2        Ni     tau(   2) = (   0.4920952   0.7731948   0.4438949  )
         3        Mn     tau(   3) = (   0.0113021   0.2918949   0.1160512  )
         4        Ni     tau(   4) = (   0.2586115   0.2268566   0.4417628  )
         5        Ni     tau(   5) = (   1.0019827   1.0705803   0.2835623  )
         6        Ni     tau(   6) = (   0.2518099   0.5339061   0.2823483  )
         7        Ni     tau(   7) = (   0.7400999   0.8349186   0.1225624  )
         8        Mn     tau(   8) = (   0.9886961   0.7700845   0.4492175  )
         9        Mn     tau(   9) = (   0.5113421   0.2944667   0.1158892  )
        10        Ni     tau(  10) = (   0.7560857   0.2263843   0.4422798  )
        11        Ni     tau(  11) = (   0.5009386   1.0712238   0.2822610  )
        12        Ni     tau(  12) = (   0.7496978   0.5336600   0.2834396  )
        13        P      tau(  13) = (   0.2147792   0.9686896   0.4382665  )
        14        P      tau(  14) = (   0.4607377   0.6441916   0.1265334  )
        15        P      tau(  15) = (   0.2883218   0.0913464   0.1265752  )
        16        P      tau(  16) = (   0.0408981   0.4221836   0.4354960  )
        17        O      tau(  17) = (   0.1380864   0.9007819   0.3023220  )
        18        O      tau(  18) = (   0.3817439   0.7113683   0.2624610  )
        19        O      tau(  19) = (   0.3638364   0.1608547   0.2624417  )
        20        O      tau(  20) = (   0.1207568   0.3545755   0.3021219  )
        21        O      tau(  21) = (   0.1552194   0.8797563   0.5625160  )
        22        O      tau(  22) = (   0.4022820   0.7317969   0.0010585  )
        23        O      tau(  23) = (   0.3454844   0.1823965   0.0026336  )
        24        O      tau(  24) = (   0.1017019   0.3344979   0.5594858  )
        25        O      tau(  25) = (   0.0970074   0.5770714   0.4346455  )
        26        O      tau(  26) = (   0.3534166   1.0203677   0.1270707  )
        27        O      tau(  27) = (   0.3778024   0.4172402   0.4261028  )
        28        O      tau(  28) = (   0.1256171   0.0954063   0.1372153  )
        29        O      tau(  29) = (   0.1232168   0.6482422   0.1385172  )
        30        O      tau(  30) = (   0.4028533   0.4897833   0.1289718  )
        31        O      tau(  31) = (   0.1511050   0.0405554   0.4369979  )
        32        O      tau(  32) = (   0.3776556   0.9624293   0.4288159  )
        33        P      tau(  33) = (   0.7084770   0.9682119   0.4394551  )
        34        P      tau(  34) = (   0.9603154   0.6409658   0.1292469  )
        35        P      tau(  35) = (   0.7875734   0.0899770   0.1274098  )
        36        P      tau(  36) = (   0.5405152   0.4272620   0.4364455  )
        37        O      tau(  37) = (   0.6323583   0.8977630   0.3036670  )
        38        O      tau(  38) = (   0.8809646   0.7091921   0.2627111  )
        39        O      tau(  39) = (   0.8631054   0.1587239   0.2636487  )
        40        O      tau(  40) = (   0.6202581   0.3578380   0.3034239  )
        41        O      tau(  41) = (   0.6499160   0.8772596   0.5630912  )
        42        O      tau(  42) = (   0.8990171   0.7283464   0.0054426  )
        43        O      tau(  43) = (   0.8448361   0.1806154   0.0030658  )
        44        O      tau(  44) = (   0.6023096   0.3392612   0.5600469  )
        45        O      tau(  45) = (   0.5960222   0.5826131   0.4346340  )
        46        O      tau(  46) = (   0.8515023   1.0184215   0.1281632  )
        47        O      tau(  47) = (   0.8779640   0.4148900   0.4260983  )
        48        O      tau(  48) = (   0.6251159   0.0957170   0.1376895  )
        49        O      tau(  49) = (   0.6237654   0.6481585   0.1378370  )
        50        O      tau(  50) = (   0.9038046   0.4863338   0.1307354  )
        51        O      tau(  51) = (   0.6458737   0.0402574   0.4377979  )
        52        O      tau(  52) = (   0.8712434   0.9635255   0.4285638  )
        53        Ni     tau(  53) = (   0.2420320   0.8169913   0.7491577  )
        54        Ni     tau(  54) = (   0.4893084   0.7542727   1.0713530  )
        55        Mn     tau(  55) = (   0.0085152   0.2729728   0.7435093  )
        56        Ni     tau(  56) = (   0.2558246   0.2079345   1.0692209  )
        57        Ni     tau(  57) = (   0.9991959   1.0516583   0.9110204  )
        58        Ni     tau(  58) = (   0.2490231   0.5149840   0.9098064  )
        59        Ni     tau(  59) = (   0.7373131   0.8159965   0.7500205  )
        60        Mn     tau(  60) = (   0.9859093   0.7511625   1.0766756  )
        61        Mn     tau(  61) = (   0.5085552   0.2755447   0.7433473  )
        62        Ni     tau(  62) = (   0.7532989   0.2074622   1.0697379  )
        63        Ni     tau(  63) = (   0.4981517   1.0523018   0.9097191  )
        64        Ni     tau(  64) = (   0.7469109   0.5147379   0.9108977  )
        65        P      tau(  65) = (   0.2119924   0.9497675   1.0657246  )
        66        P      tau(  66) = (   0.4579509   0.6252695   0.7539915  )
        67        P      tau(  67) = (   0.2855349   0.0724244   0.7540333  )
        68        P      tau(  68) = (   0.0381112   0.4032615   1.0629541  )
        69        O      tau(  69) = (   0.1352995   0.8818598   0.9297801  )
        70        O      tau(  70) = (   0.3789570   0.6924463   0.8899191  )
        71        O      tau(  71) = (   0.3610496   0.1419327   0.8898998  )
        72        O      tau(  72) = (   0.1179700   0.3356534   0.9295800  )
        73        O      tau(  73) = (   0.1524325   0.8608343   1.1899741  )
        74        O      tau(  74) = (   0.3994952   0.7128748   0.6285166  )
        75        O      tau(  75) = (   0.3426976   0.1634744   0.6300917  )
        76        O      tau(  76) = (   0.0989151   0.3155758   1.1869439  )
        77        O      tau(  77) = (   0.0942206   0.5581494   1.0621036  )
        78        O      tau(  78) = (   0.3506297   1.0014456   0.7545288  )
        79        O      tau(  79) = (   0.3750155   0.3983181   1.0535609  )
        80        O      tau(  80) = (   0.1228303   0.0764842   0.7646734  )
        81        O      tau(  81) = (   0.1204299   0.6293201   0.7659753  )
        82        O      tau(  82) = (   0.4000664   0.4708612   0.7564299  )
        83        O      tau(  83) = (   0.1483182   0.0216333   1.0644560  )
        84        O      tau(  84) = (   0.3748687   0.9435072   1.0562740  )
        85        P      tau(  85) = (   0.7056901   0.9492898   1.0669132  )
        86        P      tau(  86) = (   0.9575286   0.6220438   0.7567050  )
        87        P      tau(  87) = (   0.7847866   0.0710549   0.7548679  )
        88        P      tau(  88) = (   0.5377283   0.4083400   1.0639036  )
        89        O      tau(  89) = (   0.6295714   0.8788409   0.9311251  )
        90        O      tau(  90) = (   0.8781778   0.6902700   0.8901692  )
        91        O      tau(  91) = (   0.8603186   0.1398018   0.8911068  )
        92        O      tau(  92) = (   0.6174712   0.3389159   0.9308820  )
        93        O      tau(  93) = (   0.6471291   0.8583376   1.1905493  )
        94        O      tau(  94) = (   0.8962302   0.7094244   0.6329007  )
        95        O      tau(  95) = (   0.8420493   0.1616933   0.6305239  )
        96        O      tau(  96) = (   0.5995227   0.3203391   1.1875050  )
        97        O      tau(  97) = (   0.5932354   0.5636910   1.0620921  )
        98        O      tau(  98) = (   0.8487155   0.9994995   0.7556213  )
        99        O      tau(  99) = (   0.8751772   0.3959680   1.0535564  )
       100        O      tau( 100) = (   0.6223291   0.0767949   0.7651476  )
       101        O      tau( 101) = (   0.6209785   0.6292365   0.7652951  )
       102        O      tau( 102) = (   0.9010178   0.4674118   0.7581935  )
       103        O      tau( 103) = (   0.6430869   0.0213354   1.0652560  )
       104        O      tau( 104) = (   0.8684566   0.9446034   1.0560219  )
       105        Ni     tau( 105) = (   0.2418877   0.7990605   1.3774994  )
       106        Ni     tau( 106) = (   0.4859924   0.7291101   1.7127883  )
       107        Mn     tau( 107) = (   0.0074091   0.2584581   1.3749705  )
       108        Ni     tau( 108) = (   0.2425157   0.1970216   1.6824860  )
       109        Ni     tau( 109) = (   0.9982898   1.0343952   1.5373768  )
       110        Ni     tau( 110) = (   0.2455541   0.5002357   1.5473962  )
       111        Ni     tau( 111) = (   0.7364741   0.7981604   1.3766198  )
       112        Mn     tau( 112) = (   0.9933806   0.7362827   1.7012765  )
       113        Mn     tau( 113) = (   0.5061773   0.2597092   1.3733878  )
       114        Ni     tau( 114) = (   0.7390624   0.1911087   1.6822626  )
       115        Ni     tau( 115) = (   0.4977171   1.0337782   1.5386589  )
       116        Ni     tau( 116) = (   0.7401814   0.4951798   1.5429972  )
       117        P      tau( 117) = (   0.2103734   0.9343735   1.6940579  )
       118        P      tau( 118) = (   0.4554029   0.6062738   1.3832147  )
       119        P      tau( 119) = (   0.2849489   0.0556490   1.3793979  )
       120        P      tau( 120) = (   0.0290749   0.3809918   1.7035602  )
       121        O      tau( 121) = (   0.1355154   0.8685926   1.5530534  )
       122        O      tau( 122) = (   0.3774347   0.6768570   1.5167281  )
       123        O      tau( 123) = (   0.3598942   0.1250008   1.5151379  )
       124        O      tau( 124) = (   0.1107954   0.3275508   1.5594841  )
       125        O      tau( 125) = (   0.1459723   0.8429241   1.8126700  )
       126        O      tau( 126) = (   0.3976183   0.6919918   1.2555103  )
       127        O      tau( 127) = (   0.3429937   0.1462538   1.2552325  )
       128        O      tau( 128) = (   0.0910722   0.2838530   1.8157905  )
       129        O      tau( 129) = (   0.0790378   0.5396957   1.7066292  )
       130        O      tau( 130) = (   0.3490860   0.9846372   1.3803291  )
       131        O      tau( 131) = (   0.3685320   0.3757119   1.6809527  )
       132        O      tau( 132) = (   0.1220401   0.0632085   1.3908914  )
       133        O      tau( 133) = (   0.1180502   0.6108095   1.4007634  )
       134        O      tau( 134) = (   0.3961976   0.4519943   1.3871462  )
       135        O      tau( 135) = (   0.1486504   0.0072842   1.6926096  )
       136        O      tau( 136) = (   0.3735002   0.9279144   1.6865291  )
       137        P      tau( 137) = (   0.7062277   0.9249542   1.6906995  )
       138        P      tau( 138) = (   0.9553712   0.6030053   1.3890406  )
       139        P      tau( 139) = (   0.7840082   0.0540629   1.3791216  )
       140        P      tau( 140) = (   0.5317123   0.3818426   1.7010624  )
       141        O      tau( 141) = (   0.6319685   0.8674441   1.5474648  )
       142        O      tau( 142) = (   0.8763482   0.6697573   1.5237027  )
       143        O      tau( 143) = (   0.8595380   0.1221826   1.5157410  )
       144        O      tau( 144) = (   0.6117506   0.3206324   1.5574399  )
       145        O      tau( 145) = (   0.6505933   0.8256672   1.8056400  )
       146        O      tau( 146) = (   0.8964847   0.6918028   1.2646706  )
       147        O      tau( 147) = (   0.8420613   0.1459611   1.2558217  )
       148        O      tau( 148) = (   0.5904161   0.2827938   1.8138958  )
       149        O      tau( 149) = (   0.5904972   0.5368025   1.6958113  )
       150        O      tau( 150) = (   0.8484323   0.9829177   1.3785021  )
       151        O      tau( 151) = (   0.8659078   0.3735192   1.6844181  )
       152        O      tau( 152) = (   0.6215468   0.0617340   1.3908597  )
       153        O      tau( 153) = (   0.6186538   0.6093341   1.3943007  )
       154        O      tau( 154) = (   0.8974697   0.4488583   1.3875570  )
       155        O      tau( 155) = (   0.6478825  -0.0004503   1.6955159  )
       156        O      tau( 156) = (   0.8711649   0.9215713   1.6818757  )
       157        O      tau( 157) = (   0.3651639   0.6449523   1.8377529  )
       158        H      tau( 158) = (   0.2891119   0.7091622   1.8682131  )

     -------------------------------------------------
     Parameters for Dispersion (Grimme-D2) Correction:
     -------------------------------------------------
       atom      VdW radius       C_6     

        Ni         2.952        374.666
        Mn         2.952        374.666
        P          3.222        271.980
        O          2.536         24.284
        H          1.892          4.857

     number of k points=     1  Gaussian smearing, width (Ry)=  0.0100
                       cart. coord. in units 2pi/alat
        k(    1) = (   0.0000000   0.0000000   0.0000000), wk =   1.0000000

     Dense  grid:  1979026 G-vectors     FFT dimensions: ( 128, 144, 450)

     Smooth grid:   500628 G-vectors     FFT dimensions: (  81,  90, 288)

     Estimated max dynamical RAM per process >     333.40 MB

     Estimated total dynamical RAM >      20.84 GB

     Check: negative core charge=   -0.000002
     Generating pointlists ...
     new r_m :   0.0797 (alat units)  1.4223 (a.u.) for type    1
     new r_m :   0.0884 (alat units)  1.5790 (a.u.) for type    2
     new r_m :   0.0664 (alat units)  1.1846 (a.u.) for type    3
     new r_m :   0.0429 (alat units)  0.7666 (a.u.) for type    4
     new r_m :   0.0429 (alat units)  0.7666 (a.u.) for type    5

     Initial potential from superposition of free atoms

     starting charge    1107.8886, renormalised to    1108.0000

     negative rho (up, down):  1.527E-03 4.660E-04
 
     Adding external electric field

     Computed dipole along edir(3) : 
        Dipole                1.6366 Ry au,          4.1597 Debye
        Dipole field          0.0010 Ry au, 
 
        Potential amp.       -0.1073 Ry
        Total length         54.7057 bohr
 
 
     Adding external electric field

     Computed dipole along edir(3) : 
        Dipole                1.6366 Ry au,          4.1597 Debye
        Dipole field          0.0010 Ry au, 
 
        Potential amp.       -0.1073 Ry
        Total length         54.7057 bohr
 
     Starting wfcs are  818 randomized atomic wfcs

     total cpu time spent up to now is       11.3 secs

     Self-consistent Calculation

     iteration #  1     ecut=    50.00 Ry     beta= 0.10
     Davidson diagonalization with overlap
     ethr =  1.00E-02,  avg # of iterations =  5.5

     negative rho (up, down):  4.488E-01 9.261E-07
 
     Adding external electric field

     Computed dipole along edir(3) : 
        Dipole               -3.4273 Ry au,         -8.7113 Debye
        Dipole field         -0.0021 Ry au, 
 
        Potential amp.        0.2248 Ry
        Total length         54.7057 bohr
 
 
     Adding external electric field

     Computed dipole along edir(3) : 
        Dipole               -3.4273 Ry au,         -8.7113 Debye
        Dipole field         -0.0021 Ry au, 
 
        Potential amp.        0.2248 Ry
        Total length         54.7057 bohr
 

     total cpu time spent up to now is       41.6 secs

     total energy              =   -7859.06912201 Ry
     estimated scf accuracy    <     725.73667781 Ry

     total magnetization       =   222.00 Bohr mag/cell
     absolute magnetization    =   319.91 Bohr mag/cell

     iteration #  2     ecut=    50.00 Ry     beta= 0.10
     Davidson diagonalization with overlap
     ethr =  1.00E-02,  avg # of iterations =  2.0

     negative rho (up, down):  4.137E-01 4.901E-07
 
     Adding external electric field

     Computed dipole along edir(3) : 
        Dipole               -2.4651 Ry au,         -6.2657 Debye
        Dipole field         -0.0015 Ry au, 
 
        Potential amp.        0.1617 Ry
        Total length         54.7057 bohr
 
 
     Adding external electric field

     Computed dipole along edir(3) : 
        Dipole               -2.4651 Ry au,         -6.2657 Debye
        Dipole field         -0.0015 Ry au, 
 
        Potential amp.        0.1617 Ry
        Total length         54.7057 bohr
 

     total cpu time spent up to now is       59.1 secs

     total energy              =   -7941.04236817 Ry
     estimated scf accuracy    <     171.77449818 Ry

     total magnetization       =   162.66 Bohr mag/cell
     absolute magnetization    =   210.86 Bohr mag/cell

     iteration #  3     ecut=    50.00 Ry     beta= 0.10
     Davidson diagonalization with overlap
     ethr =  1.00E-02,  avg # of iterations =  1.0

     negative rho (up, down):  3.650E-01 4.397E-07
 
     Adding external electric field

     Computed dipole along edir(3) : 
        Dipole               -2.0704 Ry au,         -5.2624 Debye
        Dipole field         -0.0012 Ry au, 
 
        Potential amp.        0.1358 Ry
        Total length         54.7057 bohr
 
 
     Adding external electric field

     Computed dipole along edir(3) : 
        Dipole               -2.0704 Ry au,         -5.2624 Debye
        Dipole field         -0.0012 Ry au, 
 
        Potential amp.        0.1358 Ry
        Total length         54.7057 bohr
 

     total cpu time spent up to now is       72.9 secs

     total energy              =   -7972.20373748 Ry
     estimated scf accuracy    <     103.18134853 Ry

     total magnetization       =   140.96 Bohr mag/cell
     absolute magnetization    =   190.96 Bohr mag/cell

     iteration #  4     ecut=    50.00 Ry     beta= 0.10
     Davidson diagonalization with overlap
     ethr =  9.31E-03,  avg # of iterations =  1.0

     negative rho (up, down):  2.855E-01 7.437E-08
 
     Adding external electric field

     Computed dipole along edir(3) : 
        Dipole               -1.9540 Ry au,         -4.9665 Debye
        Dipole field         -0.0012 Ry au, 
 
        Potential amp.        0.1282 Ry
        Total length         54.7057 bohr
 
 
     Adding external electric field

     Computed dipole along edir(3) : 
        Dipole               -1.9540 Ry au,         -4.9665 Debye
        Dipole field         -0.0012 Ry au, 
 
        Potential amp.        0.1282 Ry
        Total length         54.7057 bohr
 

     total cpu time spent up to now is       86.0 secs

     total energy              =   -8004.83745526 Ry
     estimated scf accuracy    <      82.63077651 Ry

     total magnetization       =   124.99 Bohr mag/cell
     absolute magnetization    =   176.77 Bohr mag/cell

     iteration #  5     ecut=    50.00 Ry     beta= 0.10
     Davidson diagonalization with overlap
     ethr =  7.46E-03,  avg # of iterations =  1.0

     negative rho (up, down):  2.648E-02 3.877E-09
 
     Adding external electric field

     Computed dipole along edir(3) : 
        Dipole               -1.4513 Ry au,         -3.6888 Debye
        Dipole field         -0.0009 Ry au, 
 
        Potential amp.        0.0952 Ry
        Total length         54.7057 bohr
 
 
     Adding external electric field

     Computed dipole along edir(3) : 
        Dipole               -1.4513 Ry au,         -3.6888 Debye
        Dipole field         -0.0009 Ry au, 
 
        Potential amp.        0.0952 Ry
        Total length         54.7057 bohr
 

     total cpu time spent up to now is       99.3 secs

     total energy              =   -8065.30669931 Ry
     estimated scf accuracy    <      65.33312462 Ry

     total magnetization       =   106.02 Bohr mag/cell
     absolute magnetization    =   159.16 Bohr mag/cell

     iteration #  6     ecut=    50.00 Ry     beta= 0.10
     Davidson diagonalization with overlap
     ethr =  5.90E-03,  avg # of iterations =  1.0

     negative rho (up, down):  5.565E-04 9.776E-04
 
     Adding external electric field

     Computed dipole along edir(3) : 
        Dipole               -1.0687 Ry au,         -2.7163 Debye
        Dipole field         -0.0006 Ry au, 
 
        Potential amp.        0.0701 Ry
        Total length         54.7057 bohr
 
 
     Adding external electric field

     Computed dipole along edir(3) : 
        Dipole               -1.0687 Ry au,         -2.7163 Debye
        Dipole field         -0.0006 Ry au, 
 
        Potential amp.        0.0701 Ry
        Total length         54.7057 bohr
 

     total cpu time spent up to now is      112.5 secs

     total energy              =   -8076.37503087 Ry
     estimated scf accuracy    <      12.18414735 Ry

     total magnetization       =   100.00 Bohr mag/cell
     absolute magnetization    =   131.10 Bohr mag/cell

     iteration #  7     ecut=    50.00 Ry     beta= 0.10
     Davidson diagonalization with overlap
     ethr =  1.10E-03,  avg # of iterations =  6.0

     negative rho (up, down):  5.647E-04 1.005E-03
 
     Adding external electric field

     Computed dipole along edir(3) : 
        Dipole               -1.0637 Ry au,         -2.7036 Debye
        Dipole field         -0.0006 Ry au, 
 
        Potential amp.        0.0698 Ry
        Total length         54.7057 bohr
 
 
     Adding external electric field

     Computed dipole along edir(3) : 
        Dipole               -1.0637 Ry au,         -2.7036 Debye
        Dipole field         -0.0006 Ry au, 
 
        Potential amp.        0.0698 Ry
        Total length         54.7057 bohr
 

     total cpu time spent up to now is      136.2 secs

     total energy              =   -8078.78499785 Ry
     estimated scf accuracy    <      28.34332580 Ry

     total magnetization       =    69.89 Bohr mag/cell
     absolute magnetization    =    87.67 Bohr mag/cell

     iteration #  8     ecut=    50.00 Ry     beta= 0.10
     Davidson diagonalization with overlap
     ethr =  1.10E-03,  avg # of iterations =  1.0

     negative rho (up, down):  5.196E-04 1.007E-03
 
     Adding external electric field

     Computed dipole along edir(3) : 
        Dipole               -1.0588 Ry au,         -2.6912 Debye
        Dipole field         -0.0006 Ry au, 
 
        Potential amp.        0.0694 Ry
        Total length         54.7057 bohr
 
 
     Adding external electric field

     Computed dipole along edir(3) : 
        Dipole               -1.0588 Ry au,         -2.6912 Debye
        Dipole field         -0.0006 Ry au, 
 
        Potential amp.        0.0694 Ry
        Total length         54.7057 bohr
 

     total cpu time spent up to now is      149.4 secs

     total energy              =   -8078.98059294 Ry
     estimated scf accuracy    <      28.08423712 Ry

     total magnetization       =    69.93 Bohr mag/cell
     absolute magnetization    =    87.27 Bohr mag/cell

     iteration #  9     ecut=    50.00 Ry     beta= 0.10
     Davidson diagonalization with overlap
     ethr =  1.10E-03,  avg # of iterations =  1.0

     negative rho (up, down):  5.772E-04 1.144E-03
 
     Adding external electric field

     Computed dipole along edir(3) : 
        Dipole               -1.0610 Ry au,         -2.6969 Debye
        Dipole field         -0.0006 Ry au, 
 
        Potential amp.        0.0696 Ry
        Total length         54.7057 bohr
 
 
     Adding external electric field

     Computed dipole along edir(3) : 
        Dipole               -1.0610 Ry au,         -2.6969 Debye
        Dipole field         -0.0006 Ry au, 
 
        Potential amp.        0.0696 Ry
        Total length         54.7057 bohr
 

     total cpu time spent up to now is      162.7 secs

     total energy              =   -8078.69628223 Ry
     estimated scf accuracy    <      30.72523253 Ry

     total magnetization       =    68.92 Bohr mag/cell
     absolute magnetization    =    86.09 Bohr mag/cell

     iteration # 10     ecut=    50.00 Ry     beta= 0.10
     Davidson diagonalization with overlap
     ethr =  1.10E-03,  avg # of iterations =  1.0

     negative rho (up, down):  6.260E-03 1.129E-02
 
     Adding external electric field

     Computed dipole along edir(3) : 
        Dipole               -1.1250 Ry au,         -2.8595 Debye
        Dipole field         -0.0007 Ry au, 
 
        Potential amp.        0.0738 Ry
        Total length         54.7057 bohr
 
 
     Adding external electric field

     Computed dipole along edir(3) : 
        Dipole               -1.1250 Ry au,         -2.8595 Debye
        Dipole field         -0.0007 Ry au, 
 
        Potential amp.        0.0738 Ry
        Total length         54.7057 bohr
 

     total cpu time spent up to now is      175.5 secs

     total energy              =   -8077.58088683 Ry
     estimated scf accuracy    <      26.24416918 Ry

     total magnetization       =    70.04 Bohr mag/cell
     absolute magnetization    =    86.31 Bohr mag/cell

     iteration # 11     ecut=    50.00 Ry     beta= 0.10
     Davidson diagonalization with overlap
     ethr =  1.10E-03,  avg # of iterations =  1.0

     negative rho (up, down):  1.677E-02 2.331E-02
 
     Adding external electric field

     Computed dipole along edir(3) : 
        Dipole               -1.1321 Ry au,         -2.8776 Debye
        Dipole field         -0.0007 Ry au, 
 
        Potential amp.        0.0743 Ry
        Total length         54.7057 bohr
 
 
     Adding external electric field

     Computed dipole along edir(3) : 
        Dipole               -1.1321 Ry au,         -2.8776 Debye
        Dipole field         -0.0007 Ry au, 
 
        Potential amp.        0.0743 Ry
        Total length         54.7057 bohr
 

     total cpu time spent up to now is      188.1 secs

     total energy              =   -8078.15532374 Ry
     estimated scf accuracy    <       4.25981929 Ry

     total magnetization       =    92.43 Bohr mag/cell
     absolute magnetization    =   102.76 Bohr mag/cell

     iteration # 12     ecut=    50.00 Ry     beta= 0.10
     Davidson diagonalization with overlap
     ethr =  3.84E-04,  avg # of iterations =  2.0

     negative rho (up, down):  1.018E-02 1.676E-02
 
     Adding external electric field

     Computed dipole along edir(3) : 
        Dipole               -1.1119 Ry au,         -2.8262 Debye
        Dipole field         -0.0007 Ry au, 
 
        Potential amp.        0.0729 Ry
        Total length         54.7057 bohr
 
 
     Adding external electric field

     Computed dipole along edir(3) : 
        Dipole               -1.1119 Ry au,         -2.8262 Debye
        Dipole field         -0.0007 Ry au, 
 
        Potential amp.        0.0729 Ry
        Total length         54.7057 bohr
 

     total cpu time spent up to now is      202.3 secs

     total energy              =   -8078.16853445 Ry
     estimated scf accuracy    <       2.73871109 Ry

     total magnetization       =    96.66 Bohr mag/cell
     absolute magnetization    =   105.13 Bohr mag/cell

     iteration # 13     ecut=    50.00 Ry     beta= 0.10
     Davidson diagonalization with overlap
     ethr =  2.47E-04,  avg # of iterations =  6.0

     negative rho (up, down):  1.278E-02 2.168E-02
 
     Adding external electric field

     Computed dipole along edir(3) : 
        Dipole               -1.0631 Ry au,         -2.7020 Debye
        Dipole field         -0.0006 Ry au, 
 
        Potential amp.        0.0697 Ry
        Total length         54.7057 bohr
 
 
     Adding external electric field

     Computed dipole along edir(3) : 
        Dipole               -1.0631 Ry au,         -2.7020 Debye
        Dipole field         -0.0006 Ry au, 
 
        Potential amp.        0.0697 Ry
        Total length         54.7057 bohr
 

     total cpu time spent up to now is      217.3 secs

     total energy              =   -8078.15828234 Ry
     estimated scf accuracy    <       2.80193905 Ry

     total magnetization       =    94.68 Bohr mag/cell
     absolute magnetization    =   103.46 Bohr mag/cell

     iteration # 14     ecut=    50.00 Ry     beta= 0.10
     Davidson diagonalization with overlap
     ethr =  2.47E-04,  avg # of iterations =  1.5

     negative rho (up, down):  1.068E-02 1.808E-02
 
     Adding external electric field

     Computed dipole along edir(3) : 
        Dipole               -1.0110 Ry au,         -2.5696 Debye
        Dipole field         -0.0006 Ry au, 
 
        Potential amp.        0.0663 Ry
        Total length         54.7057 bohr
 
 
     Adding external electric field

     Computed dipole along edir(3) : 
        Dipole               -1.0110 Ry au,         -2.5696 Debye
        Dipole field         -0.0006 Ry au, 
 
        Potential amp.        0.0663 Ry
        Total length         54.7057 bohr
 

     total cpu time spent up to now is      230.3 secs

     total energy              =   -8078.24600718 Ry
     estimated scf accuracy    <       1.02692493 Ry

     total magnetization       =    96.77 Bohr mag/cell
     absolute magnetization    =   104.48 Bohr mag/cell

     iteration # 15     ecut=    50.00 Ry     beta= 0.10
     Davidson diagonalization with overlap
     ethr =  9.27E-05,  avg # of iterations = 12.0

     negative rho (up, down):  6.360E-03 1.118E-02
 
     Adding external electric field

     Computed dipole along edir(3) : 
        Dipole               -0.9873 Ry au,         -2.5094 Debye
        Dipole field         -0.0006 Ry au, 
 
        Potential amp.        0.0648 Ry
        Total length         54.7057 bohr
 
 
     Adding external electric field

     Computed dipole along edir(3) : 
        Dipole               -0.9873 Ry au,         -2.5094 Debye
        Dipole field         -0.0006 Ry au, 
 
        Potential amp.        0.0648 Ry
        Total length         54.7057 bohr
 

     total cpu time spent up to now is      256.4 secs

     total energy              =   -8078.33813679 Ry
     estimated scf accuracy    <       0.74839399 Ry

     total magnetization       =    97.07 Bohr mag/cell
     absolute magnetization    =   103.94 Bohr mag/cell

     iteration # 16     ecut=    50.00 Ry     beta= 0.10
     Davidson diagonalization with overlap
     ethr =  6.75E-05,  avg # of iterations =  1.5

     negative rho (up, down):  6.074E-03 1.049E-02
 
     Adding external electric field

     Computed dipole along edir(3) : 
        Dipole               -0.9731 Ry au,         -2.4734 Debye
        Dipole field         -0.0006 Ry au, 
 
        Potential amp.        0.0638 Ry
        Total length         54.7057 bohr
 
 
     Adding external electric field

     Computed dipole along edir(3) : 
        Dipole               -0.9731 Ry au,         -2.4734 Debye
        Dipole field         -0.0006 Ry au, 
 
        Potential amp.        0.0638 Ry
        Total length         54.7057 bohr
 

     total cpu time spent up to now is      269.8 secs

     total energy              =   -8078.35019166 Ry
     estimated scf accuracy    <       0.82670434 Ry

     total magnetization       =    96.15 Bohr mag/cell
     absolute magnetization    =   102.45 Bohr mag/cell

     iteration # 17     ecut=    50.00 Ry     beta= 0.10
     Davidson diagonalization with overlap
     ethr =  6.75E-05,  avg # of iterations =  1.0

     negative rho (up, down):  6.241E-03 9.220E-03
 
     Adding external electric field

     Computed dipole along edir(3) : 
        Dipole               -1.0990 Ry au,         -2.7935 Debye
        Dipole field         -0.0007 Ry au, 
 
        Potential amp.        0.0721 Ry
        Total length         54.7057 bohr
 
 
     Adding external electric field

     Computed dipole along edir(3) : 
        Dipole               -1.0990 Ry au,         -2.7935 Debye
        Dipole field         -0.0007 Ry au, 
 
        Potential amp.        0.0721 Ry
        Total length         54.7057 bohr
 

     total cpu time spent up to now is      282.1 secs

     total energy              =   -8078.43858519 Ry
     estimated scf accuracy    <       0.93224099 Ry

     total magnetization       =    95.67 Bohr mag/cell
     absolute magnetization    =   101.99 Bohr mag/cell

     iteration # 18     ecut=    50.00 Ry     beta= 0.10
     Davidson diagonalization with overlap
     ethr =  6.75E-05,  avg # of iterations =  1.5

     negative rho (up, down):  9.246E-04 1.493E-03
 
     Adding external electric field

     Computed dipole along edir(3) : 
        Dipole               -1.0761 Ry au,         -2.7352 Debye
        Dipole field         -0.0006 Ry au, 
 
        Potential amp.        0.0706 Ry
        Total length         54.7057 bohr
 
 
     Adding external electric field

     Computed dipole along edir(3) : 
        Dipole               -1.0761 Ry au,         -2.7352 Debye
        Dipole field         -0.0006 Ry au, 
 
        Potential amp.        0.0706 Ry
        Total length         54.7057 bohr
 

     total cpu time spent up to now is      295.5 secs

     total energy              =   -8078.49552874 Ry
     estimated scf accuracy    <       0.79757744 Ry

     total magnetization       =    99.62 Bohr mag/cell
     absolute magnetization    =   103.86 Bohr mag/cell

     iteration # 19     ecut=    50.00 Ry     beta= 0.10
     Davidson diagonalization with overlap
     ethr =  6.75E-05,  avg # of iterations =  1.0

     negative rho (up, down):  2.331E-04 2.129E-04
 
     Adding external electric field

     Computed dipole along edir(3) : 
        Dipole               -1.0387 Ry au,         -2.6400 Debye
        Dipole field         -0.0006 Ry au, 
 
        Potential amp.        0.0681 Ry
        Total length         54.7057 bohr
 
 
     Adding external electric field

     Computed dipole along edir(3) : 
        Dipole               -1.0387 Ry au,         -2.6400 Debye
        Dipole field         -0.0006 Ry au, 
 
        Potential amp.        0.0681 Ry
        Total length         54.7057 bohr
 

     total cpu time spent up to now is      308.1 secs

     total energy              =   -8078.54611245 Ry
     estimated scf accuracy    <       0.50773664 Ry

     total magnetization       =    98.26 Bohr mag/cell
     absolute magnetization    =   102.12 Bohr mag/cell

     iteration # 20     ecut=    50.00 Ry     beta= 0.10
     Davidson diagonalization with overlap
     ethr =  4.58E-05,  avg # of iterations =  2.0

     negative rho (up, down):  2.092E-04 1.685E-04
 
     Adding external electric field

     Computed dipole along edir(3) : 
        Dipole               -1.0522 Ry au,         -2.6745 Debye
        Dipole field         -0.0006 Ry au, 
 
        Potential amp.        0.0690 Ry
        Total length         54.7057 bohr
 
 
     Adding external electric field

     Computed dipole along edir(3) : 
        Dipole               -1.0522 Ry au,         -2.6745 Debye
        Dipole field         -0.0006 Ry au, 
 
        Potential amp.        0.0690 Ry
        Total length         54.7057 bohr
 

     total cpu time spent up to now is      322.3 secs

     total energy              =   -8078.54848740 Ry
     estimated scf accuracy    <       0.69109416 Ry

     total magnetization       =    96.80 Bohr mag/cell
     absolute magnetization    =    99.75 Bohr mag/cell

     iteration # 21     ecut=    50.00 Ry     beta= 0.10
     Davidson diagonalization with overlap
     ethr =  4.58E-05,  avg # of iterations =  1.0

     negative rho (up, down):  9.198E-04 5.341E-04
 
     Adding external electric field

     Computed dipole along edir(3) : 
        Dipole               -1.0134 Ry au,         -2.5759 Debye
        Dipole field         -0.0006 Ry au, 
 
        Potential amp.        0.0665 Ry
        Total length         54.7057 bohr
 
 
     Adding external electric field

     Computed dipole along edir(3) : 
        Dipole               -1.0134 Ry au,         -2.5759 Debye
        Dipole field         -0.0006 Ry au, 
 
        Potential amp.        0.0665 Ry
        Total length         54.7057 bohr
 

     total cpu time spent up to now is      334.8 secs

     total energy              =   -8078.53489288 Ry
     estimated scf accuracy    <       0.47103719 Ry

     total magnetization       =    97.69 Bohr mag/cell
     absolute magnetization    =   100.56 Bohr mag/cell

     iteration # 22     ecut=    50.00 Ry     beta= 0.10
     Davidson diagonalization with overlap
     ethr =  4.25E-05,  avg # of iterations =  2.0

     negative rho (up, down):  1.009E-03 5.805E-04
 
     Adding external electric field

     Computed dipole along edir(3) : 
        Dipole               -1.0125 Ry au,         -2.5735 Debye
        Dipole field         -0.0006 Ry au, 
 
        Potential amp.        0.0664 Ry
        Total length         54.7057 bohr
 
 
     Adding external electric field

     Computed dipole along edir(3) : 
        Dipole               -1.0125 Ry au,         -2.5735 Debye
        Dipole field         -0.0006 Ry au, 
 
        Potential amp.        0.0664 Ry
        Total length         54.7057 bohr
 

     total cpu time spent up to now is      349.1 secs

     total energy              =   -8078.54636207 Ry
     estimated scf accuracy    <       0.36458335 Ry

     total magnetization       =    98.01 Bohr mag/cell
     absolute magnetization    =   100.02 Bohr mag/cell

     iteration # 23     ecut=    50.00 Ry     beta= 0.10
     Davidson diagonalization with overlap
     ethr =  3.29E-05,  avg # of iterations =  1.0

     negative rho (up, down):  2.941E-03 2.079E-03
 
     Adding external electric field

     Computed dipole along edir(3) : 
        Dipole               -0.9888 Ry au,         -2.5132 Debye
        Dipole field         -0.0006 Ry au, 
 
        Potential amp.        0.0649 Ry
        Total length         54.7057 bohr
 
 
     Adding external electric field

     Computed dipole along edir(3) : 
        Dipole               -0.9888 Ry au,         -2.5132 Debye
        Dipole field         -0.0006 Ry au, 
 
        Potential amp.        0.0649 Ry
        Total length         54.7057 bohr
 

     total cpu time spent up to now is      361.3 secs

     total energy              =   -8078.54895749 Ry
     estimated scf accuracy    <       0.39470200 Ry

     total magnetization       =    98.21 Bohr mag/cell
     absolute magnetization    =   100.14 Bohr mag/cell

     iteration # 24     ecut=    50.00 Ry     beta= 0.10
     Davidson diagonalization with overlap
     ethr =  3.29E-05,  avg # of iterations =  1.5

     negative rho (up, down):  1.429E-03 7.828E-04
 
     Adding external electric field

     Computed dipole along edir(3) : 
        Dipole               -0.9896 Ry au,         -2.5153 Debye
        Dipole field         -0.0006 Ry au, 
 
        Potential amp.        0.0649 Ry
        Total length         54.7057 bohr
 
 
     Adding external electric field

     Computed dipole along edir(3) : 
        Dipole               -0.9896 Ry au,         -2.5153 Debye
        Dipole field         -0.0006 Ry au, 
 
        Potential amp.        0.0649 Ry
        Total length         54.7057 bohr
 

     total cpu time spent up to now is      374.0 secs

     total energy              =   -8078.54227990 Ry
     estimated scf accuracy    <       0.46608628 Ry

     total magnetization       =    97.69 Bohr mag/cell
     absolute magnetization    =    99.32 Bohr mag/cell

     iteration # 25     ecut=    50.00 Ry     beta= 0.10
     Davidson diagonalization with overlap
     ethr =  3.29E-05,  avg # of iterations =  2.0

     negative rho (up, down):  2.573E-03 2.157E-03
 
     Adding external electric field

     Computed dipole along edir(3) : 
        Dipole               -0.8463 Ry au,         -2.1511 Debye
        Dipole field         -0.0005 Ry au, 
 
        Potential amp.        0.0555 Ry
        Total length         54.7057 bohr
 
 
     Adding external electric field

     Computed dipole along edir(3) : 
        Dipole               -0.8463 Ry au,         -2.1511 Debye
        Dipole field         -0.0005 Ry au, 
 
        Potential amp.        0.0555 Ry
        Total length         54.7057 bohr
 

     total cpu time spent up to now is      387.5 secs

     total energy              =   -8078.55655737 Ry
     estimated scf accuracy    <       0.20832694 Ry

     total magnetization       =    98.58 Bohr mag/cell
     absolute magnetization    =   100.06 Bohr mag/cell

     iteration # 26     ecut=    50.00 Ry     beta= 0.10
     Davidson diagonalization with overlap
     ethr =  1.88E-05,  avg # of iterations =  2.0

     negative rho (up, down):  1.454E-03 1.397E-03
 
     Adding external electric field

     Computed dipole along edir(3) : 
        Dipole               -0.8241 Ry au,         -2.0947 Debye
        Dipole field         -0.0005 Ry au, 
 
        Potential amp.        0.0541 Ry
        Total length         54.7057 bohr
 
 
     Adding external electric field

     Computed dipole along edir(3) : 
        Dipole               -0.8241 Ry au,         -2.0947 Debye
        Dipole field         -0.0005 Ry au, 
 
        Potential amp.        0.0541 Ry
        Total length         54.7057 bohr
 

     total cpu time spent up to now is      401.2 secs

     total energy              =   -8078.56473614 Ry
     estimated scf accuracy    <       0.14202872 Ry

     total magnetization       =    97.42 Bohr mag/cell
     absolute magnetization    =    98.50 Bohr mag/cell

     iteration # 27     ecut=    50.00 Ry     beta= 0.10
     Davidson diagonalization with overlap
     ethr =  1.28E-05,  avg # of iterations =  1.5

     negative rho (up, down):  1.620E-03 1.659E-03
 
     Adding external electric field

     Computed dipole along edir(3) : 
        Dipole               -0.8033 Ry au,         -2.0419 Debye
        Dipole field         -0.0005 Ry au, 
 
        Potential amp.        0.0527 Ry
        Total length         54.7057 bohr
 
 
     Adding external electric field

     Computed dipole along edir(3) : 
        Dipole               -0.8033 Ry au,         -2.0419 Debye
        Dipole field         -0.0005 Ry au, 
 
        Potential amp.        0.0527 Ry
        Total length         54.7057 bohr
 

     total cpu time spent up to now is      414.0 secs

     total energy              =   -8078.56667772 Ry
     estimated scf accuracy    <       0.12157105 Ry

     total magnetization       =    97.84 Bohr mag/cell
     absolute magnetization    =    98.93 Bohr mag/cell

     iteration # 28     ecut=    50.00 Ry     beta= 0.10
     Davidson diagonalization with overlap
     ethr =  1.10E-05,  avg # of iterations =  2.0

     negative rho (up, down):  1.604E-03 1.678E-03
 
     Adding external electric field

     Computed dipole along edir(3) : 
        Dipole               -0.8129 Ry au,         -2.0663 Debye
        Dipole field         -0.0005 Ry au, 
 
        Potential amp.        0.0533 Ry
        Total length         54.7057 bohr
 
 
     Adding external electric field

     Computed dipole along edir(3) : 
        Dipole               -0.8129 Ry au,         -2.0663 Debye
        Dipole field         -0.0005 Ry au, 
 
        Potential amp.        0.0533 Ry
        Total length         54.7057 bohr
 

     total cpu time spent up to now is      427.6 secs

     total energy              =   -8078.56766892 Ry
     estimated scf accuracy    <       0.13259390 Ry

     total magnetization       =    98.02 Bohr mag/cell
     absolute magnetization    =    99.05 Bohr mag/cell

     iteration # 29     ecut=    50.00 Ry     beta= 0.10
     Davidson diagonalization with overlap
     ethr =  1.10E-05,  avg # of iterations =  1.5

     negative rho (up, down):  1.467E-03 1.543E-03
 
     Adding external electric field

     Computed dipole along edir(3) : 
        Dipole               -0.8149 Ry au,         -2.0713 Debye
        Dipole field         -0.0005 Ry au, 
 
        Potential amp.        0.0534 Ry
        Total length         54.7057 bohr
 
 
     Adding external electric field

     Computed dipole along edir(3) : 
        Dipole               -0.8149 Ry au,         -2.0713 Debye
        Dipole field         -0.0005 Ry au, 
 
        Potential amp.        0.0534 Ry
        Total length         54.7057 bohr
 

     total cpu time spent up to now is      440.4 secs

     total energy              =   -8078.56795260 Ry
     estimated scf accuracy    <       0.12531832 Ry

     total magnetization       =    97.99 Bohr mag/cell
     absolute magnetization    =    99.03 Bohr mag/cell

     iteration # 30     ecut=    50.00 Ry     beta= 0.10
     Davidson diagonalization with overlap
     ethr =  1.10E-05,  avg # of iterations =  2.0

     negative rho (up, down):  1.912E-03 1.759E-03
 
     Adding external electric field

     Computed dipole along edir(3) : 
        Dipole               -0.8201 Ry au,         -2.0844 Debye
        Dipole field         -0.0005 Ry au, 
 
        Potential amp.        0.0538 Ry
        Total length         54.7057 bohr
 
 
     Adding external electric field

     Computed dipole along edir(3) : 
        Dipole               -0.8201 Ry au,         -2.0844 Debye
        Dipole field         -0.0005 Ry au, 
 
        Potential amp.        0.0538 Ry
        Total length         54.7057 bohr
 

     total cpu time spent up to now is      453.9 secs

     total energy              =   -8078.56522621 Ry
     estimated scf accuracy    <       0.13146365 Ry

     total magnetization       =    98.00 Bohr mag/cell
     absolute magnetization    =    99.08 Bohr mag/cell

     iteration # 31     ecut=    50.00 Ry     beta= 0.10
     Davidson diagonalization with overlap
     ethr =  1.10E-05,  avg # of iterations = 19.0

     negative rho (up, down):  1.559E-03 1.535E-03
 
     Adding external electric field

     Computed dipole along edir(3) : 
        Dipole               -0.8118 Ry au,         -2.0633 Debye
        Dipole field         -0.0005 Ry au, 
 
        Potential amp.        0.0532 Ry
        Total length         54.7057 bohr
 
 
     Adding external electric field

     Computed dipole along edir(3) : 
        Dipole               -0.8118 Ry au,         -2.0633 Debye
        Dipole field         -0.0005 Ry au, 
 
        Potential amp.        0.0532 Ry
        Total length         54.7057 bohr
 

     total cpu time spent up to now is      481.2 secs

     total energy              =   -8078.56657973 Ry
     estimated scf accuracy    <       0.12601306 Ry

     total magnetization       =    97.93 Bohr mag/cell
     absolute magnetization    =    98.95 Bohr mag/cell

     iteration # 32     ecut=    50.00 Ry     beta= 0.10
     Davidson diagonalization with overlap
     ethr =  1.10E-05,  avg # of iterations =  2.0

     negative rho (up, down):  1.512E-03 1.504E-03
 
     Adding external electric field

     Computed dipole along edir(3) : 
        Dipole               -0.8144 Ry au,         -2.0700 Debye
        Dipole field         -0.0005 Ry au, 
 
        Potential amp.        0.0534 Ry
        Total length         54.7057 bohr
 
 
     Adding external electric field

     Computed dipole along edir(3) : 
        Dipole               -0.8144 Ry au,         -2.0700 Debye
        Dipole field         -0.0005 Ry au, 
 
        Potential amp.        0.0534 Ry
        Total length         54.7057 bohr
 

     total cpu time spent up to now is      494.7 secs

     total energy              =   -8078.56622836 Ry
     estimated scf accuracy    <       0.11308152 Ry

     total magnetization       =    97.83 Bohr mag/cell
     absolute magnetization    =    98.85 Bohr mag/cell

     iteration # 33     ecut=    50.00 Ry     beta= 0.10
     Davidson diagonalization with overlap
     ethr =  1.02E-05,  avg # of iterations =  2.0

     negative rho (up, down):  1.718E-03 1.829E-03
 
     Adding external electric field

     Computed dipole along edir(3) : 
        Dipole               -0.8355 Ry au,         -2.1238 Debye
        Dipole field         -0.0005 Ry au, 
 
        Potential amp.        0.0548 Ry
        Total length         54.7057 bohr
 
 
     Adding external electric field

     Computed dipole along edir(3) : 
        Dipole               -0.8355 Ry au,         -2.1238 Debye
        Dipole field         -0.0005 Ry au, 
 
        Potential amp.        0.0548 Ry
        Total length         54.7057 bohr
 

     total cpu time spent up to now is      508.3 secs

     total energy              =   -8078.56480555 Ry
     estimated scf accuracy    <       0.11062047 Ry

     total magnetization       =    97.77 Bohr mag/cell
     absolute magnetization    =    98.78 Bohr mag/cell

     iteration # 34     ecut=    50.00 Ry     beta= 0.10
     Davidson diagonalization with overlap
     ethr =  9.98E-06,  avg # of iterations =  2.0

     negative rho (up, down):  1.563E-03 1.690E-03
 
     Adding external electric field

     Computed dipole along edir(3) : 
        Dipole               -0.8132 Ry au,         -2.0669 Debye
        Dipole field         -0.0005 Ry au, 
 
        Potential amp.        0.0533 Ry
        Total length         54.7057 bohr
 
 
     Adding external electric field

     Computed dipole along edir(3) : 
        Dipole               -0.8132 Ry au,         -2.0669 Debye
        Dipole field         -0.0005 Ry au, 
 
        Potential amp.        0.0533 Ry
        Total length         54.7057 bohr
 

     total cpu time spent up to now is      521.6 secs

     total energy              =   -8078.56506934 Ry
     estimated scf accuracy    <       0.12629262 Ry

     total magnetization       =    97.63 Bohr mag/cell
     absolute magnetization    =    98.65 Bohr mag/cell

     iteration # 35     ecut=    50.00 Ry     beta= 0.10
     Davidson diagonalization with overlap
     ethr =  9.98E-06,  avg # of iterations =  1.5

     negative rho (up, down):  3.052E-03 3.036E-03
 
     Adding external electric field

     Computed dipole along edir(3) : 
        Dipole               -0.8964 Ry au,         -2.2784 Debye
        Dipole field         -0.0005 Ry au, 
 
        Potential amp.        0.0588 Ry
        Total length         54.7057 bohr
 
 
     Adding external electric field

     Computed dipole along edir(3) : 
        Dipole               -0.8964 Ry au,         -2.2784 Debye
        Dipole field         -0.0005 Ry au, 
 
        Potential amp.        0.0588 Ry
        Total length         54.7057 bohr
 

     total cpu time spent up to now is      534.5 secs

     total energy              =   -8078.56460535 Ry
     estimated scf accuracy    <       0.15263801 Ry

     total magnetization       =    97.63 Bohr mag/cell
     absolute magnetization    =    98.65 Bohr mag/cell

     iteration # 36     ecut=    50.00 Ry     beta= 0.10
     Davidson diagonalization with overlap
     ethr =  9.98E-06,  avg # of iterations =  2.0

     negative rho (up, down):  1.818E-03 1.947E-03
 
     Adding external electric field

     Computed dipole along edir(3) : 
        Dipole               -1.0087 Ry au,         -2.5639 Debye
        Dipole field         -0.0006 Ry au, 
 
        Potential amp.        0.0662 Ry
        Total length         54.7057 bohr
 
 
     Adding external electric field

     Computed dipole along edir(3) : 
        Dipole               -1.0087 Ry au,         -2.5639 Debye
        Dipole field         -0.0006 Ry au, 
 
        Potential amp.        0.0662 Ry
        Total length         54.7057 bohr
 

     total cpu time spent up to now is      548.2 secs

     total energy              =   -8078.56227722 Ry
     estimated scf accuracy    <       0.15262259 Ry

     total magnetization       =    97.50 Bohr mag/cell
     absolute magnetization    =    98.52 Bohr mag/cell

     iteration # 37     ecut=    50.00 Ry     beta= 0.10
     Davidson diagonalization with overlap
     ethr =  9.98E-06,  avg # of iterations =  2.0

     negative rho (up, down):  2.907E-03 2.992E-03
 
     Adding external electric field

     Computed dipole along edir(3) : 
        Dipole               -1.0812 Ry au,         -2.7481 Debye
        Dipole field         -0.0006 Ry au, 
 
        Potential amp.        0.0709 Ry
        Total length         54.7057 bohr
 
 
     Adding external electric field

     Computed dipole along edir(3) : 
        Dipole               -1.0812 Ry au,         -2.7481 Debye
        Dipole field         -0.0006 Ry au, 
 
        Potential amp.        0.0709 Ry
        Total length         54.7057 bohr
 

     total cpu time spent up to now is      561.9 secs

     total energy              =   -8078.56823104 Ry
     estimated scf accuracy    <       0.11516057 Ry

     total magnetization       =    97.95 Bohr mag/cell
     absolute magnetization    =    98.88 Bohr mag/cell

     iteration # 38     ecut=    50.00 Ry     beta= 0.10
     Davidson diagonalization with overlap
     ethr =  9.98E-06,  avg # of iterations =  2.0

     negative rho (up, down):  2.548E-03 2.357E-03
 
     Adding external electric field

     Computed dipole along edir(3) : 
        Dipole               -1.0467 Ry au,         -2.6604 Debye
        Dipole field         -0.0006 Ry au, 
 
        Potential amp.        0.0687 Ry
        Total length         54.7057 bohr
 
 
     Adding external electric field

     Computed dipole along edir(3) : 
        Dipole               -1.0467 Ry au,         -2.6604 Debye
        Dipole field         -0.0006 Ry au, 
 
        Potential amp.        0.0687 Ry
        Total length         54.7057 bohr
 

     total cpu time spent up to now is      575.1 secs

     total energy              =   -8078.56965813 Ry
     estimated scf accuracy    <       0.10613532 Ry

     total magnetization       =    97.93 Bohr mag/cell
     absolute magnetization    =    98.87 Bohr mag/cell

     iteration # 39     ecut=    50.00 Ry     beta= 0.10
     Davidson diagonalization with overlap
     ethr =  9.58E-06,  avg # of iterations =  2.0

     negative rho (up, down):  5.386E-03 5.227E-03
 
     Adding external electric field

     Computed dipole along edir(3) : 
        Dipole               -1.0566 Ry au,         -2.6855 Debye
        Dipole field         -0.0006 Ry au, 
 
        Potential amp.        0.0693 Ry
        Total length         54.7057 bohr
 
 
     Adding external electric field

     Computed dipole along edir(3) : 
        Dipole               -1.0566 Ry au,         -2.6855 Debye
        Dipole field         -0.0006 Ry au, 
 
        Potential amp.        0.0693 Ry
        Total length         54.7057 bohr
 

     total cpu time spent up to now is      588.4 secs

     total energy              =   -8078.55870382 Ry
     estimated scf accuracy    <       0.11140366 Ry

     total magnetization       =    98.01 Bohr mag/cell
     absolute magnetization    =    99.04 Bohr mag/cell

     iteration # 40     ecut=    50.00 Ry     beta= 0.10
     Davidson diagonalization with overlap
     ethr =  9.58E-06,  avg # of iterations =  1.5

     negative rho (up, down):  1.140E-03 1.429E-03
 
     Adding external electric field

     Computed dipole along edir(3) : 
        Dipole               -1.0502 Ry au,         -2.6692 Debye
        Dipole field         -0.0006 Ry au, 
 
        Potential amp.        0.0689 Ry
        Total length         54.7057 bohr
 
 
     Adding external electric field

     Computed dipole along edir(3) : 
        Dipole               -1.0502 Ry au,         -2.6692 Debye
        Dipole field         -0.0006 Ry au, 
 
        Potential amp.        0.0689 Ry
        Total length         54.7057 bohr
 

     total cpu time spent up to now is      601.6 secs

     total energy              =   -8078.57106537 Ry
     estimated scf accuracy    <       0.11383081 Ry

     total magnetization       =    98.03 Bohr mag/cell
     absolute magnetization    =    98.82 Bohr mag/cell

     iteration # 41     ecut=    50.00 Ry     beta= 0.10
     Davidson diagonalization with overlap
     ethr =  9.58E-06,  avg # of iterations =  2.0

     negative rho (up, down):  1.419E-03 1.630E-03
 
     Adding external electric field

     Computed dipole along edir(3) : 
        Dipole               -1.0677 Ry au,         -2.7138 Debye
        Dipole field         -0.0006 Ry au, 
 
        Potential amp.        0.0700 Ry
        Total length         54.7057 bohr
 
 
     Adding external electric field

     Computed dipole along edir(3) : 
        Dipole               -1.0677 Ry au,         -2.7138 Debye
        Dipole field         -0.0006 Ry au, 
 
        Potential amp.        0.0700 Ry
        Total length         54.7057 bohr
 

     total cpu time spent up to now is      615.2 secs

     total energy              =   -8078.57242131 Ry
     estimated scf accuracy    <       0.11762500 Ry

     total magnetization       =    97.75 Bohr mag/cell
     absolute magnetization    =    98.68 Bohr mag/cell

     iteration # 42     ecut=    50.00 Ry     beta= 0.10
     Davidson diagonalization with overlap
     ethr =  9.58E-06,  avg # of iterations =  1.0

     negative rho (up, down):  2.868E-03 3.370E-03
 
     Adding external electric field

     Computed dipole along edir(3) : 
        Dipole               -1.0606 Ry au,         -2.6958 Debye
        Dipole field         -0.0006 Ry au, 
 
        Potential amp.        0.0696 Ry
        Total length         54.7057 bohr
 
 
     Adding external electric field

     Computed dipole along edir(3) : 
        Dipole               -1.0606 Ry au,         -2.6958 Debye
        Dipole field         -0.0006 Ry au, 
 
        Potential amp.        0.0696 Ry
        Total length         54.7057 bohr
 

     total cpu time spent up to now is      627.0 secs

     total energy              =   -8078.56333212 Ry
     estimated scf accuracy    <       0.11626120 Ry

     total magnetization       =    97.79 Bohr mag/cell
     absolute magnetization    =    98.79 Bohr mag/cell

     iteration # 43     ecut=    50.00 Ry     beta= 0.10
     Davidson diagonalization with overlap
     ethr =  9.58E-06,  avg # of iterations =  2.0

     negative rho (up, down):  2.836E-03 3.323E-03
 
     Adding external electric field

     Computed dipole along edir(3) : 
        Dipole               -1.1602 Ry au,         -2.9490 Debye
        Dipole field         -0.0007 Ry au, 
 
        Potential amp.        0.0761 Ry
        Total length         54.7057 bohr
 
 
     Adding external electric field

     Computed dipole along edir(3) : 
        Dipole               -1.1602 Ry au,         -2.9490 Debye
        Dipole field         -0.0007 Ry au, 
 
        Potential amp.        0.0761 Ry
        Total length         54.7057 bohr
 

     total cpu time spent up to now is      640.7 secs

     total energy              =   -8078.56927199 Ry
     estimated scf accuracy    <       0.09484678 Ry

     total magnetization       =    97.67 Bohr mag/cell
     absolute magnetization    =    98.62 Bohr mag/cell

     iteration # 44     ecut=    50.00 Ry     beta= 0.10
     Davidson diagonalization with overlap
     ethr =  8.56E-06,  avg # of iterations =  1.5

     negative rho (up, down):  2.976E-03 3.356E-03
 
     Adding external electric field

     Computed dipole along edir(3) : 
        Dipole               -0.8650 Ry au,         -2.1987 Debye
        Dipole field         -0.0005 Ry au, 
 
        Potential amp.        0.0567 Ry
        Total length         54.7057 bohr
 
 
     Adding external electric field

     Computed dipole along edir(3) : 
        Dipole               -0.8650 Ry au,         -2.1987 Debye
        Dipole field         -0.0005 Ry au, 
 
        Potential amp.        0.0567 Ry
        Total length         54.7057 bohr
 

     total cpu time spent up to now is      653.6 secs

     total energy              =   -8078.55403155 Ry
     estimated scf accuracy    <       0.10829614 Ry

     total magnetization       =    97.74 Bohr mag/cell
     absolute magnetization    =    98.67 Bohr mag/cell

     iteration # 45     ecut=    50.00 Ry     beta= 0.10
     Davidson diagonalization with overlap
     ethr =  8.56E-06,  avg # of iterations =  3.0

     negative rho (up, down):  2.743E-03 3.120E-03
 
     Adding external electric field

     Computed dipole along edir(3) : 
        Dipole               -0.8964 Ry au,         -2.2784 Debye
        Dipole field         -0.0005 Ry au, 
 
        Potential amp.        0.0588 Ry
        Total length         54.7057 bohr
 
 
     Adding external electric field

     Computed dipole along edir(3) : 
        Dipole               -0.8964 Ry au,         -2.2784 Debye
        Dipole field         -0.0005 Ry au, 
 
        Potential amp.        0.0588 Ry
        Total length         54.7057 bohr
 

     total cpu time spent up to now is      667.8 secs

     total energy              =   -8078.56300856 Ry
     estimated scf accuracy    <       0.36657324 Ry

     total magnetization       =    96.89 Bohr mag/cell
     absolute magnetization    =    97.92 Bohr mag/cell

     iteration # 46     ecut=    50.00 Ry     beta= 0.10
     Davidson diagonalization with overlap
     ethr =  8.56E-06,  avg # of iterations =  1.0

     negative rho (up, down):  3.047E-03 3.560E-03
 
     Adding external electric field

     Computed dipole along edir(3) : 
        Dipole               -0.9755 Ry au,         -2.4794 Debye
        Dipole field         -0.0006 Ry au, 
 
        Potential amp.        0.0640 Ry
        Total length         54.7057 bohr
 
 
     Adding external electric field

     Computed dipole along edir(3) : 
        Dipole               -0.9755 Ry au,         -2.4794 Debye
        Dipole field         -0.0006 Ry au, 
 
        Potential amp.        0.0640 Ry
        Total length         54.7057 bohr
 

     total cpu time spent up to now is      679.5 secs

     total energy              =   -8078.55959122 Ry
     estimated scf accuracy    <       0.25450429 Ry

     total magnetization       =    97.07 Bohr mag/cell
     absolute magnetization    =    98.08 Bohr mag/cell

     iteration # 47     ecut=    50.00 Ry     beta= 0.10
     Davidson diagonalization with overlap
     ethr =  8.56E-06,  avg # of iterations =  2.0

     negative rho (up, down):  3.272E-03 3.606E-03
 
     Adding external electric field

     Computed dipole along edir(3) : 
        Dipole               -0.9787 Ry au,         -2.4877 Debye
        Dipole field         -0.0006 Ry au, 
 
        Potential amp.        0.0642 Ry
        Total length         54.7057 bohr
 
 
     Adding external electric field

     Computed dipole along edir(3) : 
        Dipole               -0.9787 Ry au,         -2.4877 Debye
        Dipole field         -0.0006 Ry au, 
 
        Potential amp.        0.0642 Ry
        Total length         54.7057 bohr
 

     total cpu time spent up to now is      693.2 secs

     total energy              =   -8078.56265063 Ry
     estimated scf accuracy    <       0.11600641 Ry

     total magnetization       =    97.57 Bohr mag/cell
     absolute magnetization    =    98.55 Bohr mag/cell

     iteration # 48     ecut=    50.00 Ry     beta= 0.10
     Davidson diagonalization with overlap
     ethr =  8.56E-06,  avg # of iterations =  1.0

     negative rho (up, down):  3.069E-03 3.295E-03
 
     Adding external electric field

     Computed dipole along edir(3) : 
        Dipole               -0.9851 Ry au,         -2.5039 Debye
        Dipole field         -0.0006 Ry au, 
 
        Potential amp.        0.0646 Ry
        Total length         54.7057 bohr
 
 
     Adding external electric field

     Computed dipole along edir(3) : 
        Dipole               -0.9851 Ry au,         -2.5039 Debye
        Dipole field         -0.0006 Ry au, 
 
        Potential amp.        0.0646 Ry
        Total length         54.7057 bohr
 

     total cpu time spent up to now is      705.2 secs

     total energy              =   -8078.56512969 Ry
     estimated scf accuracy    <       0.08643938 Ry

     total magnetization       =    97.53 Bohr mag/cell
     absolute magnetization    =    98.49 Bohr mag/cell

     iteration # 49     ecut=    50.00 Ry     beta= 0.10
     Davidson diagonalization with overlap
     ethr =  7.80E-06,  avg # of iterations =  2.0

     negative rho (up, down):  3.012E-04 3.208E-04
 
     Adding external electric field

     Computed dipole along edir(3) : 
        Dipole               -0.9435 Ry au,         -2.3981 Debye
        Dipole field         -0.0006 Ry au, 
 
        Potential amp.        0.0619 Ry
        Total length         54.7057 bohr
 
 
     Adding external electric field

     Computed dipole along edir(3) : 
        Dipole               -0.9435 Ry au,         -2.3981 Debye
        Dipole field         -0.0006 Ry au, 
 
        Potential amp.        0.0619 Ry
        Total length         54.7057 bohr
 

     total cpu time spent up to now is      719.0 secs

     total energy              =   -8078.56557185 Ry
     estimated scf accuracy    <       0.08054966 Ry

     total magnetization       =    97.56 Bohr mag/cell
     absolute magnetization    =    98.53 Bohr mag/cell

     iteration # 50     ecut=    50.00 Ry     beta= 0.10
     Davidson diagonalization with overlap
     ethr =  7.27E-06,  avg # of iterations =  1.5

     negative rho (up, down):  5.965E-04 6.163E-04
 
     Adding external electric field

     Computed dipole along edir(3) : 
        Dipole               -0.9537 Ry au,         -2.4241 Debye
        Dipole field         -0.0006 Ry au, 
 
        Potential amp.        0.0626 Ry
        Total length         54.7057 bohr
 
 
     Adding external electric field

     Computed dipole along edir(3) : 
        Dipole               -0.9537 Ry au,         -2.4241 Debye
        Dipole field         -0.0006 Ry au, 
 
        Potential amp.        0.0626 Ry
        Total length         54.7057 bohr
 

     total cpu time spent up to now is      731.9 secs

     total energy              =   -8078.56670376 Ry
     estimated scf accuracy    <       0.07994900 Ry

     total magnetization       =    97.66 Bohr mag/cell
     absolute magnetization    =    98.91 Bohr mag/cell

     iteration # 51     ecut=    50.00 Ry     beta= 0.10
     Davidson diagonalization with overlap
     ethr =  7.22E-06,  avg # of iterations =  2.0

     negative rho (up, down):  3.476E-04 3.052E-04
 
     Adding external electric field

     Computed dipole along edir(3) : 
        Dipole               -0.8456 Ry au,         -2.1492 Debye
        Dipole field         -0.0005 Ry au, 
 
        Potential amp.        0.0555 Ry
        Total length         54.7057 bohr
 
 
     Adding external electric field

     Computed dipole along edir(3) : 
        Dipole               -0.8456 Ry au,         -2.1492 Debye
        Dipole field         -0.0005 Ry au, 
 
        Potential amp.        0.0555 Ry
        Total length         54.7057 bohr
 

     total cpu time spent up to now is      745.6 secs

     total energy              =   -8078.56495190 Ry
     estimated scf accuracy    <       0.07731423 Ry

     total magnetization       =    97.79 Bohr mag/cell
     absolute magnetization    =    98.92 Bohr mag/cell

     iteration # 52     ecut=    50.00 Ry     beta= 0.10
     Davidson diagonalization with overlap
     ethr =  6.98E-06,  avg # of iterations =  2.0

     negative rho (up, down):  2.764E-03 2.481E-03
 
     Adding external electric field

     Computed dipole along edir(3) : 
        Dipole               -1.0202 Ry au,         -2.5931 Debye
        Dipole field         -0.0006 Ry au, 
 
        Potential amp.        0.0669 Ry
        Total length         54.7057 bohr
 
 
     Adding external electric field

     Computed dipole along edir(3) : 
        Dipole               -1.0202 Ry au,         -2.5931 Debye
        Dipole field         -0.0006 Ry au, 
 
        Potential amp.        0.0669 Ry
        Total length         54.7057 bohr
 

     total cpu time spent up to now is      759.2 secs

     total energy              =   -8078.56289249 Ry
     estimated scf accuracy    <       0.08126269 Ry

     total magnetization       =    97.79 Bohr mag/cell
     absolute magnetization    =    98.84 Bohr mag/cell

     iteration # 53     ecut=    50.00 Ry     beta= 0.10
     Davidson diagonalization with overlap
     ethr =  6.98E-06,  avg # of iterations =  2.0

     negative rho (up, down):  4.869E-04 4.753E-04
 
     Adding external electric field

     Computed dipole along edir(3) : 
        Dipole               -1.0120 Ry au,         -2.5722 Debye
        Dipole field         -0.0006 Ry au, 
 
        Potential amp.        0.0664 Ry
        Total length         54.7057 bohr
 
 
     Adding external electric field

     Computed dipole along edir(3) : 
        Dipole               -1.0120 Ry au,         -2.5722 Debye
        Dipole field         -0.0006 Ry au, 
 
        Potential amp.        0.0664 Ry
        Total length         54.7057 bohr
 

     total cpu time spent up to now is      772.9 secs

     total energy              =   -8078.57015902 Ry
     estimated scf accuracy    <       0.07501345 Ry

     total magnetization       =    97.88 Bohr mag/cell
     absolute magnetization    =    98.87 Bohr mag/cell

     iteration # 54     ecut=    50.00 Ry     beta= 0.10
     Davidson diagonalization with overlap
     ethr =  6.77E-06,  avg # of iterations =  2.0

     negative rho (up, down):  7.133E-04 6.191E-04
 
     Adding external electric field

     Computed dipole along edir(3) : 
        Dipole               -0.8051 Ry au,         -2.0463 Debye
        Dipole field         -0.0005 Ry au, 
 
        Potential amp.        0.0528 Ry
        Total length         54.7057 bohr
 
 
     Adding external electric field

     Computed dipole along edir(3) : 
        Dipole               -0.8051 Ry au,         -2.0463 Debye
        Dipole field         -0.0005 Ry au, 
 
        Potential amp.        0.0528 Ry
        Total length         54.7057 bohr
 

     total cpu time spent up to now is      786.7 secs

     total energy              =   -8078.56059202 Ry
     estimated scf accuracy    <       0.09383154 Ry

     total magnetization       =    97.85 Bohr mag/cell
     absolute magnetization    =    98.89 Bohr mag/cell

     iteration # 55     ecut=    50.00 Ry     beta= 0.10
     Davidson diagonalization with overlap
     ethr =  6.77E-06,  avg # of iterations =  2.5

     negative rho (up, down):  1.911E-03 1.765E-03
 
     Adding external electric field

     Computed dipole along edir(3) : 
        Dipole               -0.8172 Ry au,         -2.0772 Debye
        Dipole field         -0.0005 Ry au, 
 
        Potential amp.        0.0536 Ry
        Total length         54.7057 bohr
 
 
     Adding external electric field

     Computed dipole along edir(3) : 
        Dipole               -0.8172 Ry au,         -2.0772 Debye
        Dipole field         -0.0005 Ry au, 
 
        Potential amp.        0.0536 Ry
        Total length         54.7057 bohr
 

     total cpu time spent up to now is      800.7 secs

     total energy              =   -8078.56475620 Ry
     estimated scf accuracy    <       0.13231754 Ry

     total magnetization       =    97.47 Bohr mag/cell
     absolute magnetization    =    98.57 Bohr mag/cell

     iteration # 56     ecut=    50.00 Ry     beta= 0.10
     Davidson diagonalization with overlap
     ethr =  6.77E-06,  avg # of iterations =  2.0

     negative rho (up, down):  1.022E-03 8.669E-04
 
     Adding external electric field

     Computed dipole along edir(3) : 
        Dipole               -0.8288 Ry au,         -2.1066 Debye
        Dipole field         -0.0005 Ry au, 
 
        Potential amp.        0.0544 Ry
        Total length         54.7057 bohr
 
 
     Adding external electric field

     Computed dipole along edir(3) : 
        Dipole               -0.8288 Ry au,         -2.1066 Debye
        Dipole field         -0.0005 Ry au, 
 
        Potential amp.        0.0544 Ry
        Total length         54.7057 bohr
 

     total cpu time spent up to now is      814.5 secs

     total energy              =   -8078.56083752 Ry
     estimated scf accuracy    <       0.32645614 Ry

     total magnetization       =    97.11 Bohr mag/cell
     absolute magnetization    =    98.23 Bohr mag/cell

     iteration # 57     ecut=    50.00 Ry     beta= 0.10
     Davidson diagonalization with overlap
     ethr =  6.77E-06,  avg # of iterations =  1.0

     negative rho (up, down):  3.348E-03 3.087E-03
 
     Adding external electric field

     Computed dipole along edir(3) : 
        Dipole               -0.9560 Ry au,         -2.4298 Debye
        Dipole field         -0.0006 Ry au, 
 
        Potential amp.        0.0627 Ry
        Total length         54.7057 bohr
 
 
     Adding external electric field

     Computed dipole along edir(3) : 
        Dipole               -0.9560 Ry au,         -2.4298 Debye
        Dipole field         -0.0006 Ry au, 
 
        Potential amp.        0.0627 Ry
        Total length         54.7057 bohr
 

     total cpu time spent up to now is      826.7 secs

     total energy              =   -8078.56006358 Ry
     estimated scf accuracy    <       0.09762018 Ry

     total magnetization       =    97.63 Bohr mag/cell
     absolute magnetization    =    98.70 Bohr mag/cell

     iteration # 58     ecut=    50.00 Ry     beta= 0.10
     Davidson diagonalization with overlap
     ethr =  6.77E-06,  avg # of iterations =  2.0

     negative rho (up, down):  3.798E-03 3.680E-03
 
     Adding external electric field

     Computed dipole along edir(3) : 
        Dipole               -0.9515 Ry au,         -2.4185 Debye
        Dipole field         -0.0006 Ry au, 
 
        Potential amp.        0.0624 Ry
        Total length         54.7057 bohr
 
 
     Adding external electric field

[...]
    -6.0012  -5.9856  -5.9641  -5.9458  -5.9014  -5.8892  -5.8764  -5.8560
    -5.8487  -5.8364  -5.8096  -5.7819  -5.7737  -5.7333  -5.7079  -5.6856
    -5.6816  -5.6369  -5.6205  -5.6097  -5.5973  -5.5897  -5.5716  -5.5509
    -5.5372  -5.5147  -5.5072  -5.4844  -5.4827  -5.4792  -5.4449  -5.3761
    -5.3533  -5.3110  -5.2738  -5.2613  -5.2594  -5.2524  -5.2410  -5.1717
    -5.1270  -5.1171  -5.0864  -5.0574  -5.0332  -5.0030  -4.9307  -4.9088
    -4.8808  -4.8283  -4.8220  -4.7999  -4.7944  -4.7556  -4.7426  -4.7059
    -4.6718  -4.6357  -4.5966  -4.5744  -4.5511  -4.4554  -4.4168  -4.4000
    -4.3922  -4.3822  -4.3604  -4.2996  -4.2703  -4.2325  -4.2285  -4.2122
    -4.1873  -4.1668  -4.1194  -4.0617  -4.0428  -3.9980  -3.9919  -3.9664
    -3.9050  -3.8689  -3.8449  -3.8390  -3.8201  -3.7550  -3.7467  -3.7424
    -3.7271  -3.7038  -3.6833  -3.6436  -3.6308  -3.6109  -3.6068  -3.5837
    -3.5470  -3.5358  -3.5289  -3.5143  -3.5039  -3.4912  -3.4568  -3.4337
    -3.4157  -3.3893  -3.3858  -3.3819  -3.3713  -3.3652  -3.3334  -3.3190
    -3.2947  -3.2879  -3.2785  -3.2427  -3.2233  -3.1998  -3.1715  -3.1528
    -3.1447  -3.0930  -3.0856  -3.0699  -3.0488  -3.0423  -3.0252  -3.0112
    -2.9837  -2.9560  -2.9292  -2.9041  -2.8752  -2.8617  -2.8514  -2.8296
    -2.8087  -2.7905  -2.7302  -2.7185  -2.7126  -2.7004  -2.6969  -2.6843
    -2.6719  -2.6580  -2.6551  -2.6318  -2.6128  -2.6006  -2.5841  -2.5799
    -2.5592  -2.5466  -2.5324  -2.5139  -2.5096  -2.5063  -2.4838  -2.4702
    -2.4392  -2.4233  -2.4063  -2.3919  -2.3816  -2.3443  -2.3423  -2.3209
    -2.3018  -2.2845  -2.2754  -2.2538  -2.2254  -2.2042  -2.1985  -2.1913
    -2.1610  -2.1472  -2.1332  -2.1006  -2.0835  -2.0604  -2.0461  -2.0337
    -2.0151  -1.9978  -1.9817  -1.9753  -1.9591  -1.9203  -1.8948  -1.8888
    -1.8796  -1.8658  -1.8605  -1.8420  -1.8373  -1.8220  -1.8080  -1.8016
    -1.7306  -1.7014  -1.6872  -1.6559  -1.6431  -1.6364  -1.6188  -1.5961
    -1.5947  -1.5888  -1.5738  -1.5413  -1.5346  -1.5262  -1.4831  -1.4518
    -1.4325  -1.4247  -1.3838  -1.3721  -1.3581  -1.3425  -1.3295  -1.3219
    -1.3082  -1.2895  -1.2570  -1.2295  -1.1888  -1.1724  -1.1511  -1.1062
    -1.0799  -1.0283  -1.0149  -1.0050  -0.9969  -0.8524  -0.8298  -0.8093
    -0.7421  -0.6324  -0.6246  -0.5732  -0.4664  -0.4235  -0.2850  -0.2015
     0.1699   0.1821   0.2259   0.2450   0.2527   0.2791   0.2971   0.3093
     0.3281   0.3328   0.3596   0.3677   0.3709   0.3778   0.3889   0.3953
     0.4008   0.4038   0.4183   0.4210   0.4344   0.4454   0.4562   0.4604
     0.4650   0.4706   0.4779   0.4818   0.4954   0.5040   0.5099   0.5217
     0.5240   0.5323   0.5473   0.5611   0.5660   0.5703   0.5873   0.5942
     0.6004   0.6153   0.6226   0.6293   0.6345   0.6436   0.6518   0.6561
     0.6665   0.6700   0.6919   0.6952   0.7099   0.7141   0.7226   0.7310
     0.7328   0.7499   0.7668   0.7702   0.7821   0.7936   0.8000   0.8113
     0.8147   0.8299   0.8404   0.8488   0.8558   0.8608   0.8659   0.8904
     0.8983   0.9521   0.9715   1.0182   1.0317   1.0491   1.1212   1.1405
     1.6790   1.7535   1.7730   1.8019   1.8153   1.8219   1.8322   1.8653
     1.8757   1.8983   1.9281   1.9539   1.9728   1.9871   2.0023   2.0318
     2.0447   2.0773   2.0799   2.1000   2.1012   2.1297   2.1337   2.1624
     2.1718   2.1891   2.1947   2.2065   2.2234   2.2428   2.2681   2.2770
     2.2888   2.2941   2.3208   2.3418   2.3544   2.3722   2.4343   2.4414
     2.4606   2.4736   2.4908   2.5047   2.5208   2.5303   2.5877   2.5954
     2.6093   2.6489   2.6826   2.7940   2.8168   2.8529   2.8591   3.5503
     3.5977   3.6848   3.7481   3.7776   3.8204   3.8256   3.8410   3.8734
     3.8780   3.9334   3.9428   3.9575   3.9927   3.9964   4.0129   4.0283
     4.0608   4.0754   4.0897   4.0990   4.1324   4.1491   4.1626   4.1981
     4.2047   4.2167   4.2414   4.2599   4.3008   4.6002   4.6978   4.7638
     4.7808   4.8500   4.8919   4.9178   4.9721   4.9851   5.0054   5.0559
     5.0705   5.0956   5.1434   5.1650   5.2051   5.2162   5.3852   6.1775
     6.3484   6.4401   6.5713   6.7032   6.7133   6.7506   6.8483   6.8716
     6.9455   6.9615   7.0075   7.0517   7.2177   7.2974   7.3420   7.3594
     7.3806   7.4216   7.4856   7.5147   7.5695   7.5872   7.7055   7.7121
     7.8252   7.8412   7.8862   7.9180   7.9498   7.9906   8.0142   8.0480
     8.0718   8.1011   8.1090   8.1598   8.1932   8.2070   8.2340   8.2818
     8.3009   8.3361   8.3605   8.3648   8.3841   8.4089   8.4223   8.4402
     8.4550   8.4735   8.5262   8.5577   8.5597   8.5745   8.6126   8.6439
     8.6476

     the Fermi energy is     1.6804 ev

!    total energy              =   -8078.55897451 Ry
     estimated scf accuracy    <       0.00000058 Ry
     smearing contrib. (-TS)   =      -0.02331148 Ry
     internal energy E=F+TS    =   -8078.53566303 Ry

     The total energy is F=E-TS. E is the sum of the following terms:
     one-electron contribution =  -94691.70787737 Ry
     hartree contribution      =   47930.40837780 Ry
     xc contribution           =   -2177.39039553 Ry
     ewald contribution        =   40861.92461209 Ry
     Dispersion Correction     =      -1.77039587 Ry
     electric field correction =       0.00001586 Ry

     total magnetization       =    97.44 Bohr mag/cell
     absolute magnetization    =    98.66 Bohr mag/cell

     convergence has been achieved in 122 iterations

     negative rho (up, down):  1.163E-03 6.259E-04

     Forces acting on atoms (cartesian axes, Ry/au):

     atom    1 type  1   force =     0.02427155   -0.01775275    0.02031979
     atom    2 type  1   force =    -0.00192384    0.00034927   -0.00542052
     atom    3 type  2   force =    -0.03029232   -0.01565853   -0.00810955
     atom    4 type  1   force =     0.00188536   -0.00345386   -0.00431156
     atom    5 type  1   force =    -0.00380010    0.00212301   -0.00154517
     atom    6 type  1   force =     0.00244163    0.00757698   -0.00397609
     atom    7 type  1   force =     0.03206272   -0.01960616    0.01813972
     atom    8 type  2   force =    -0.00180980    0.00033212   -0.00900177
     atom    9 type  2   force =    -0.02892673   -0.01532230   -0.00814445
     atom   10 type  1   force =     0.00198649   -0.00322281   -0.00408314
     atom   11 type  1   force =    -0.00340323    0.00249429   -0.00066766
     atom   12 type  1   force =     0.00368065    0.00698137   -0.00349893
     atom   13 type  3   force =     0.00213182    0.00073430   -0.00761927
     atom   14 type  3   force =    -0.02975934    0.04991239   -0.06596357
     atom   15 type  3   force =     0.03465859    0.03760221   -0.05982319
     atom   16 type  3   force =    -0.00441418    0.00309510   -0.00098880
     atom   17 type  4   force =    -0.00199083    0.00138591    0.00290338
     atom   18 type  4   force =    -0.00158353   -0.00518975    0.02733809
     atom   19 type  4   force =     0.00395246    0.00278804    0.02949104
     atom   20 type  4   force =     0.00006020   -0.00269473   -0.00475984
     atom   21 type  4   force =    -0.00296282   -0.00223109    0.00330586
     atom   22 type  4   force =     0.00471387   -0.00325569    0.03419470
     atom   23 type  4   force =    -0.00595603   -0.00103314    0.03235187
     atom   24 type  4   force =     0.00060677   -0.00093057    0.00000243
     atom   25 type  4   force =    -0.00138556    0.00071622    0.00218806
     atom   26 type  4   force =    -0.01452426   -0.02271727   -0.00178463
     atom   27 type  4   force =     0.00184991   -0.00070112    0.00122305
     atom   28 type  4   force =    -0.01766818    0.00338860    0.00123013
     atom   29 type  4   force =     0.02065323   -0.00458324    0.00832568
     atom   30 type  4   force =     0.01239203   -0.03410621    0.00115872
     atom   31 type  4   force =     0.00057520    0.00082732    0.00233539
     atom   32 type  4   force =    -0.00224513    0.00004953    0.00268329
     atom   33 type  3   force =    -0.00053583   -0.00161707   -0.00510053
     atom   34 type  3   force =    -0.03022631    0.05982205   -0.08314861
     atom   35 type  3   force =     0.03460686    0.03340910   -0.05926003
     atom   36 type  3   force =    -0.00386615    0.00470098   -0.00075870
     atom   37 type  4   force =    -0.00106122    0.00137578    0.00318000
     atom   38 type  4   force =    -0.00303128   -0.00559487    0.03292679
     atom   39 type  4   force =     0.00441165    0.00390137    0.02924712
     atom   40 type  4   force =     0.00021028   -0.00321938   -0.00487667
     atom   41 type  4   force =     0.00000726    0.00012677    0.00348504
     atom   42 type  4   force =     0.00541800    0.00031084    0.01992735
     atom   43 type  4   force =    -0.00176089    0.00042987    0.03442992
     atom   44 type  4   force =     0.00085881   -0.00081602    0.00001319
     atom   45 type  4   force =    -0.00022449   -0.00276628    0.00129212
     atom   46 type  4   force =    -0.01511106   -0.02036797   -0.00044425
     atom   47 type  4   force =     0.00197507   -0.00059379    0.00130200
     atom   48 type  4   force =    -0.01802300    0.00401787    0.00166239
     atom   49 type  4   force =     0.01646385   -0.00276138    0.00503321
     atom   50 type  4   force =     0.01178652   -0.03679005    0.00439384
     atom   51 type  4   force =     0.00111712    0.00081641    0.00173148
     atom   52 type  4   force =     0.00083520   -0.00225212    0.00365674
     atom   53 type  1   force =     0.00148253    0.00071953   -0.00059620
     atom   54 type  1   force =     0.00044064   -0.00069554    0.00275186
     atom   55 type  2   force =    -0.00007741   -0.00062622   -0.00050322
     atom   56 type  1   force =    -0.00103242    0.00068504   -0.00056549
     atom   57 type  1   force =     0.00027660    0.00015525    0.00033719
     atom   58 type  1   force =     0.00034107   -0.00021234    0.00034825
     atom   59 type  1   force =     0.00047074    0.00103925   -0.00082378
     atom   60 type  2   force =    -0.00085710   -0.00105783    0.00677017
     atom   61 type  2   force =    -0.00036351   -0.00040647   -0.00039833
     atom   62 type  1   force =    -0.00044384    0.00143480   -0.00006483
     atom   63 type  1   force =    -0.00039029    0.00028440    0.00035495
     atom   64 type  1   force =    -0.00016746   -0.00042479    0.00013545
     atom   65 type  3   force =    -0.00071587   -0.00173020    0.00310667
     atom   66 type  3   force =     0.00012009   -0.00011592   -0.00161814
     atom   67 type  3   force =     0.00037759    0.00049666   -0.00130085
     atom   68 type  3   force =    -0.00110732   -0.00061022    0.00294117
     atom   69 type  4   force =    -0.00076818    0.00037406   -0.00158142
     atom   70 type  4   force =    -0.00005562    0.00004502    0.00032266
     atom   71 type  4   force =     0.00002996   -0.00032025    0.00020249
     atom   72 type  4   force =     0.00042142   -0.00037662   -0.00099186
     atom   73 type  4   force =     0.00082845    0.00039172   -0.00035689
     atom   74 type  4   force =    -0.00012837   -0.00072012    0.00196710
     atom   75 type  4   force =    -0.00015366   -0.00012431    0.00067714
     atom   76 type  4   force =    -0.00085486   -0.00078867    0.00144593
     atom   77 type  4   force =    -0.00089146    0.00066970   -0.00016075
     atom   78 type  4   force =    -0.00041654    0.00024195    0.00040681
     atom   79 type  4   force =     0.00029651    0.00090465   -0.00148144
     atom   80 type  4   force =     0.00023474    0.00062991    0.00032254
     atom   81 type  4   force =    -0.00059006   -0.00028457    0.00038739
     atom   82 type  4   force =     0.00017041    0.00001394    0.00012024
     atom   83 type  4   force =     0.00054623    0.00061143   -0.00022257
     atom   84 type  4   force =    -0.00049384    0.00022984   -0.00106343
     atom   85 type  3   force =     0.00013782   -0.00045082    0.00076022
     atom   86 type  3   force =     0.00064352   -0.00057294   -0.00055212
     atom   87 type  3   force =    -0.00029488   -0.00003963   -0.00102181
     atom   88 type  3   force =    -0.00071123    0.00023402    0.00239565
     atom   89 type  4   force =     0.00000856    0.00023841   -0.00043123
     atom   90 type  4   force =     0.00012720   -0.00047653    0.00157832
     atom   91 type  4   force =     0.00021010   -0.00003363    0.00017541
     atom   92 type  4   force =     0.00059183   -0.00073745   -0.00116708
     atom   93 type  4   force =     0.00139839    0.00016285   -0.00029622
     atom   94 type  4   force =    -0.00024704    0.00002287    0.00148348
     atom   95 type  4   force =     0.00018603    0.00007046    0.00068764
     atom   96 type  4   force =    -0.00162592    0.00007999    0.00027041
     atom   97 type  4   force =     0.00065635   -0.00052499   -0.00153956
     atom   98 type  4   force =    -0.00063284    0.00002649    0.00038030
     atom   99 type  4   force =     0.00077128    0.00105774   -0.00134747
     atom  100 type  4   force =     0.00074937    0.00039608    0.00053346
     atom  101 type  4   force =    -0.00051009   -0.00013520    0.00047887
     atom  102 type  4   force =     0.00097242   -0.00026939    0.00048284
     atom  103 type  4   force =     0.00104631   -0.00039270   -0.00000259
     atom  104 type  4   force =    -0.00045697   -0.00103395   -0.00035243
     atom  105 type  1   force =     0.00008240    0.00013294   -0.00032691
     atom  106 type  1   force =    -0.00187171   -0.00151816    0.00170948
     atom  107 type  2   force =     0.00008730   -0.00025767   -0.00011696
     atom  108 type  1   force =    -0.00069882   -0.00068573   -0.00053993
     atom  109 type  1   force =     0.00025556    0.00022914   -0.00037180
     atom  110 type  1   force =    -0.00027957    0.00002100   -0.00024551
     atom  111 type  1   force =     0.00006332    0.00026184   -0.00015132
     atom  112 type  2   force =     0.00005840    0.00039843   -0.00030361
     atom  113 type  2   force =     0.00011923   -0.00001328   -0.00022599
     atom  114 type  1   force =     0.00002886    0.00071299    0.00012757
     atom  115 type  1   force =     0.00015986   -0.00000315   -0.00033112
     atom  116 type  1   force =    -0.00021923   -0.00030892    0.00004724
     atom  117 type  3   force =    -0.00035360   -0.00034155    0.00048473
     atom  118 type  3   force =     0.00001906   -0.00014556   -0.00034987
     atom  119 type  3   force =    -0.00021361    0.00008698    0.00024030
     atom  120 type  3   force =     0.00011212   -0.00004478    0.00012660
     atom  121 type  4   force =     0.00013843    0.00004239   -0.00033774
     atom  122 type  4   force =     0.00016544   -0.00008571    0.00070614
     atom  123 type  4   force =     0.00010804    0.00007185    0.00016236
     atom  124 type  4   force =    -0.00023653   -0.00026215    0.00035378
     atom  125 type  4   force =     0.00062254   -0.00004447   -0.00020993
     atom  126 type  4   force =    -0.00051680    0.00020445    0.00016363
     atom  127 type  4   force =    -0.00005003    0.00002526    0.00007467
     atom  128 type  4   force =     0.00012009   -0.00052965   -0.00013976
     atom  129 type  4   force =    -0.00021853   -0.00003069    0.00009366
     atom  130 type  4   force =    -0.00008865    0.00008397    0.00006988
     atom  131 type  4   force =     0.00050061    0.00030604    0.00004197
     atom  132 type  4   force =     0.00041704    0.00032968   -0.00017951
     atom  133 type  4   force =    -0.00017053    0.00001274   -0.00011162
     atom  134 type  4   force =     0.00023670    0.00026396    0.00019287
     atom  135 type  4   force =     0.00043103    0.00027219    0.00008196
     atom  136 type  4   force =     0.00019276   -0.00024549   -0.00007703
     atom  137 type  3   force =     0.00004008    0.00012630    0.00001697
     atom  138 type  3   force =     0.00008515   -0.00018060   -0.00006241
     atom  139 type  3   force =     0.00037572    0.00024250    0.00002083
     atom  140 type  3   force =     0.00022244   -0.00047824   -0.00035093
     atom  141 type  4   force =    -0.00037620   -0.00006677    0.00027328
     atom  142 type  4   force =     0.00012453    0.00003272   -0.00016768
     atom  143 type  4   force =    -0.00023625    0.00040109    0.00001803
     atom  144 type  4   force =    -0.00037494   -0.00020827    0.00084586
     atom  145 type  4   force =     0.00031346    0.00024490    0.00013799
     atom  146 type  4   force =    -0.00017974   -0.00024882    0.00004547
     atom  147 type  4   force =     0.00008813    0.00003051    0.00016534
     atom  148 type  4   force =    -0.00025962   -0.00026671   -0.00022319
     atom  149 type  4   force =    -0.00015623    0.00073747    0.00014190
     atom  150 type  4   force =    -0.00011993    0.00043047   -0.00005695
     atom  151 type  4   force =     0.00000456   -0.00008300    0.00007367
     atom  152 type  4   force =    -0.00013464   -0.00004519    0.00000197
     atom  153 type  4   force =    -0.00009697    0.00024881    0.00003293
     atom  154 type  4   force =     0.00014834   -0.00029147   -0.00017541
     atom  155 type  4   force =    -0.00006616    0.00025593    0.00005789
     atom  156 type  4   force =     0.00020905    0.00006224    0.00049908
     atom  157 type  4   force =     0.00715256   -0.00186766   -0.00388746
     atom  158 type  5   force =    -0.00444094    0.00390058    0.00236424

     Total force =     0.225560     Total SCF correction =     0.003238
 
     init_run     :      8.46s CPU      9.10s WALL (       1 calls)
     electrons    :   1683.55s CPU   1759.14s WALL (       1 calls)
     forces       :      4.14s CPU      4.51s WALL (       1 calls)
     force_london :      0.09s CPU      0.09s WALL (       1 calls)

     Called by init_run:
     wfcinit      :      4.99s CPU      5.17s WALL (       1 calls)
     potinit      :      0.59s CPU      0.78s WALL (       1 calls)
     hinit0       :      1.60s CPU      1.69s WALL (       1 calls)

     Called by electrons:
     c_bands      :   1315.00s CPU   1352.57s WALL (     122 calls)
     sum_band     :    232.85s CPU    251.36s WALL (     122 calls)
     v_of_rho     :     28.53s CPU     34.13s WALL (     123 calls)
     newd         :     73.45s CPU     86.99s WALL (     123 calls)
     mix_rho      :     31.72s CPU     32.15s WALL (     122 calls)
     energy_londo :      0.08s CPU      0.08s WALL (       1 calls)

     Called by c_bands:
     init_us_2    :      3.12s CPU      3.19s WALL (     492 calls)
     init_us_2:cp :      3.11s CPU      3.19s WALL (     492 calls)
     regterg      :   1288.66s CPU   1325.89s WALL (     249 calls)

     Called by *egterg:
     rdiaghg      :    300.57s CPU    318.71s WALL (     928 calls)
     h_psi        :    499.29s CPU    508.45s WALL (     930 calls)
     s_psi        :     77.12s CPU     77.16s WALL (     930 calls)
     g_psi        :      0.57s CPU      0.57s WALL (     679 calls)

     Called by h_psi:
     h_psi:calbec :    130.74s CPU    138.03s WALL (     930 calls)
     vloc_psi     :    289.21s CPU    290.20s WALL (     930 calls)
     add_vuspsi   :     78.34s CPU     79.21s WALL (     930 calls)

     General routines
     calbec       :    192.60s CPU    203.58s WALL (    1182 calls)
     fft          :     47.52s CPU     53.96s WALL (    2227 calls)
     ffts         :     19.88s CPU     19.91s WALL (   15251 calls)
     fftw         :    332.85s CPU    333.93s WALL (  420880 calls)
     interpolate  :      2.35s CPU      2.48s WALL (     246 calls)
 
     Parallel routines
 
     PWSCF        :  28m18.21s CPU  29m35.10s WALL

 
   This run was terminated on:  19:29: 4  17Nov2025            

=------------------------------------------------------------------------------=
   JOB DONE.
=------------------------------------------------------------------------------=
