
     Program PWSCF v.7.2 starts on 19Nov2025 at 23:18:33 

     This program is part of the open-source Quantum ESPRESSO suite
     for quantum simulation of materials; please cite
         "P. Giannozzi et al., J. Phys.:Condens. Matter 21 395502 (2009);
         "P. Giannozzi et al., J. Phys.:Condens. Matter 29 465901 (2017);
         "P. Giannozzi et al., J. Chem. Phys. 152 154105 (2020);
          URL http://www.quantum-espresso.org", 
     in publications or presentations arising from this work. More details at
     http://www.quantum-espresso.org/quote

     Parallel version (MPI), running on    64 processors

     MPI processes distributed on     4 nodes
     389776 MiB available memory on the printing compute node when the environment starts
 
     Reading input from PWINPUT_atm157_ym

     Current dimensions of program PWSCF are:
     Max number of different atomic species (ntypx) = 10
     Max number of k-points (npk) =  40000
     Max angular momentum in pseudopotentials (lmaxx) =  4
     Presently no symmetry can be used with electric field

     file Ni.pbe-n-rrkjus_psl.1.0.0.UPF: wavefunction(s)  3D renormalized
     file Mn.pbe-spn-rrkjus_psl.0.3.1.UPF: wavefunction(s)  3D renormalized
     file O.pbe-rrkjus.UPF: wavefunction(s)  2S renormalized
     file H.pbe-rrkjus.UPF: wavefunction(s)  1S renormalized

     gamma-point specific algorithms are used
 
     R & G space division:  proc/nbgrp/npool/nimage =      64
     Subspace diagonalization in iterative solution of the eigenvalue problem:
     one sub-group per band group will be used
     custom distributed-memory algorithm (size of sub-group:  7*  7 procs)

 
     Parallelization info
     --------------------
     sticks:   dense  smooth     PW     G-vecs:    dense   smooth      PW
     Min         214      85     20                61830    15614    1928
     Max         216      86     22                61864    15658    1982
     Sum       13727    5503   1375              3958051  1001255  125211
 
     Using Slab Decomposition
 


     bravais-lattice index     =            0
     lattice parameter (alat)  =      17.8532  a.u.
     unit-cell volume          =   20962.6682 (a.u.)^3
     number of atoms/cell      =          158
     number of atomic types    =            5
     number of electrons       =      1108.00
     number of Kohn-Sham states=          665
     kinetic-energy cutoff     =      50.0000  Ry
     charge density cutoff     =     500.0000  Ry
     scf convergence threshold =      1.0E-06
     mixing beta               =       0.5000
     number of iterations used =            8  local-TF  mixing
     Exchange-correlation=  SLA  PW   PBE  PBE
                           (   1   4   3   4   0   0   0)

     celldm(1)=  17.853155  celldm(2)=   0.000000  celldm(3)=   0.000000
     celldm(4)=   0.000000  celldm(5)=   0.000000  celldm(6)=   0.000000

     crystal axes: (cart. coord. in units of alat)
               a(1) = (   1.000000   0.000000   0.000000 )  
               a(2) = (   0.003237   1.081997   0.000000 )  
               a(3) = (   0.000000   0.000000   3.404673 )  

     reciprocal axes: (cart. coord. in units 2 pi/alat)
               b(1) = (  1.000000 -0.002992  0.000000 )  
               b(2) = (  0.000000  0.924217  0.000000 )  
               b(3) = (  0.000000  0.000000  0.293714 )  


     PseudoPot. # 1 for Ni read from file:
     ~/PSEUDO/Ni.pbe-n-rrkjus_psl.1.0.0.UPF
     MD5 check sum: Not computed, couldn't open file
     Pseudo is Ultrasoft + core correction, Zval = 10.0
     Generated using "atomic" code by A. Dal Corso  v.5.1.2
     Using radial grid of 1195 points,  6 beta functions with: 
                l(1) =   0
                l(2) =   0
                l(3) =   1
                l(4) =   1
                l(5) =   2
                l(6) =   2
     Q(r) pseudized with 0 coefficients 


     PseudoPot. # 2 for Mn read from file:
     ~/PSEUDO/Mn.pbe-spn-rrkjus_psl.0.3.1.UPF
     MD5 check sum: Not computed, couldn't open file
     Pseudo is Ultrasoft + core correction, Zval = 15.0
     Generated using &quot;atomic&quot; code by A. Dal Corso  v.6.2.2
     Using radial grid of 1187 points,  6 beta functions with: 
                l(1) =   0
                l(2) =   0
                l(3) =   1
                l(4) =   1
                l(5) =   2
                l(6) =   2
     Q(r) pseudized with 0 coefficients 


     PseudoPot. # 3 for P  read from file:
     ~/PSEUDO/P.pbe-n-rrkjus_psl.1.0.0.UPF
     MD5 check sum: Not computed, couldn't open file
     Pseudo is Ultrasoft + core correction, Zval =  5.0
     Generated using "atomic" code by A. Dal Corso  v.5.1
     Using radial grid of 1147 points,  6 beta functions with: 
                l(1) =   0
                l(2) =   0
                l(3) =   1
                l(4) =   1
                l(5) =   2
                l(6) =   2
     Q(r) pseudized with 0 coefficients 


     PseudoPot. # 4 for O  read from file:
     ~/PSEUDO/O.pbe-rrkjus.UPF
     MD5 check sum: Not computed, couldn't open file
     Pseudo is Ultrasoft, Zval =  6.0
     Generated by new atomic code, or converted to UPF format
     Using radial grid of 1269 points,  4 beta functions with: 
                l(1) =   0
                l(2) =   0
                l(3) =   1
                l(4) =   1
     Q(r) pseudized with 0 coefficients 


     PseudoPot. # 5 for H  read from file:
     ~/PSEUDO/H.pbe-rrkjus.UPF
     MD5 check sum: Not computed, couldn't open file
     Pseudo is Ultrasoft, Zval =  1.0
     Generated by new atomic code, or converted to UPF format
     Using radial grid of 1061 points,  2 beta functions with: 
                l(1) =   0
                l(2) =   0
     Q(r) pseudized with 0 coefficients 


     atomic species   valence    mass     pseudopotential
     Ni               10.00    58.69300     Ni( 1.00)
     Mn               15.00    54.93800     Mn( 1.00)
     P                 5.00    30.97300     P ( 1.00)
     O                 6.00    15.99900     O ( 1.00)
     H                 1.00     1.00790     H ( 1.00)

     Starting magnetic structure 
     atomic species   magnetization
     Ni              1.000
     Mn              1.000
     P               1.000
     O               1.000
     H               0.000

     No symmetry found



   Cartesian axes

     site n.     atom                  positions (alat units)
         1        Ni     tau(   1) = (   0.2448189   0.8359134   0.1216996  )
         2        Ni     tau(   2) = (   0.4920952   0.7731948   0.4438949  )
         3        Mn     tau(   3) = (   0.0113021   0.2918949   0.1160512  )
         4        Ni     tau(   4) = (   0.2586115   0.2268566   0.4417628  )
         5        Ni     tau(   5) = (   1.0019827   1.0705803   0.2835623  )
         6        Ni     tau(   6) = (   0.2518099   0.5339061   0.2823483  )
         7        Ni     tau(   7) = (   0.7400999   0.8349186   0.1225624  )
         8        Mn     tau(   8) = (   0.9886961   0.7700845   0.4492175  )
         9        Mn     tau(   9) = (   0.5113421   0.2944667   0.1158892  )
        10        Ni     tau(  10) = (   0.7560857   0.2263843   0.4422798  )
        11        Ni     tau(  11) = (   0.5009386   1.0712238   0.2822610  )
        12        Ni     tau(  12) = (   0.7496978   0.5336600   0.2834396  )
        13        P      tau(  13) = (   0.2147792   0.9686896   0.4382665  )
        14        P      tau(  14) = (   0.4607377   0.6441916   0.1265334  )
        15        P      tau(  15) = (   0.2883218   0.0913464   0.1265752  )
        16        P      tau(  16) = (   0.0408981   0.4221836   0.4354960  )
        17        O      tau(  17) = (   0.1380864   0.9007819   0.3023220  )
        18        O      tau(  18) = (   0.3817439   0.7113683   0.2624610  )
        19        O      tau(  19) = (   0.3638364   0.1608547   0.2624417  )
        20        O      tau(  20) = (   0.1207568   0.3545755   0.3021219  )
        21        O      tau(  21) = (   0.1552194   0.8797563   0.5625160  )
        22        O      tau(  22) = (   0.4022820   0.7317969   0.0010585  )
        23        O      tau(  23) = (   0.3454844   0.1823965   0.0026336  )
        24        O      tau(  24) = (   0.1017019   0.3344979   0.5594858  )
        25        O      tau(  25) = (   0.0970074   0.5770714   0.4346455  )
        26        O      tau(  26) = (   0.3534166   1.0203677   0.1270707  )
        27        O      tau(  27) = (   0.3778024   0.4172402   0.4261028  )
        28        O      tau(  28) = (   0.1256171   0.0954063   0.1372153  )
        29        O      tau(  29) = (   0.1232168   0.6482422   0.1385172  )
        30        O      tau(  30) = (   0.4028533   0.4897833   0.1289718  )
        31        O      tau(  31) = (   0.1511050   0.0405554   0.4369979  )
        32        O      tau(  32) = (   0.3776556   0.9624293   0.4288159  )
        33        P      tau(  33) = (   0.7084770   0.9682119   0.4394551  )
        34        P      tau(  34) = (   0.9603154   0.6409658   0.1292469  )
        35        P      tau(  35) = (   0.7875734   0.0899770   0.1274098  )
        36        P      tau(  36) = (   0.5405152   0.4272620   0.4364455  )
        37        O      tau(  37) = (   0.6323583   0.8977630   0.3036670  )
        38        O      tau(  38) = (   0.8809646   0.7091921   0.2627111  )
        39        O      tau(  39) = (   0.8631054   0.1587239   0.2636487  )
        40        O      tau(  40) = (   0.6202581   0.3578380   0.3034239  )
        41        O      tau(  41) = (   0.6499160   0.8772596   0.5630912  )
        42        O      tau(  42) = (   0.8990171   0.7283464   0.0054426  )
        43        O      tau(  43) = (   0.8448361   0.1806154   0.0030658  )
        44        O      tau(  44) = (   0.6023096   0.3392612   0.5600469  )
        45        O      tau(  45) = (   0.5960222   0.5826131   0.4346340  )
        46        O      tau(  46) = (   0.8515023   1.0184215   0.1281632  )
        47        O      tau(  47) = (   0.8779640   0.4148900   0.4260983  )
        48        O      tau(  48) = (   0.6251159   0.0957170   0.1376895  )
        49        O      tau(  49) = (   0.6237654   0.6481585   0.1378370  )
        50        O      tau(  50) = (   0.9038046   0.4863338   0.1307354  )
        51        O      tau(  51) = (   0.6458737   0.0402574   0.4377979  )
        52        O      tau(  52) = (   0.8712434   0.9635255   0.4285638  )
        53        Ni     tau(  53) = (   0.2420320   0.8169913   0.7491577  )
        54        Ni     tau(  54) = (   0.4893084   0.7542727   1.0713530  )
        55        Mn     tau(  55) = (   0.0085152   0.2729728   0.7435093  )
        56        Ni     tau(  56) = (   0.2558246   0.2079345   1.0692209  )
        57        Ni     tau(  57) = (   0.9991959   1.0516583   0.9110204  )
        58        Ni     tau(  58) = (   0.2490231   0.5149840   0.9098064  )
        59        Ni     tau(  59) = (   0.7373131   0.8159965   0.7500205  )
        60        Mn     tau(  60) = (   0.9859093   0.7511625   1.0766756  )
        61        Mn     tau(  61) = (   0.5085552   0.2755447   0.7433473  )
        62        Ni     tau(  62) = (   0.7532989   0.2074622   1.0697379  )
        63        Ni     tau(  63) = (   0.4981517   1.0523018   0.9097191  )
        64        Ni     tau(  64) = (   0.7469109   0.5147379   0.9108977  )
        65        P      tau(  65) = (   0.2119924   0.9497675   1.0657246  )
        66        P      tau(  66) = (   0.4579509   0.6252695   0.7539915  )
        67        P      tau(  67) = (   0.2855349   0.0724244   0.7540333  )
        68        P      tau(  68) = (   0.0381112   0.4032615   1.0629541  )
        69        O      tau(  69) = (   0.1352995   0.8818598   0.9297801  )
        70        O      tau(  70) = (   0.3789570   0.6924463   0.8899191  )
        71        O      tau(  71) = (   0.3610496   0.1419327   0.8898998  )
        72        O      tau(  72) = (   0.1179700   0.3356534   0.9295800  )
        73        O      tau(  73) = (   0.1524325   0.8608343   1.1899741  )
        74        O      tau(  74) = (   0.3994952   0.7128748   0.6285166  )
        75        O      tau(  75) = (   0.3426976   0.1634744   0.6300917  )
        76        O      tau(  76) = (   0.0989151   0.3155758   1.1869439  )
        77        O      tau(  77) = (   0.0942206   0.5581494   1.0621036  )
        78        O      tau(  78) = (   0.3506297   1.0014456   0.7545288  )
        79        O      tau(  79) = (   0.3750155   0.3983181   1.0535609  )
        80        O      tau(  80) = (   0.1228303   0.0764842   0.7646734  )
        81        O      tau(  81) = (   0.1204299   0.6293201   0.7659753  )
        82        O      tau(  82) = (   0.4000664   0.4708612   0.7564299  )
        83        O      tau(  83) = (   0.1483182   0.0216333   1.0644560  )
        84        O      tau(  84) = (   0.3748687   0.9435072   1.0562740  )
        85        P      tau(  85) = (   0.7056901   0.9492898   1.0669132  )
        86        P      tau(  86) = (   0.9575286   0.6220438   0.7567050  )
        87        P      tau(  87) = (   0.7847866   0.0710549   0.7548679  )
        88        P      tau(  88) = (   0.5377283   0.4083400   1.0639036  )
        89        O      tau(  89) = (   0.6295714   0.8788409   0.9311251  )
        90        O      tau(  90) = (   0.8781778   0.6902700   0.8901692  )
        91        O      tau(  91) = (   0.8603186   0.1398018   0.8911068  )
        92        O      tau(  92) = (   0.6174712   0.3389159   0.9308820  )
        93        O      tau(  93) = (   0.6471291   0.8583376   1.1905493  )
        94        O      tau(  94) = (   0.8962302   0.7094244   0.6329007  )
        95        O      tau(  95) = (   0.8420493   0.1616933   0.6305239  )
        96        O      tau(  96) = (   0.5995227   0.3203391   1.1875050  )
        97        O      tau(  97) = (   0.5932354   0.5636910   1.0620921  )
        98        O      tau(  98) = (   0.8487155   0.9994995   0.7556213  )
        99        O      tau(  99) = (   0.8751772   0.3959680   1.0535564  )
       100        O      tau( 100) = (   0.6223291   0.0767949   0.7651476  )
       101        O      tau( 101) = (   0.6209785   0.6292365   0.7652951  )
       102        O      tau( 102) = (   0.9010178   0.4674118   0.7581935  )
       103        O      tau( 103) = (   0.6430869   0.0213354   1.0652560  )
       104        O      tau( 104) = (   0.8684566   0.9446034   1.0560219  )
       105        Ni     tau( 105) = (   0.2418877   0.7990605   1.3774994  )
       106        Ni     tau( 106) = (   0.4859924   0.7291101   1.7127883  )
       107        Mn     tau( 107) = (   0.0074091   0.2584581   1.3749705  )
       108        Ni     tau( 108) = (   0.2425157   0.1970216   1.6824860  )
       109        Ni     tau( 109) = (   0.9982898   1.0343952   1.5373768  )
       110        Ni     tau( 110) = (   0.2455541   0.5002357   1.5473962  )
       111        Ni     tau( 111) = (   0.7364741   0.7981604   1.3766198  )
       112        Mn     tau( 112) = (   0.9933806   0.7362827   1.7012765  )
       113        Mn     tau( 113) = (   0.5061773   0.2597092   1.3733878  )
       114        Ni     tau( 114) = (   0.7390624   0.1911087   1.6822626  )
       115        Ni     tau( 115) = (   0.4977171   1.0337782   1.5386589  )
       116        Ni     tau( 116) = (   0.7401814   0.4951798   1.5429972  )
       117        P      tau( 117) = (   0.2103734   0.9343735   1.6940579  )
       118        P      tau( 118) = (   0.4554029   0.6062738   1.3832147  )
       119        P      tau( 119) = (   0.2849489   0.0556490   1.3793979  )
       120        P      tau( 120) = (   0.0290749   0.3809918   1.7035602  )
       121        O      tau( 121) = (   0.1355154   0.8685926   1.5530534  )
       122        O      tau( 122) = (   0.3774347   0.6768570   1.5167281  )
       123        O      tau( 123) = (   0.3598942   0.1250008   1.5151379  )
       124        O      tau( 124) = (   0.1107954   0.3275508   1.5594841  )
       125        O      tau( 125) = (   0.1459723   0.8429241   1.8126700  )
       126        O      tau( 126) = (   0.3976183   0.6919918   1.2555103  )
       127        O      tau( 127) = (   0.3429937   0.1462538   1.2552325  )
       128        O      tau( 128) = (   0.0910722   0.2838530   1.8157905  )
       129        O      tau( 129) = (   0.0790378   0.5396957   1.7066292  )
       130        O      tau( 130) = (   0.3490860   0.9846372   1.3803291  )
       131        O      tau( 131) = (   0.3685320   0.3757119   1.6809527  )
       132        O      tau( 132) = (   0.1220401   0.0632085   1.3908914  )
       133        O      tau( 133) = (   0.1180502   0.6108095   1.4007634  )
       134        O      tau( 134) = (   0.3961976   0.4519943   1.3871462  )
       135        O      tau( 135) = (   0.1486504   0.0072842   1.6926096  )
       136        O      tau( 136) = (   0.3735002   0.9279144   1.6865291  )
       137        P      tau( 137) = (   0.7062277   0.9249542   1.6906995  )
       138        P      tau( 138) = (   0.9553712   0.6030053   1.3890406  )
       139        P      tau( 139) = (   0.7840082   0.0540629   1.3791216  )
       140        P      tau( 140) = (   0.5317123   0.3818426   1.7010624  )
       141        O      tau( 141) = (   0.6319685   0.8674441   1.5474648  )
       142        O      tau( 142) = (   0.8763482   0.6697573   1.5237027  )
       143        O      tau( 143) = (   0.8595380   0.1221826   1.5157410  )
       144        O      tau( 144) = (   0.6117506   0.3206324   1.5574399  )
       145        O      tau( 145) = (   0.6505933   0.8256672   1.8056400  )
       146        O      tau( 146) = (   0.8964847   0.6918028   1.2646706  )
       147        O      tau( 147) = (   0.8420613   0.1459611   1.2558217  )
       148        O      tau( 148) = (   0.5904161   0.2827938   1.8138958  )
       149        O      tau( 149) = (   0.5904972   0.5368025   1.6958113  )
       150        O      tau( 150) = (   0.8484323   0.9829177   1.3785021  )
       151        O      tau( 151) = (   0.8659078   0.3735192   1.6844181  )
       152        O      tau( 152) = (   0.6215468   0.0617340   1.3908597  )
       153        O      tau( 153) = (   0.6186538   0.6093341   1.3943007  )
       154        O      tau( 154) = (   0.8974697   0.4488583   1.3875570  )
       155        O      tau( 155) = (   0.6478825  -0.0004503   1.6955159  )
       156        O      tau( 156) = (   0.8711649   0.9215713   1.6818757  )
       157        O      tau( 157) = (   0.3651639   0.6438938   1.8366945  )
       158        H      tau( 158) = (   0.2891119   0.7091622   1.8682131  )

     -------------------------------------------------
     Parameters for Dispersion (Grimme-D2) Correction:
     -------------------------------------------------
       atom      VdW radius       C_6     

        Ni         2.952        374.666
        Mn         2.952        374.666
        P          3.222        271.980
        O          2.536         24.284
        H          1.892          4.857

     number of k points=     1  Gaussian smearing, width (Ry)=  0.0100
                       cart. coord. in units 2pi/alat
        k(    1) = (   0.0000000   0.0000000   0.0000000), wk =   1.0000000

     Dense  grid:  1979026 G-vectors     FFT dimensions: ( 128, 144, 450)

     Smooth grid:   500628 G-vectors     FFT dimensions: (  81,  90, 288)

     Estimated max dynamical RAM per process >     333.40 MB

     Estimated total dynamical RAM >      20.84 GB

     Check: negative core charge=   -0.000002
     Generating pointlists ...
     new r_m :   0.0796 (alat units)  1.4207 (a.u.) for type    1
     new r_m :   0.0884 (alat units)  1.5790 (a.u.) for type    2
     new r_m :   0.0664 (alat units)  1.1846 (a.u.) for type    3
     new r_m :   0.0433 (alat units)  0.7737 (a.u.) for type    4
     new r_m :   0.0433 (alat units)  0.7737 (a.u.) for type    5

     Initial potential from superposition of free atoms

     starting charge    1107.8886, renormalised to    1108.0000

     negative rho (up, down):  1.527E-03 4.660E-04
 
     Adding external electric field

     Computed dipole along edir(3) : 
        Dipole                1.6366 Ry au,          4.1597 Debye
        Dipole field          0.0010 Ry au, 
 
        Potential amp.       -0.1073 Ry
        Total length         54.7057 bohr
 
 
     Adding external electric field

     Computed dipole along edir(3) : 
        Dipole                1.6366 Ry au,          4.1597 Debye
        Dipole field          0.0010 Ry au, 
 
        Potential amp.       -0.1073 Ry
        Total length         54.7057 bohr
 
     Starting wfcs are  818 randomized atomic wfcs

     total cpu time spent up to now is       11.7 secs

     Self-consistent Calculation

     iteration #  1     ecut=    50.00 Ry     beta= 0.50
     Davidson diagonalization with overlap
     ethr =  1.00E-02,  avg # of iterations =  6.0

     negative rho (up, down):  2.842E+00 1.544E-06
 
     Adding external electric field

     Computed dipole along edir(3) : 
        Dipole              -25.1376 Ry au,        -63.8934 Debye
        Dipole field         -0.0151 Ry au, 
 
        Potential amp.        1.6487 Ry
        Total length         54.7057 bohr
 
 
     Adding external electric field

     Computed dipole along edir(3) : 
        Dipole              -25.1376 Ry au,        -63.8934 Debye
        Dipole field         -0.0151 Ry au, 
 
        Potential amp.        1.6487 Ry
        Total length         54.7057 bohr
 

     total cpu time spent up to now is       43.8 secs

     total energy              =   -7886.78747513 Ry
     estimated scf accuracy    <     725.97874240 Ry

     total magnetization       =   222.00 Bohr mag/cell
     absolute magnetization    =   319.93 Bohr mag/cell

     iteration #  2     ecut=    50.00 Ry     beta= 0.50
     Davidson diagonalization with overlap
     ethr =  1.00E-02,  avg # of iterations =  8.0

     negative rho (up, down):  2.782E+00 1.124E-05
 
     Adding external electric field

     Computed dipole along edir(3) : 
        Dipole               -1.0668 Ry au,         -2.7116 Debye
        Dipole field         -0.0006 Ry au, 
 
        Potential amp.        0.0700 Ry
        Total length         54.7057 bohr
 
 
     Adding external electric field

     Computed dipole along edir(3) : 
        Dipole               -1.0668 Ry au,         -2.7116 Debye
        Dipole field         -0.0006 Ry au, 
 
        Potential amp.        0.0700 Ry
        Total length         54.7057 bohr
 

     total cpu time spent up to now is       76.1 secs

     total energy              =   -7975.95154128 Ry
     estimated scf accuracy    <    8810.95717176 Ry

     total magnetization       =   142.66 Bohr mag/cell
     absolute magnetization    =   182.30 Bohr mag/cell

     iteration #  3     ecut=    50.00 Ry     beta= 0.50
     Davidson diagonalization with overlap
     ethr =  1.00E-02,  avg # of iterations =  6.0

     negative rho (up, down):  1.942E+00 2.501E-05
 
     Adding external electric field

     Computed dipole along edir(3) : 
        Dipole               -3.7373 Ry au,         -9.4992 Debye
        Dipole field         -0.0022 Ry au, 
 
        Potential amp.        0.2451 Ry
        Total length         54.7057 bohr
 
 
     Adding external electric field

     Computed dipole along edir(3) : 
        Dipole               -3.7373 Ry au,         -9.4992 Debye
        Dipole field         -0.0022 Ry au, 
 
        Potential amp.        0.2451 Ry
        Total length         54.7057 bohr
 

     total cpu time spent up to now is       97.1 secs

     total energy              =   -8042.66199748 Ry
     estimated scf accuracy    <     375.83108748 Ry

     total magnetization       =   123.08 Bohr mag/cell
     absolute magnetization    =   176.86 Bohr mag/cell

     iteration #  4     ecut=    50.00 Ry     beta= 0.50
     Davidson diagonalization with overlap
     ethr =  1.00E-02,  avg # of iterations =  4.5

     negative rho (up, down):  1.271E+00 4.743E-06
 
     Adding external electric field

     Computed dipole along edir(3) : 
        Dipole               -3.8824 Ry au,         -9.8682 Debye
        Dipole field         -0.0023 Ry au, 
 
        Potential amp.        0.2546 Ry
        Total length         54.7057 bohr
 
 
     Adding external electric field

     Computed dipole along edir(3) : 
        Dipole               -3.8824 Ry au,         -9.8682 Debye
        Dipole field         -0.0023 Ry au, 
 
        Potential amp.        0.2546 Ry
        Total length         54.7057 bohr
 

     total cpu time spent up to now is      115.0 secs

     total energy              =   -8059.81189776 Ry
     estimated scf accuracy    <     218.99488819 Ry

     total magnetization       =    96.20 Bohr mag/cell
     absolute magnetization    =   145.23 Bohr mag/cell

     iteration #  5     ecut=    50.00 Ry     beta= 0.50
     Davidson diagonalization with overlap
     ethr =  1.00E-02,  avg # of iterations =  1.5

     negative rho (up, down):  6.058E-01 0.000E+00
 
     Adding external electric field

     Computed dipole along edir(3) : 
        Dipole               -4.0724 Ry au,        -10.3511 Debye
        Dipole field         -0.0024 Ry au, 
 
        Potential amp.        0.2671 Ry
        Total length         54.7057 bohr
 
 
     Adding external electric field

     Computed dipole along edir(3) : 
        Dipole               -4.0724 Ry au,        -10.3511 Debye
        Dipole field         -0.0024 Ry au, 
 
        Potential amp.        0.2671 Ry
        Total length         54.7057 bohr
 

     total cpu time spent up to now is      129.6 secs

     total energy              =   -8070.16362403 Ry
     estimated scf accuracy    <      48.57969644 Ry

     total magnetization       =    94.00 Bohr mag/cell
     absolute magnetization    =   130.13 Bohr mag/cell

     iteration #  6     ecut=    50.00 Ry     beta= 0.50
     Davidson diagonalization with overlap
     ethr =  4.38E-03,  avg # of iterations =  3.5

     negative rho (up, down):  1.305E-01 8.580E-06
 
     Adding external electric field

     Computed dipole along edir(3) : 
        Dipole               -4.5111 Ry au,        -11.4661 Debye
        Dipole field         -0.0027 Ry au, 
 
        Potential amp.        0.2959 Ry
        Total length         54.7057 bohr
 
 
     Adding external electric field

     Computed dipole along edir(3) : 
        Dipole               -4.5111 Ry au,        -11.4661 Debye
        Dipole field         -0.0027 Ry au, 
 
        Potential amp.        0.2959 Ry
        Total length         54.7057 bohr
 

     total cpu time spent up to now is      146.2 secs

     total energy              =   -8073.75311024 Ry
     estimated scf accuracy    <      54.54428075 Ry

     total magnetization       =    96.14 Bohr mag/cell
     absolute magnetization    =   121.99 Bohr mag/cell

     iteration #  7     ecut=    50.00 Ry     beta= 0.50
     Davidson diagonalization with overlap
     ethr =  4.38E-03,  avg # of iterations =  1.5

     negative rho (up, down):  7.587E-03 2.668E-04
 
     Adding external electric field

     Computed dipole along edir(3) : 
        Dipole               -4.5795 Ry au,        -11.6398 Debye
        Dipole field         -0.0027 Ry au, 
 
        Potential amp.        0.3004 Ry
        Total length         54.7057 bohr
 
 
     Adding external electric field

     Computed dipole along edir(3) : 
        Dipole               -4.5795 Ry au,        -11.6398 Debye
        Dipole field         -0.0027 Ry au, 
 
        Potential amp.        0.3004 Ry
        Total length         54.7057 bohr
 

     total cpu time spent up to now is      160.5 secs

     total energy              =   -8076.84852283 Ry
     estimated scf accuracy    <      23.19118467 Ry

     total magnetization       =    92.50 Bohr mag/cell
     absolute magnetization    =   109.10 Bohr mag/cell

     iteration #  8     ecut=    50.00 Ry     beta= 0.50
     Davidson diagonalization with overlap
     ethr =  2.09E-03,  avg # of iterations =  4.5

     negative rho (up, down):  8.870E-05 1.382E-03
 
     Adding external electric field

     Computed dipole along edir(3) : 
        Dipole               -4.7290 Ry au,        -12.0200 Debye
        Dipole field         -0.0028 Ry au, 
 
        Potential amp.        0.3102 Ry
        Total length         54.7057 bohr
 
 
     Adding external electric field

     Computed dipole along edir(3) : 
        Dipole               -4.7290 Ry au,        -12.0200 Debye
        Dipole field         -0.0028 Ry au, 
 
        Potential amp.        0.3102 Ry
        Total length         54.7057 bohr
 

     total cpu time spent up to now is      177.3 secs

     total energy              =   -8077.49433119 Ry
     estimated scf accuracy    <      38.43579993 Ry

     total magnetization       =    89.43 Bohr mag/cell
     absolute magnetization    =   100.69 Bohr mag/cell

     iteration #  9     ecut=    50.00 Ry     beta= 0.50
     Davidson diagonalization with overlap
     ethr =  2.09E-03,  avg # of iterations =  1.0

     negative rho (up, down):  3.223E-05 2.573E-03
 
     Adding external electric field

     Computed dipole along edir(3) : 
        Dipole               -4.6441 Ry au,        -11.8042 Debye
        Dipole field         -0.0028 Ry au, 
 
        Potential amp.        0.3046 Ry
        Total length         54.7057 bohr
 
 
     Adding external electric field

     Computed dipole along edir(3) : 
        Dipole               -4.6441 Ry au,        -11.8042 Debye
        Dipole field         -0.0028 Ry au, 
 
        Potential amp.        0.3046 Ry
        Total length         54.7057 bohr
 

     total cpu time spent up to now is      190.8 secs

     total energy              =   -8078.17508672 Ry
     estimated scf accuracy    <      20.92744139 Ry

     total magnetization       =    91.15 Bohr mag/cell
     absolute magnetization    =    99.17 Bohr mag/cell

     iteration # 10     ecut=    50.00 Ry     beta= 0.50
     Davidson diagonalization with overlap
     ethr =  1.89E-03,  avg # of iterations =  1.5

     negative rho (up, down):  5.466E-05 6.302E-03
 
     Adding external electric field

     Computed dipole along edir(3) : 
        Dipole               -4.5698 Ry au,        -11.6153 Debye
        Dipole field         -0.0027 Ry au, 
 
        Potential amp.        0.2997 Ry
        Total length         54.7057 bohr
 
 
     Adding external electric field

     Computed dipole along edir(3) : 
        Dipole               -4.5698 Ry au,        -11.6153 Debye
        Dipole field         -0.0027 Ry au, 
 
        Potential amp.        0.2997 Ry
        Total length         54.7057 bohr
 

     total cpu time spent up to now is      204.4 secs

     total energy              =   -8078.45136402 Ry
     estimated scf accuracy    <       3.29579560 Ry

     total magnetization       =    94.01 Bohr mag/cell
     absolute magnetization    =   100.61 Bohr mag/cell

     iteration # 11     ecut=    50.00 Ry     beta= 0.50
     Davidson diagonalization with overlap
     ethr =  2.97E-04,  avg # of iterations =  6.5

     negative rho (up, down):  2.148E-08 4.604E-04
 
     Adding external electric field

     Computed dipole along edir(3) : 
        Dipole               -4.3795 Ry au,        -11.1316 Debye
        Dipole field         -0.0026 Ry au, 
 
        Potential amp.        0.2872 Ry
        Total length         54.7057 bohr
 
 
     Adding external electric field

     Computed dipole along edir(3) : 
        Dipole               -4.3795 Ry au,        -11.1316 Debye
        Dipole field         -0.0026 Ry au, 
 
        Potential amp.        0.2872 Ry
        Total length         54.7057 bohr
 

     total cpu time spent up to now is      226.0 secs

     total energy              =   -8078.64526620 Ry
     estimated scf accuracy    <      22.91080640 Ry

     total magnetization       =    91.54 Bohr mag/cell
     absolute magnetization    =    96.53 Bohr mag/cell

     iteration # 12     ecut=    50.00 Ry     beta= 0.50
     Davidson diagonalization with overlap
     ethr =  2.97E-04,  avg # of iterations =  2.0

     negative rho (up, down):  0.000E+00 2.842E-06
 
     Adding external electric field

     Computed dipole along edir(3) : 
        Dipole               -4.2924 Ry au,        -10.9101 Debye
        Dipole field         -0.0026 Ry au, 
 
        Potential amp.        0.2815 Ry
        Total length         54.7057 bohr
 
 
     Adding external electric field

     Computed dipole along edir(3) : 
        Dipole               -4.2924 Ry au,        -10.9101 Debye
        Dipole field         -0.0026 Ry au, 
 
        Potential amp.        0.2815 Ry
        Total length         54.7057 bohr
 

     total cpu time spent up to now is      240.1 secs

     total energy              =   -8078.67814296 Ry
     estimated scf accuracy    <      27.95859997 Ry

     total magnetization       =    89.20 Bohr mag/cell
     absolute magnetization    =    93.44 Bohr mag/cell

     iteration # 13     ecut=    50.00 Ry     beta= 0.50
     Davidson diagonalization with overlap
     ethr =  2.97E-04,  avg # of iterations =  1.5

     negative rho (up, down):  7.654E-06 9.918E-05
 
     Adding external electric field

     Computed dipole along edir(3) : 
        Dipole               -4.5040 Ry au,        -11.4480 Debye
        Dipole field         -0.0027 Ry au, 
 
        Potential amp.        0.2954 Ry
        Total length         54.7057 bohr
 
 
     Adding external electric field

     Computed dipole along edir(3) : 
        Dipole               -4.5040 Ry au,        -11.4480 Debye
        Dipole field         -0.0027 Ry au, 
 
        Potential amp.        0.2954 Ry
        Total length         54.7057 bohr
 

     total cpu time spent up to now is      254.3 secs

     total energy              =   -8078.75893685 Ry
     estimated scf accuracy    <      32.06639733 Ry

     total magnetization       =    90.78 Bohr mag/cell
     absolute magnetization    =    94.41 Bohr mag/cell

     iteration # 14     ecut=    50.00 Ry     beta= 0.50
     Davidson diagonalization with overlap
     ethr =  2.97E-04,  avg # of iterations =  2.0

     negative rho (up, down):  2.613E-06 2.521E-04
 
     Adding external electric field

     Computed dipole along edir(3) : 
        Dipole               -4.5633 Ry au,        -11.5987 Debye
        Dipole field         -0.0027 Ry au, 
 
        Potential amp.        0.2993 Ry
        Total length         54.7057 bohr
 
 
     Adding external electric field

     Computed dipole along edir(3) : 
        Dipole               -4.5633 Ry au,        -11.5987 Debye
        Dipole field         -0.0027 Ry au, 
 
        Potential amp.        0.2993 Ry
        Total length         54.7057 bohr
 

     total cpu time spent up to now is      268.5 secs

     total energy              =   -8078.20746270 Ry
     estimated scf accuracy    <      84.03790948 Ry

     total magnetization       =    87.91 Bohr mag/cell
     absolute magnetization    =    92.61 Bohr mag/cell

     iteration # 15     ecut=    50.00 Ry     beta= 0.50
     Davidson diagonalization with overlap
     ethr =  2.97E-04,  avg # of iterations =  2.0

     negative rho (up, down):  3.436E-06 2.017E-05
 
     Adding external electric field

     Computed dipole along edir(3) : 
        Dipole               -4.5804 Ry au,        -11.6421 Debye
        Dipole field         -0.0027 Ry au, 
 
        Potential amp.        0.3004 Ry
        Total length         54.7057 bohr
 
 
     Adding external electric field

     Computed dipole along edir(3) : 
        Dipole               -4.5804 Ry au,        -11.6421 Debye
        Dipole field         -0.0027 Ry au, 
 
        Potential amp.        0.3004 Ry
        Total length         54.7057 bohr
 

     total cpu time spent up to now is      283.5 secs

     total energy              =   -8078.65119291 Ry
     estimated scf accuracy    <      41.28586246 Ry

     total magnetization       =    91.39 Bohr mag/cell
     absolute magnetization    =    95.47 Bohr mag/cell

     iteration # 16     ecut=    50.00 Ry     beta= 0.50
     Davidson diagonalization with overlap
     ethr =  2.97E-04,  avg # of iterations =  1.5

     negative rho (up, down):  2.886E-06 9.710E-07
 
     Adding external electric field

     Computed dipole along edir(3) : 
        Dipole               -4.5519 Ry au,        -11.5697 Debye
        Dipole field         -0.0027 Ry au, 
 
        Potential amp.        0.2985 Ry
        Total length         54.7057 bohr
 
 
     Adding external electric field

     Computed dipole along edir(3) : 
        Dipole               -4.5519 Ry au,        -11.5697 Debye
        Dipole field         -0.0027 Ry au, 
 
        Potential amp.        0.2985 Ry
        Total length         54.7057 bohr
 

     total cpu time spent up to now is      297.3 secs

     total energy              =   -8078.65492985 Ry
     estimated scf accuracy    <      26.10099714 Ry

     total magnetization       =    92.53 Bohr mag/cell
     absolute magnetization    =    96.75 Bohr mag/cell

     iteration # 17     ecut=    50.00 Ry     beta= 0.50
     Davidson diagonalization with overlap
     ethr =  2.97E-04,  avg # of iterations =  1.5

     negative rho (up, down):  4.857E-06 1.629E-06
 
     Adding external electric field

     Computed dipole along edir(3) : 
        Dipole               -4.5528 Ry au,        -11.5721 Debye
        Dipole field         -0.0027 Ry au, 
 
        Potential amp.        0.2986 Ry
        Total length         54.7057 bohr
 
 
     Adding external electric field

     Computed dipole along edir(3) : 
        Dipole               -4.5528 Ry au,        -11.5721 Debye
        Dipole field         -0.0027 Ry au, 
 
        Potential amp.        0.2986 Ry
        Total length         54.7057 bohr
 

     total cpu time spent up to now is      311.3 secs

     total energy              =   -8078.58916059 Ry
     estimated scf accuracy    <      21.87127338 Ry

     total magnetization       =    94.01 Bohr mag/cell
     absolute magnetization    =    98.24 Bohr mag/cell

     iteration # 18     ecut=    50.00 Ry     beta= 0.50
     Davidson diagonalization with overlap
     ethr =  2.97E-04,  avg # of iterations =  1.5

     negative rho (up, down):  1.776E-05 1.204E-06
 
     Adding external electric field

     Computed dipole along edir(3) : 
        Dipole               -4.6471 Ry au,        -11.8118 Debye
        Dipole field         -0.0028 Ry au, 
 
        Potential amp.        0.3048 Ry
        Total length         54.7057 bohr
 
 
     Adding external electric field

     Computed dipole along edir(3) : 
        Dipole               -4.6471 Ry au,        -11.8118 Debye
        Dipole field         -0.0028 Ry au, 
 
        Potential amp.        0.3048 Ry
        Total length         54.7057 bohr
 

     total cpu time spent up to now is      325.4 secs

     total energy              =   -8078.59524087 Ry
     estimated scf accuracy    <      27.80715188 Ry

     total magnetization       =    93.61 Bohr mag/cell
     absolute magnetization    =    97.96 Bohr mag/cell

     iteration # 19     ecut=    50.00 Ry     beta= 0.50
     Davidson diagonalization with overlap
     ethr =  2.97E-04,  avg # of iterations =  1.5

     negative rho (up, down):  1.631E-04 4.740E-08
 
     Adding external electric field

     Computed dipole along edir(3) : 
        Dipole               -4.5931 Ry au,        -11.6745 Debye
        Dipole field         -0.0028 Ry au, 
 
        Potential amp.        0.3013 Ry
        Total length         54.7057 bohr
 
 
     Adding external electric field

     Computed dipole along edir(3) : 
        Dipole               -4.5931 Ry au,        -11.6745 Debye
        Dipole field         -0.0028 Ry au, 
 
        Potential amp.        0.3013 Ry
        Total length         54.7057 bohr
 

     total cpu time spent up to now is      339.9 secs

     total energy              =   -8078.62783873 Ry
     estimated scf accuracy    <      35.52272108 Ry

     total magnetization       =    92.50 Bohr mag/cell
     absolute magnetization    =    97.24 Bohr mag/cell

     iteration # 20     ecut=    50.00 Ry     beta= 0.50
     Davidson diagonalization with overlap
     ethr =  2.97E-04,  avg # of iterations =  2.0

     negative rho (up, down):  6.006E-03 7.787E-06
 
     Adding external electric field

     Computed dipole along edir(3) : 
        Dipole               -4.4836 Ry au,        -11.3963 Debye
        Dipole field         -0.0027 Ry au, 
 
        Potential amp.        0.2941 Ry
        Total length         54.7057 bohr
 
 
     Adding external electric field

     Computed dipole along edir(3) : 
        Dipole               -4.4836 Ry au,        -11.3963 Debye
        Dipole field         -0.0027 Ry au, 
 
        Potential amp.        0.2941 Ry
        Total length         54.7057 bohr
 

     total cpu time spent up to now is      354.6 secs

     total energy              =   -8078.21610259 Ry
     estimated scf accuracy    <      52.82722529 Ry

     total magnetization       =    94.25 Bohr mag/cell
     absolute magnetization    =    98.71 Bohr mag/cell

     iteration # 21     ecut=    50.00 Ry     beta= 0.50
     Davidson diagonalization with overlap
     ethr =  2.97E-04,  avg # of iterations =  2.0

     negative rho (up, down):  3.219E-03 1.986E-07
 
     Adding external electric field

     Computed dipole along edir(3) : 
        Dipole               -4.2564 Ry au,        -10.8188 Debye
        Dipole field         -0.0026 Ry au, 
 
        Potential amp.        0.2792 Ry
        Total length         54.7057 bohr
 
 
     Adding external electric field

     Computed dipole along edir(3) : 
        Dipole               -4.2564 Ry au,        -10.8188 Debye
        Dipole field         -0.0026 Ry au, 
 
        Potential amp.        0.2792 Ry
        Total length         54.7057 bohr
 

     total cpu time spent up to now is      369.7 secs

     total energy              =   -8078.51601651 Ry
     estimated scf accuracy    <      18.99315261 Ry

     total magnetization       =    96.08 Bohr mag/cell
     absolute magnetization    =   100.49 Bohr mag/cell

     iteration # 22     ecut=    50.00 Ry     beta= 0.50
     Davidson diagonalization with overlap
     ethr =  2.97E-04,  avg # of iterations =  2.0

     negative rho (up, down):  8.425E-03 3.254E-04
 
     Adding external electric field

     Computed dipole along edir(3) : 
        Dipole               -3.9679 Ry au,        -10.0854 Debye
        Dipole field         -0.0024 Ry au, 
 
        Potential amp.        0.2602 Ry
        Total length         54.7057 bohr
 
 
     Adding external electric field

     Computed dipole along edir(3) : 
        Dipole               -3.9679 Ry au,        -10.0854 Debye
        Dipole field         -0.0024 Ry au, 
 
        Potential amp.        0.2602 Ry
        Total length         54.7057 bohr
 

     total cpu time spent up to now is      385.2 secs

     total energy              =   -8078.48953482 Ry
     estimated scf accuracy    <      13.62230700 Ry

     total magnetization       =    97.58 Bohr mag/cell
     absolute magnetization    =   101.31 Bohr mag/cell

     iteration # 23     ecut=    50.00 Ry     beta= 0.50
     Davidson diagonalization with overlap
     ethr =  2.97E-04,  avg # of iterations =  1.5

     negative rho (up, down):  1.054E-02 1.444E-03
 
     Adding external electric field

     Computed dipole along edir(3) : 
        Dipole               -3.6254 Ry au,         -9.2149 Debye
        Dipole field         -0.0022 Ry au, 
 
        Potential amp.        0.2378 Ry
        Total length         54.7057 bohr
 
 
     Adding external electric field

     Computed dipole along edir(3) : 
        Dipole               -3.6254 Ry au,         -9.2149 Debye
        Dipole field         -0.0022 Ry au, 
 
        Potential amp.        0.2378 Ry
        Total length         54.7057 bohr
 

     total cpu time spent up to now is      399.2 secs

     total energy              =   -8078.37145419 Ry
     estimated scf accuracy    <      10.29717245 Ry

     total magnetization       =    97.55 Bohr mag/cell
     absolute magnetization    =   100.78 Bohr mag/cell

     iteration # 24     ecut=    50.00 Ry     beta= 0.50
     Davidson diagonalization with overlap
     ethr =  2.97E-04,  avg # of iterations =  2.0

     negative rho (up, down):  9.535E-03 3.102E-03
 
     Adding external electric field

     Computed dipole along edir(3) : 
        Dipole               -3.0802 Ry au,         -7.8291 Debye
        Dipole field         -0.0018 Ry au, 
 
        Potential amp.        0.2020 Ry
        Total length         54.7057 bohr
 
 
     Adding external electric field

     Computed dipole along edir(3) : 
        Dipole               -3.0802 Ry au,         -7.8291 Debye
        Dipole field         -0.0018 Ry au, 
 
        Potential amp.        0.2020 Ry
        Total length         54.7057 bohr
 

     total cpu time spent up to now is      414.6 secs

     total energy              =   -8078.05982438 Ry
     estimated scf accuracy    <      11.54805206 Ry

     total magnetization       =    97.89 Bohr mag/cell
     absolute magnetization    =   100.55 Bohr mag/cell

     iteration # 25     ecut=    50.00 Ry     beta= 0.50
     Davidson diagonalization with overlap
     ethr =  2.97E-04,  avg # of iterations =  2.0

     negative rho (up, down):  1.233E-04 3.884E-04
 
     Adding external electric field

     Computed dipole along edir(3) : 
        Dipole               -2.8583 Ry au,         -7.2651 Debye
        Dipole field         -0.0017 Ry au, 
 
        Potential amp.        0.1875 Ry
        Total length         54.7057 bohr
 
 
     Adding external electric field

     Computed dipole along edir(3) : 
        Dipole               -2.8583 Ry au,         -7.2651 Debye
        Dipole field         -0.0017 Ry au, 
 
        Potential amp.        0.1875 Ry
        Total length         54.7057 bohr
 

     total cpu time spent up to now is      429.7 secs

     total energy              =   -8078.42528087 Ry
     estimated scf accuracy    <       3.26642586 Ry

     total magnetization       =    95.08 Bohr mag/cell
     absolute magnetization    =    97.40 Bohr mag/cell

     iteration # 26     ecut=    50.00 Ry     beta= 0.50
     Davidson diagonalization with overlap
     ethr =  2.95E-04,  avg # of iterations =  2.0

     negative rho (up, down):  2.473E-05 2.960E-06
 
     Adding external electric field

     Computed dipole along edir(3) : 
        Dipole               -2.9015 Ry au,         -7.3748 Debye
        Dipole field         -0.0017 Ry au, 
 
        Potential amp.        0.1903 Ry
        Total length         54.7057 bohr
 
 
     Adding external electric field

     Computed dipole along edir(3) : 
        Dipole               -2.9015 Ry au,         -7.3748 Debye
        Dipole field         -0.0017 Ry au, 
 
        Potential amp.        0.1903 Ry
        Total length         54.7057 bohr
 

     total cpu time spent up to now is      444.7 secs

     total energy              =   -8078.49786292 Ry
     estimated scf accuracy    <       2.63342511 Ry

     total magnetization       =    96.14 Bohr mag/cell
     absolute magnetization    =    98.18 Bohr mag/cell

     iteration # 27     ecut=    50.00 Ry     beta= 0.50
     Davidson diagonalization with overlap
     ethr =  2.38E-04,  avg # of iterations =  2.0

     negative rho (up, down):  1.213E-07 3.398E-09
 
     Adding external electric field

     Computed dipole along edir(3) : 
        Dipole               -2.7250 Ry au,         -6.9263 Debye
        Dipole field         -0.0016 Ry au, 
 
        Potential amp.        0.1787 Ry
        Total length         54.7057 bohr
 
 
     Adding external electric field

     Computed dipole along edir(3) : 
        Dipole               -2.7250 Ry au,         -6.9263 Debye
        Dipole field         -0.0016 Ry au, 
 
        Potential amp.        0.1787 Ry
        Total length         54.7057 bohr
 

     total cpu time spent up to now is      459.7 secs

     total energy              =   -8078.56710827 Ry
     estimated scf accuracy    <       0.97419839 Ry

     total magnetization       =    97.79 Bohr mag/cell
     absolute magnetization    =    99.61 Bohr mag/cell

     iteration # 28     ecut=    50.00 Ry     beta= 0.50
     Davidson diagonalization with overlap
     c_bands:  1 eigenvalues not converged
     ethr =  8.79E-05,  avg # of iterations = 11.0
 
     Adding external electric field

     Computed dipole along edir(3) : 
        Dipole               -2.5993 Ry au,         -6.6068 Debye
        Dipole field         -0.0016 Ry au, 
 
        Potential amp.        0.1705 Ry
        Total length         54.7057 bohr
 
 
     Adding external electric field

     Computed dipole along edir(3) : 
        Dipole               -2.5993 Ry au,         -6.6068 Debye
        Dipole field         -0.0016 Ry au, 
 
        Potential amp.        0.1705 Ry
        Total length         54.7057 bohr
 

     total cpu time spent up to now is      484.7 secs

     total energy              =   -8078.59877526 Ry
     estimated scf accuracy    <       0.70933408 Ry

     total magnetization       =    95.50 Bohr mag/cell
     absolute magnetization    =    97.21 Bohr mag/cell

     iteration # 29     ecut=    50.00 Ry     beta= 0.50
     Davidson diagonalization with overlap
     ethr =  6.40E-05,  avg # of iterations =  2.0
 
     Adding external electric field

     Computed dipole along edir(3) : 
        Dipole               -2.5294 Ry au,         -6.4290 Debye
        Dipole field         -0.0015 Ry au, 
 
        Potential amp.        0.1659 Ry
        Total length         54.7057 bohr
 
 
     Adding external electric field

     Computed dipole along edir(3) : 
        Dipole               -2.5294 Ry au,         -6.4290 Debye
        Dipole field         -0.0015 Ry au, 
 
        Potential amp.        0.1659 Ry
        Total length         54.7057 bohr
 

     total cpu time spent up to now is      499.5 secs

     total energy              =   -8078.61160306 Ry
     estimated scf accuracy    <       0.48037740 Ry

     total magnetization       =    97.22 Bohr mag/cell
     absolute magnetization    =    98.72 Bohr mag/cell

     iteration # 30     ecut=    50.00 Ry     beta= 0.50
     Davidson diagonalization with overlap
     ethr =  4.34E-05,  avg # of iterations =  1.5
 
     Adding external electric field

     Computed dipole along edir(3) : 
        Dipole               -2.4907 Ry au,         -6.3306 Debye
        Dipole field         -0.0015 Ry au, 
 
        Potential amp.        0.1634 Ry
        Total length         54.7057 bohr
 
 
     Adding external electric field

     Computed dipole along edir(3) : 
        Dipole               -2.4907 Ry au,         -6.3306 Debye
        Dipole field         -0.0015 Ry au, 
 
        Potential amp.        0.1634 Ry
        Total length         54.7057 bohr
 

     total cpu time spent up to now is      513.3 secs

     total energy              =   -8078.60597469 Ry
     estimated scf accuracy    <       0.33302336 Ry

     total magnetization       =    97.27 Bohr mag/cell
     absolute magnetization    =    98.71 Bohr mag/cell

     iteration # 31     ecut=    50.00 Ry     beta= 0.50
     Davidson diagonalization with overlap
     ethr =  3.01E-05,  avg # of iterations =  2.0
 
     Adding external electric field

     Computed dipole along edir(3) : 
        Dipole               -2.3219 Ry au,         -5.9017 Debye
        Dipole field         -0.0014 Ry au, 
 
        Potential amp.        0.1523 Ry
        Total length         54.7057 bohr
 
 
     Adding external electric field

     Computed dipole along edir(3) : 
        Dipole               -2.3219 Ry au,         -5.9017 Debye
        Dipole field         -0.0014 Ry au, 
 
        Potential amp.        0.1523 Ry
        Total length         54.7057 bohr
 

     total cpu time spent up to now is      528.6 secs

     total energy              =   -8078.60261803 Ry
     estimated scf accuracy    <       0.20514575 Ry

     total magnetization       =    97.64 Bohr mag/cell
     absolute magnetization    =    99.05 Bohr mag/cell

     iteration # 32     ecut=    50.00 Ry     beta= 0.50
     Davidson diagonalization with overlap
     ethr =  1.85E-05,  avg # of iterations = 12.5
 
     Adding external electric field

     Computed dipole along edir(3) : 
        Dipole               -2.1478 Ry au,         -5.4591 Debye
        Dipole field         -0.0013 Ry au, 
 
        Potential amp.        0.1409 Ry
        Total length         54.7057 bohr
 
 
     Adding external electric field

     Computed dipole along edir(3) : 
        Dipole               -2.1478 Ry au,         -5.4591 Debye
        Dipole field         -0.0013 Ry au, 
 
        Potential amp.        0.1409 Ry
        Total length         54.7057 bohr
 

     total cpu time spent up to now is      560.7 secs

     total energy              =   -8078.60120789 Ry
     estimated scf accuracy    <       0.19395720 Ry

     total magnetization       =    97.75 Bohr mag/cell
     absolute magnetization    =    99.09 Bohr mag/cell

     iteration # 33     ecut=    50.00 Ry     beta= 0.50
     Davidson diagonalization with overlap
     ethr =  1.75E-05,  avg # of iterations =  1.5
 
     Adding external electric field

     Computed dipole along edir(3) : 
        Dipole               -1.9619 Ry au,         -4.9868 Debye
        Dipole field         -0.0012 Ry au, 
 
        Potential amp.        0.1287 Ry
        Total length         54.7057 bohr
 
 
     Adding external electric field

     Computed dipole along edir(3) : 
        Dipole               -1.9619 Ry au,         -4.9868 Debye
        Dipole field         -0.0012 Ry au, 
 
        Potential amp.        0.1287 Ry
        Total length         54.7057 bohr
 

     total cpu time spent up to now is      575.7 secs

     total energy              =   -8078.59507279 Ry
     estimated scf accuracy    <       0.27983500 Ry

     total magnetization       =    97.25 Bohr mag/cell
     absolute magnetization    =    98.54 Bohr mag/cell

     iteration # 34     ecut=    50.00 Ry     beta= 0.50
     Davidson diagonalization with overlap
     ethr =  1.75E-05,  avg # of iterations =  2.0
 
     Adding external electric field

     Computed dipole along edir(3) : 
        Dipole               -2.0085 Ry au,         -5.1051 Debye
        Dipole field         -0.0012 Ry au, 
 
        Potential amp.        0.1317 Ry
        Total length         54.7057 bohr
 
 
     Adding external electric field

     Computed dipole along edir(3) : 
        Dipole               -2.0085 Ry au,         -5.1051 Debye
        Dipole field         -0.0012 Ry au, 
 
        Potential amp.        0.1317 Ry
        Total length         54.7057 bohr
 

     total cpu time spent up to now is      591.8 secs

     total energy              =   -8078.59406028 Ry
     estimated scf accuracy    <       0.45095205 Ry

     total magnetization       =    97.30 Bohr mag/cell
     absolute magnetization    =    98.57 Bohr mag/cell

     iteration # 35     ecut=    50.00 Ry     beta= 0.50
     Davidson diagonalization with overlap
     ethr =  1.75E-05,  avg # of iterations =  1.5
 
     Adding external electric field

     Computed dipole along edir(3) : 
        Dipole               -2.1015 Ry au,         -5.3415 Debye
        Dipole field         -0.0013 Ry au, 
 
        Potential amp.        0.1378 Ry
        Total length         54.7057 bohr
 
 
     Adding external electric field

     Computed dipole along edir(3) : 
        Dipole               -2.1015 Ry au,         -5.3415 Debye
        Dipole field         -0.0013 Ry au, 
 
        Potential amp.        0.1378 Ry
        Total length         54.7057 bohr
 

     total cpu time spent up to now is      607.0 secs

     total energy              =   -8078.59942153 Ry
     estimated scf accuracy    <       0.24201962 Ry

     total magnetization       =    97.61 Bohr mag/cell
     absolute magnetization    =    98.87 Bohr mag/cell

     iteration # 36     ecut=    50.00 Ry     beta= 0.50
     Davidson diagonalization with overlap
     ethr =  1.75E-05,  avg # of iterations =  1.0
 
     Adding external electric field

     Computed dipole along edir(3) : 
        Dipole               -1.9244 Ry au,         -4.8914 Debye
        Dipole field         -0.0012 Ry au, 
 
        Potential amp.        0.1262 Ry
        Total length         54.7057 bohr
 
 
     Adding external electric field

     Computed dipole along edir(3) : 
        Dipole               -1.9244 Ry au,         -4.8914 Debye
        Dipole field         -0.0012 Ry au, 
 
        Potential amp.        0.1262 Ry
        Total length         54.7057 bohr
 

     total cpu time spent up to now is      621.0 secs

     total energy              =   -8078.59505622 Ry
     estimated scf accuracy    <       0.20701311 Ry

     total magnetization       =    97.70 Bohr mag/cell
     absolute magnetization    =    98.98 Bohr mag/cell

     iteration # 37     ecut=    50.00 Ry     beta= 0.50
     Davidson diagonalization with overlap
     ethr =  1.75E-05,  avg # of iterations =  1.5
 
     Adding external electric field

     Computed dipole along edir(3) : 
        Dipole               -2.0386 Ry au,         -5.1816 Debye
        Dipole field         -0.0012 Ry au, 
 
        Potential amp.        0.1337 Ry
        Total length         54.7057 bohr
 
 
     Adding external electric field

     Computed dipole along edir(3) : 
        Dipole               -2.0386 Ry au,         -5.1816 Debye
        Dipole field         -0.0012 Ry au, 
 
        Potential amp.        0.1337 Ry
        Total length         54.7057 bohr
 

     total cpu time spent up to now is      635.7 secs

     total energy              =   -8078.59618967 Ry
     estimated scf accuracy    <       0.26789592 Ry

     total magnetization       =    97.40 Bohr mag/cell
     absolute magnetization    =    98.67 Bohr mag/cell

     iteration # 38     ecut=    50.00 Ry     beta= 0.50
     Davidson diagonalization with overlap
     ethr =  1.75E-05,  avg # of iterations =  1.5
 
     Adding external electric field

     Computed dipole along edir(3) : 
        Dipole               -1.9082 Ry au,         -4.8502 Debye
        Dipole field         -0.0011 Ry au, 
 
        Potential amp.        0.1252 Ry
        Total length         54.7057 bohr
 
 
     Adding external electric field

     Computed dipole along edir(3) : 
        Dipole               -1.9082 Ry au,         -4.8502 Debye
        Dipole field         -0.0011 Ry au, 
 
        Potential amp.        0.1252 Ry
        Total length         54.7057 bohr
 

     total cpu time spent up to now is      650.3 secs

     total energy              =   -8078.59226204 Ry
     estimated scf accuracy    <       0.16934193 Ry

     total magnetization       =    97.17 Bohr mag/cell
     absolute magnetization    =    98.46 Bohr mag/cell

     iteration # 39     ecut=    50.00 Ry     beta= 0.50
     Davidson diagonalization with overlap
     ethr =  1.53E-05,  avg # of iterations =  1.5
 
     Adding external electric field

     Computed dipole along edir(3) : 
        Dipole               -1.9411 Ry au,         -4.9337 Debye
        Dipole field         -0.0012 Ry au, 
 
        Potential amp.        0.1273 Ry
        Total length         54.7057 bohr
 
 
     Adding external electric field

     Computed dipole along edir(3) : 
        Dipole               -1.9411 Ry au,         -4.9337 Debye
        Dipole field         -0.0012 Ry au, 
 
        Potential amp.        0.1273 Ry
        Total length         54.7057 bohr
 

     total cpu time spent up to now is      665.1 secs

     total energy              =   -8078.59629871 Ry
     estimated scf accuracy    <       0.32083658 Ry

     total magnetization       =    97.42 Bohr mag/cell
     absolute magnetization    =    98.72 Bohr mag/cell

     iteration # 40     ecut=    50.00 Ry     beta= 0.50
     Davidson diagonalization with overlap
     ethr =  1.53E-05,  avg # of iterations =  1.5
 
     Adding external electric field

     Computed dipole along edir(3) : 
        Dipole               -1.7407 Ry au,         -4.4244 Debye
        Dipole field         -0.0010 Ry au, 
 
        Potential amp.        0.1142 Ry
        Total length         54.7057 bohr
 
 
     Adding external electric field

     Computed dipole along edir(3) : 
        Dipole               -1.7407 Ry au,         -4.4244 Debye
        Dipole field         -0.0010 Ry au, 
 
        Potential amp.        0.1142 Ry
        Total length         54.7057 bohr
 

     total cpu time spent up to now is      680.1 secs

     total energy              =   -8078.59062610 Ry
     estimated scf accuracy    <       0.28065397 Ry

     total magnetization       =    97.34 Bohr mag/cell
     absolute magnetization    =    98.66 Bohr mag/cell

     iteration # 41     ecut=    50.00 Ry     beta= 0.50
     Davidson diagonalization with overlap
     ethr =  1.53E-05,  avg # of iterations =  2.0
 
     Adding external electric field

     Computed dipole along edir(3) : 
        Dipole               -1.5756 Ry au,         -4.0049 Debye
        Dipole field         -0.0009 Ry au, 
 
        Potential amp.        0.1033 Ry
        Total length         54.7057 bohr
 
 
     Adding external electric field

     Computed dipole along edir(3) : 
        Dipole               -1.5756 Ry au,         -4.0049 Debye
        Dipole field         -0.0009 Ry au, 
 
        Potential amp.        0.1033 Ry
        Total length         54.7057 bohr
 

     total cpu time spent up to now is      695.9 secs

     total energy              =   -8078.58546219 Ry
     estimated scf accuracy    <       0.35593215 Ry

     total magnetization       =    97.34 Bohr mag/cell
     absolute magnetization    =    98.65 Bohr mag/cell

     iteration # 42     ecut=    50.00 Ry     beta= 0.50
     Davidson diagonalization with overlap
     ethr =  1.53E-05,  avg # of iterations =  1.0
 
     Adding external electric field

     Computed dipole along edir(3) : 
        Dipole               -1.6352 Ry au,         -4.1562 Debye
        Dipole field         -0.0010 Ry au, 
 
        Potential amp.        0.1072 Ry
        Total length         54.7057 bohr
 
 
     Adding external electric field

     Computed dipole along edir(3) : 
        Dipole               -1.6352 Ry au,         -4.1562 Debye
        Dipole field         -0.0010 Ry au, 
 
        Potential amp.        0.1072 Ry
        Total length         54.7057 bohr
 

     total cpu time spent up to now is      709.8 secs

     total energy              =   -8078.58657113 Ry
     estimated scf accuracy    <       0.27939864 Ry

     total magnetization       =    97.41 Bohr mag/cell
     absolute magnetization    =    98.75 Bohr mag/cell

     iteration # 43     ecut=    50.00 Ry     beta= 0.50
     Davidson diagonalization with overlap
     ethr =  1.53E-05,  avg # of iterations =  1.5
 
     Adding external electric field

     Computed dipole along edir(3) : 
        Dipole               -1.4630 Ry au,         -3.7187 Debye
        Dipole field         -0.0009 Ry au, 
 
        Potential amp.        0.0960 Ry
        Total length         54.7057 bohr
 
 
     Adding external electric field

     Computed dipole along edir(3) : 
        Dipole               -1.4630 Ry au,         -3.7187 Debye
        Dipole field         -0.0009 Ry au, 
 
        Potential amp.        0.0960 Ry
        Total length         54.7057 bohr
 

     total cpu time spent up to now is      725.0 secs

     total energy              =   -8078.58132469 Ry
     estimated scf accuracy    <       0.17564428 Ry

     total magnetization       =    97.73 Bohr mag/cell
     absolute magnetization    =    99.07 Bohr mag/cell

     iteration # 44     ecut=    50.00 Ry     beta= 0.50
     Davidson diagonalization with overlap
     ethr =  1.53E-05,  avg # of iterations =  1.5

     negative rho (up, down):  2.651E-07 2.305E-07
 
     Adding external electric field

     Computed dipole along edir(3) : 
        Dipole               -1.0575 Ry au,         -2.6878 Debye
        Dipole field         -0.0006 Ry au, 
 
        Potential amp.        0.0694 Ry
        Total length         54.7057 bohr
 
 
     Adding external electric field

     Computed dipole along edir(3) : 
        Dipole               -1.0575 Ry au,         -2.6878 Debye
        Dipole field         -0.0006 Ry au, 
 
        Potential amp.        0.0694 Ry
        Total length         54.7057 bohr
 

     total cpu time spent up to now is      740.1 secs

     total energy              =   -8078.57035819 Ry
     estimated scf accuracy    <       0.16130384 Ry

     total magnetization       =    97.49 Bohr mag/cell
     absolute magnetization    =    98.85 Bohr mag/cell

     iteration # 45     ecut=    50.00 Ry     beta= 0.50
     Davidson diagonalization with overlap
     ethr =  1.46E-05,  avg # of iterations =  3.5
 
     Adding external electric field

     Computed dipole along edir(3) : 
        Dipole               -1.0485 Ry au,         -2.6650 Debye
        Dipole field         -0.0006 Ry au, 
 
        Potential amp.        0.0688 Ry
        Total length         54.7057 bohr
 
 
     Adding external electric field

     Computed dipole along edir(3) : 
        Dipole               -1.0485 Ry au,         -2.6650 Debye
        Dipole field         -0.0006 Ry au, 
 
        Potential amp.        0.0688 Ry
        Total length         54.7057 bohr
 

     total cpu time spent up to now is      757.1 secs

     total energy              =   -8078.56885213 Ry
     estimated scf accuracy    <       0.06622817 Ry

     total magnetization       =    97.21 Bohr mag/cell
     absolute magnetization    =    98.56 Bohr mag/cell

     iteration # 46     ecut=    50.00 Ry     beta= 0.50
     Davidson diagonalization with overlap
     c_bands:  3 eigenvalues not converged
     ethr =  5.98E-06,  avg # of iterations = 11.0

     negative rho (up, down):  6.623E-06 5.197E-06
 
     Adding external electric field

     Computed dipole along edir(3) : 
        Dipole               -0.2813 Ry au,         -0.7149 Debye
        Dipole field         -0.0002 Ry au, 
 
        Potential amp.        0.0184 Ry
        Total length         54.7057 bohr
 
 
     Adding external electric field

     Computed dipole along edir(3) : 
        Dipole               -0.2813 Ry au,         -0.7149 Debye
        Dipole field         -0.0002 Ry au, 
 
        Potential amp.        0.0184 Ry
        Total length         54.7057 bohr
 

     total cpu time spent up to now is      781.5 secs

     total energy              =   -8078.55902572 Ry
     estimated scf accuracy    <       0.07191143 Ry

     total magnetization       =    97.58 Bohr mag/cell
     absolute magnetization    =    98.87 Bohr mag/cell

     iteration # 47     ecut=    50.00 Ry     beta= 0.50
     Davidson diagonalization with overlap
     ethr =  5.98E-06,  avg # of iterations = 11.5
 
     Adding external electric field

     Computed dipole along edir(3) : 
        Dipole               -0.5587 Ry au,         -1.4201 Debye
        Dipole field         -0.0003 Ry au, 
 
        Potential amp.        0.0366 Ry
        Total length         54.7057 bohr
 
 
     Adding external electric field

     Computed dipole along edir(3) : 
        Dipole               -0.5587 Ry au,         -1.4201 Debye
        Dipole field         -0.0003 Ry au, 
 
        Potential amp.        0.0366 Ry
        Total length         54.7057 bohr
 

     total cpu time spent up to now is      809.6 secs

     total energy              =   -8078.55989865 Ry
     estimated scf accuracy    <       0.09041310 Ry

     total magnetization       =    97.39 Bohr mag/cell
     absolute magnetization    =    98.65 Bohr mag/cell

     iteration # 48     ecut=    50.00 Ry     beta= 0.50
     Davidson diagonalization with overlap
     ethr =  5.98E-06,  avg # of iterations =  2.0

     negative rho (up, down):  1.694E-03 1.824E-03
 
     Adding external electric field

     Computed dipole along edir(3) : 
        Dipole               -0.1462 Ry au,         -0.3717 Debye
        Dipole field         -0.0001 Ry au, 
 
        Potential amp.        0.0096 Ry
        Total length         54.7057 bohr
 
 
     Adding external electric field

     Computed dipole along edir(3) : 
        Dipole               -0.1462 Ry au,         -0.3717 Debye
        Dipole field         -0.0001 Ry au, 
 
        Potential amp.        0.0096 Ry
        Total length         54.7057 bohr
 

     total cpu time spent up to now is      825.4 secs

     total energy              =   -8078.55706233 Ry
     estimated scf accuracy    <       0.04151876 Ry

     total magnetization       =    97.70 Bohr mag/cell
     absolute magnetization    =    98.92 Bohr mag/cell

     iteration # 49     ecut=    50.00 Ry     beta= 0.50
     Davidson diagonalization with overlap
     c_bands:  3 eigenvalues not converged
     ethr =  3.75E-06,  avg # of iterations = 13.0

     negative rho (up, down):  1.983E-03 2.208E-03
 
     Adding external electric field

     Computed dipole along edir(3) : 
        Dipole               -0.1761 Ry au,         -0.4475 Debye
        Dipole field         -0.0001 Ry au, 
 
        Potential amp.        0.0115 Ry
        Total length         54.7057 bohr
 
 
     Adding external electric field

     Computed dipole along edir(3) : 
        Dipole               -0.1761 Ry au,         -0.4475 Debye
        Dipole field         -0.0001 Ry au, 
 
        Potential amp.        0.0115 Ry
        Total length         54.7057 bohr
 

     total cpu time spent up to now is      852.3 secs

     total energy              =   -8078.55795660 Ry
     estimated scf accuracy    <       0.05549783 Ry

     total magnetization       =    97.28 Bohr mag/cell
     absolute magnetization    =    98.48 Bohr mag/cell

     iteration # 50     ecut=    50.00 Ry     beta= 0.50
     Davidson diagonalization with overlap
     ethr =  3.75E-06,  avg # of iterations =  1.5

     negative rho (up, down):  1.903E-03 1.983E-03
 
     Adding external electric field

     Computed dipole along edir(3) : 
        Dipole               -0.2190 Ry au,         -0.5567 Debye
        Dipole field         -0.0001 Ry au, 
 
        Potential amp.        0.0144 Ry
        Total length         54.7057 bohr
 
 
     Adding external electric field

     Computed dipole along edir(3) : 
        Dipole               -0.2190 Ry au,         -0.5567 Debye
        Dipole field         -0.0001 Ry au, 
 
        Potential amp.        0.0144 Ry
        Total length         54.7057 bohr
 

     total cpu time spent up to now is      868.5 secs

     total energy              =   -8078.55838590 Ry
     estimated scf accuracy    <       0.01588651 Ry

     total magnetization       =    97.50 Bohr mag/cell
     absolute magnetization    =    98.69 Bohr mag/cell

     iteration # 51     ecut=    50.00 Ry     beta= 0.50
     Davidson diagonalization with overlap
     ethr =  1.43E-06,  avg # of iterations =  2.0

     negative rho (up, down):  2.825E-03 2.954E-03
 
     Adding external electric field

     Computed dipole along edir(3) : 
        Dipole               -0.1778 Ry au,         -0.4520 Debye
        Dipole field         -0.0001 Ry au, 
 
        Potential amp.        0.0117 Ry
        Total length         54.7057 bohr
 
 
     Adding external electric field

     Computed dipole along edir(3) : 
        Dipole               -0.1778 Ry au,         -0.4520 Debye
        Dipole field         -0.0001 Ry au, 
 
        Potential amp.        0.0117 Ry
        Total length         54.7057 bohr
 

     total cpu time spent up to now is      885.3 secs

     total energy              =   -8078.55826673 Ry
     estimated scf accuracy    <       0.00601199 Ry

     total magnetization       =    97.52 Bohr mag/cell
     absolute magnetization    =    98.71 Bohr mag/cell

     iteration # 52     ecut=    50.00 Ry     beta= 0.50
     Davidson diagonalization with overlap
     ethr =  5.43E-07,  avg # of iterations =  2.0

     negative rho (up, down):  2.566E-03 2.567E-03
 
     Adding external electric field

     Computed dipole along edir(3) : 
        Dipole               -0.1601 Ry au,         -0.4069 Debye
        Dipole field         -0.0001 Ry au, 
 
        Potential amp.        0.0105 Ry
        Total length         54.7057 bohr
 
 
     Adding external electric field

     Computed dipole along edir(3) : 
        Dipole               -0.1601 Ry au,         -0.4069 Debye
        Dipole field         -0.0001 Ry au, 
 
        Potential amp.        0.0105 Ry
        Total length         54.7057 bohr
 

     total cpu time spent up to now is      902.7 secs

     total energy              =   -8078.55834306 Ry
     estimated scf accuracy    <       0.00433908 Ry

     total magnetization       =    97.43 Bohr mag/cell
     absolute magnetization    =    98.63 Bohr mag/cell

     iteration # 53     ecut=    50.00 Ry     beta= 0.50
     Davidson diagonalization with overlap
     ethr =  3.92E-07,  avg # of iterations =  2.0

     negative rho (up, down):  1.850E-03 1.780E-03
 
     Adding external electric field

     Computed dipole along edir(3) : 
        Dipole               -0.1640 Ry au,         -0.4169 Debye
        Dipole field         -0.0001 Ry au, 
 
        Potential amp.        0.0108 Ry
        Total length         54.7057 bohr
 
 
     Adding external electric field

     Computed dipole along edir(3) : 
        Dipole               -0.1640 Ry au,         -0.4169 Debye
        Dipole field         -0.0001 Ry au, 
 
        Potential amp.        0.0108 Ry
        Total length         54.7057 bohr
 

     total cpu time spent up to now is      919.9 secs

     total energy              =   -8078.55850769 Ry
     estimated scf accuracy    <       0.00177636 Ry

     total magnetization       =    97.49 Bohr mag/cell
     absolute magnetization    =    98.70 Bohr mag/cell

     iteration # 54     ecut=    50.00 Ry     beta= 0.50
     Davidson diagonalization with overlap
     ethr =  1.60E-07,  avg # of iterations =  1.5

     negative rho (up, down):  2.426E-03 2.350E-03
 
     Adding external electric field

     Computed dipole along edir(3) : 
        Dipole               -0.1344 Ry au,         -0.3415 Debye
        Dipole field         -0.0001 Ry au, 
 
        Potential amp.        0.0088 Ry
        Total length         54.7057 bohr
 
 
     Adding external electric field

     Computed dipole along edir(3) : 
        Dipole               -0.1344 Ry au,         -0.3415 Debye
        Dipole field         -0.0001 Ry au, 
 
        Potential amp.        0.0088 Ry
        Total length         54.7057 bohr
 

     total cpu time spent up to now is      936.4 secs

     total energy              =   -8078.55873436 Ry
     estimated scf accuracy    <       0.00189238 Ry

     total magnetization       =    97.54 Bohr mag/cell
     absolute magnetization    =    98.75 Bohr mag/cell

     iteration # 55     ecut=    50.00 Ry     beta= 0.50
     Davidson diagonalization with overlap
     ethr =  1.60E-07,  avg # of iterations =  2.0

     negative rho (up, down):  1.081E-03 8.914E-04
 
     Adding external electric field

     Computed dipole along edir(3) : 
        Dipole               -0.1532 Ry au,         -0.3893 Debye
        Dipole field         -0.0001 Ry au, 
 
        Potential amp.        0.0100 Ry
        Total length         54.7057 bohr
 
 
     Adding external electric field

     Computed dipole along edir(3) : 
        Dipole               -0.1532 Ry au,         -0.3893 Debye
        Dipole field         -0.0001 Ry au, 
 
        Potential amp.        0.0100 Ry
        Total length         54.7057 bohr
 

     total cpu time spent up to now is      953.7 secs

     total energy              =   -8078.55883674 Ry
     estimated scf accuracy    <       0.00245040 Ry

     total magnetization       =    97.42 Bohr mag/cell
     absolute magnetization    =    98.64 Bohr mag/cell

     iteration # 56     ecut=    50.00 Ry     beta= 0.50
     Davidson diagonalization with overlap
     ethr =  1.60E-07,  avg # of iterations =  2.0

     negative rho (up, down):  5.885E-04 3.721E-04
 
     Adding external electric field

     Computed dipole along edir(3) : 
        Dipole               -0.1607 Ry au,         -0.4084 Debye
        Dipole field         -0.0001 Ry au, 
 
        Potential amp.        0.0105 Ry
        Total length         54.7057 bohr
 
 
     Adding external electric field

     Computed dipole along edir(3) : 
        Dipole               -0.1607 Ry au,         -0.4084 Debye
        Dipole field         -0.0001 Ry au, 
 
        Potential amp.        0.0105 Ry
        Total length         54.7057 bohr
 

     total cpu time spent up to now is      970.0 secs

     total energy              =   -8078.55886918 Ry
     estimated scf accuracy    <       0.00031753 Ry

     total magnetization       =    97.46 Bohr mag/cell
     absolute magnetization    =    98.68 Bohr mag/cell

     iteration # 57     ecut=    50.00 Ry     beta= 0.50
     Davidson diagonalization with overlap
     ethr =  2.87E-08,  avg # of iterations =  2.0

     negative rho (up, down):  2.451E-04 4.389E-05
 
     Adding external electric field

     Computed dipole along edir(3) : 
        Dipole               -0.1678 Ry au,         -0.4265 Debye
        Dipole field         -0.0001 Ry au, 
 
        Potential amp.        0.0110 Ry
        Total length         54.7057 bohr
 
 
     Adding external electric field

     Computed dipole along edir(3) : 
        Dipole               -0.1678 Ry au,         -0.4265 Debye
        Dipole field         -0.0001 Ry au, 
 
        Potential amp.        0.0110 Ry
        Total length         54.7057 bohr
 

     total cpu time spent up to now is      986.6 secs

     total energy              =   -8078.55889920 Ry
     estimated scf accuracy    <       0.00095137 Ry

     total magnetization       =    97.47 Bohr mag/cell
     absolute magnetization    =    98.69 Bohr mag/cell

     iteration # 58     ecut=    50.00 Ry     beta= 0.50
     Davidson diagonalization with overlap
     ethr =  2.87E-08,  avg # of iterations =  2.0

     negative rho (up, down):  4.527E-04 1.340E-04
 
     Adding external electric field

     Computed dipole along edir(3) : 
        Dipole               -0.1677 Ry au,         -0.4262 Debye
        Dipole field         -0.0001 Ry au, 
 
        Potential amp.        0.0110 Ry
        Total length         54.7057 bohr
 
 
     Adding external electric field

     Computed dipole along edir(3) : 
        Dipole               -0.1677 Ry au,         -0.4262 Debye
        Dipole field         -0.0001 Ry au, 
 
        Potential amp.        0.0110 Ry
        Total length         54.7057 bohr
 

     total cpu time spent up to now is     1003.7 secs

     total energy              =   -8078.55890591 Ry
     estimated scf accuracy    <       0.00027361 Ry

     total magnetization       =    97.46 Bohr mag/cell
     absolute magnetization    =    98.68 Bohr mag/cell

     iteration # 59     ecut=    50.00 Ry     beta= 0.50
     Davidson diagonalization with overlap
     ethr =  2.47E-08,  avg # of iterations =  2.0

     negative rho (up, down):  5.013E-04 1.442E-04
 
     Adding external electric field

     Computed dipole along edir(3) : 
[...]
    -5.9998  -5.9842  -5.9626  -5.9441  -5.8998  -5.8877  -5.8751  -5.8546
    -5.8471  -5.8349  -5.8079  -5.7805  -5.7723  -5.7316  -5.7065  -5.6843
    -5.6802  -5.6354  -5.6191  -5.6083  -5.5958  -5.5883  -5.5703  -5.5496
    -5.5359  -5.5132  -5.5059  -5.4828  -5.4812  -5.4777  -5.4433  -5.3747
    -5.3518  -5.3096  -5.2723  -5.2598  -5.2579  -5.2509  -5.2394  -5.1703
    -5.1257  -5.1155  -5.0848  -5.0558  -5.0313  -5.0016  -4.9295  -4.9081
    -4.8794  -4.8266  -4.8205  -4.7984  -4.7929  -4.7541  -4.7411  -4.7042
    -4.6702  -4.6340  -4.5952  -4.5729  -4.5498  -4.4534  -4.4149  -4.3984
    -4.3897  -4.3804  -4.3575  -4.2979  -4.2687  -4.2305  -4.2263  -4.2106
    -4.1857  -4.1638  -4.1181  -4.0602  -4.0412  -3.9967  -3.9906  -3.9650
    -3.9034  -3.8675  -3.8434  -3.8379  -3.8185  -3.7535  -3.7449  -3.7406
    -3.7257  -3.7024  -3.6817  -3.6408  -3.6292  -3.6093  -3.6052  -3.5822
    -3.5455  -3.5344  -3.5274  -3.5129  -3.5021  -3.4896  -3.4547  -3.4322
    -3.4142  -3.3875  -3.3842  -3.3804  -3.3697  -3.3634  -3.3318  -3.3175
    -3.2932  -3.2862  -3.2770  -3.2411  -3.2218  -3.1969  -3.1699  -3.1512
    -3.1431  -3.0914  -3.0841  -3.0683  -3.0472  -3.0407  -3.0234  -3.0097
    -2.9822  -2.9544  -2.9277  -2.9026  -2.8741  -2.8603  -2.8496  -2.8281
    -2.8071  -2.7890  -2.7286  -2.7167  -2.7109  -2.6987  -2.6955  -2.6828
    -2.6702  -2.6566  -2.6536  -2.6302  -2.6113  -2.5990  -2.5826  -2.5781
    -2.5575  -2.5451  -2.5309  -2.5122  -2.5075  -2.5048  -2.4821  -2.4688
    -2.4378  -2.4217  -2.4046  -2.3904  -2.3795  -2.3430  -2.3410  -2.3193
    -2.3002  -2.2831  -2.2738  -2.2521  -2.2238  -2.2025  -2.1970  -2.1899
    -2.1595  -2.1457  -2.1317  -2.0992  -2.0820  -2.0587  -2.0448  -2.0321
    -2.0137  -1.9963  -1.9803  -1.9737  -1.9578  -1.9185  -1.8932  -1.8875
    -1.8781  -1.8641  -1.8581  -1.8399  -1.8358  -1.8206  -1.8066  -1.8000
    -1.7292  -1.7004  -1.6857  -1.6544  -1.6416  -1.6350  -1.6173  -1.5946
    -1.5933  -1.5871  -1.5725  -1.5399  -1.5346  -1.5249  -1.4822  -1.4503
    -1.4313  -1.4233  -1.3821  -1.3707  -1.3568  -1.3411  -1.3280  -1.3204
    -1.3066  -1.2881  -1.2558  -1.2283  -1.1880  -1.1717  -1.1504  -1.1047
    -1.0789  -1.0273  -1.0133  -1.0030  -0.9956  -0.8505  -0.8357  -0.8076
    -0.7417  -0.6341  -0.6226  -0.5718  -0.4645  -0.4218  -0.2833  -0.2034
     0.1714   0.1836   0.2274   0.2465   0.2540   0.2805   0.2986   0.3108
     0.3297   0.3344   0.3611   0.3697   0.3726   0.3793   0.3907   0.3970
     0.4024   0.4054   0.4199   0.4227   0.4359   0.4472   0.4578   0.4622
     0.4668   0.4721   0.4795   0.4832   0.4969   0.5056   0.5115   0.5231
     0.5255   0.5338   0.5487   0.5627   0.5675   0.5720   0.5889   0.5958
     0.6020   0.6170   0.6243   0.6309   0.6360   0.6452   0.6534   0.6577
     0.6680   0.6719   0.6934   0.6971   0.7115   0.7157   0.7242   0.7325
     0.7344   0.7514   0.7684   0.7715   0.7835   0.7947   0.8016   0.8127
     0.8159   0.8320   0.8420   0.8505   0.8568   0.8622   0.8674   0.8919
     0.8998   0.9522   0.9732   1.0198   1.0331   1.0507   1.1228   1.1421
     1.6807   1.7551   1.7747   1.8035   1.8168   1.8234   1.8338   1.8669
     1.8773   1.8999   1.9297   1.9554   1.9743   1.9887   2.0045   2.0335
     2.0466   2.0788   2.0815   2.1015   2.1029   2.1316   2.1356   2.1641
     2.1740   2.1908   2.1962   2.2080   2.2252   2.2445   2.2698   2.2788
     2.2905   2.2956   2.3227   2.3433   2.3557   2.3737   2.4358   2.4430
     2.4619   2.4752   2.4923   2.5062   2.5225   2.5321   2.5890   2.5969
     2.6108   2.6503   2.6860   2.7956   2.8195   2.8545   2.8612   3.5523
     3.5996   3.6870   3.7504   3.7799   3.8224   3.8274   3.8434   3.8752
     3.8798   3.9357   3.9444   3.9591   3.9942   3.9980   4.0150   4.0298
     4.0625   4.0773   4.0911   4.1005   4.1340   4.1506   4.1641   4.1997
     4.2063   4.2182   4.2429   4.2614   4.3023   4.6017   4.6996   4.7653
     4.7824   4.8518   4.8935   4.9194   4.9737   4.9869   5.0072   5.0575
     5.0720   5.0971   5.1448   5.1665   5.2066   5.2177   5.3864   6.1785
     6.3500   6.4414   6.5729   6.7048   6.7145   6.7514   6.8498   6.8722
     6.9471   6.9629   7.0087   7.0515   7.2194   7.2988   7.3433   7.3608
     7.3819   7.4225   7.4865   7.5133   7.5711   7.5888   7.7073   7.7139
     7.8257   7.8404   7.8874   7.9193   7.9511   7.9919   8.0156   8.0493
     8.0728   8.1020   8.1102   8.1609   8.1945   8.2052   8.2349   8.2829
     8.3011   8.3370   8.3617   8.3658   8.3846   8.4100   8.4221   8.4413
     8.4553   8.4742   8.5270   8.5568   8.5606   8.5762   8.6085   8.6377
     8.6455

     the Fermi energy is     1.6820 ev

!    total energy              =   -8078.55892143 Ry
     estimated scf accuracy    <       0.00000046 Ry
     smearing contrib. (-TS)   =      -0.02331083 Ry
     internal energy E=F+TS    =   -8078.53561060 Ry

     The total energy is F=E-TS. E is the sum of the following terms:
     one-electron contribution =  -94695.57443135 Ry
     hartree contribution      =   47932.48062035 Ry
     xc contribution           =   -2177.38347366 Ry
     ewald contribution        =   40863.71209877 Ry
     Dispersion Correction     =      -1.77044086 Ry
     electric field correction =       0.00001615 Ry

     total magnetization       =    97.44 Bohr mag/cell
     absolute magnetization    =    98.66 Bohr mag/cell

     convergence has been achieved in  67 iterations

     negative rho (up, down):  1.163E-03 6.259E-04

     Forces acting on atoms (cartesian axes, Ry/au):

     atom    1 type  1   force =     0.02409862   -0.01763441    0.01997938
     atom    2 type  1   force =    -0.00189632    0.00030801   -0.00562329
     atom    3 type  2   force =    -0.03029763   -0.01565348   -0.00855910
     atom    4 type  1   force =     0.00194943   -0.00345421   -0.00463848
     atom    5 type  1   force =    -0.00381805    0.00218198   -0.00186661
     atom    6 type  1   force =     0.00247119    0.00744818   -0.00432778
     atom    7 type  1   force =     0.03191095   -0.01947743    0.01777552
     atom    8 type  2   force =    -0.00189967    0.00030687   -0.00920121
     atom    9 type  2   force =    -0.02881980   -0.01533178   -0.00854132
     atom   10 type  1   force =     0.00194740   -0.00318509   -0.00442844
     atom   11 type  1   force =    -0.00333282    0.00261723   -0.00102514
     atom   12 type  1   force =     0.00367833    0.00688022   -0.00383081
     atom   13 type  3   force =     0.00213044    0.00073482   -0.00757807
     atom   14 type  3   force =    -0.02976006    0.04990580   -0.06591420
     atom   15 type  3   force =     0.03466035    0.03760377   -0.05977702
     atom   16 type  3   force =    -0.00441142    0.00309359   -0.00094062
     atom   17 type  4   force =    -0.00196354    0.00140769    0.00290996
     atom   18 type  4   force =    -0.00156662   -0.00519741    0.02729841
     atom   19 type  4   force =     0.00393005    0.00275582    0.02943421
     atom   20 type  4   force =     0.00002495   -0.00267849   -0.00474770
     atom   21 type  4   force =    -0.00298090   -0.00225218    0.00333629
     atom   22 type  4   force =     0.00476819   -0.00334464    0.03440649
     atom   23 type  4   force =    -0.00600320   -0.00114565    0.03263075
     atom   24 type  4   force =     0.00062765   -0.00094957    0.00002090
     atom   25 type  4   force =    -0.00136685    0.00073647    0.00218787
     atom   26 type  4   force =    -0.01458444   -0.02261529   -0.00176112
     atom   27 type  4   force =     0.00187138   -0.00070680    0.00120938
     atom   28 type  4   force =    -0.01754258    0.00341393    0.00123961
     atom   29 type  4   force =     0.02054934   -0.00457739    0.00833059
     atom   30 type  4   force =     0.01246597   -0.03399962    0.00118035
     atom   31 type  4   force =     0.00057623    0.00084144    0.00232417
     atom   32 type  4   force =    -0.00222952    0.00005486    0.00267304
     atom   33 type  3   force =    -0.00054133   -0.00161381   -0.00505470
     atom   34 type  3   force =    -0.03021792    0.05981341   -0.08310665
     atom   35 type  3   force =     0.03460831    0.03341324   -0.05921413
     atom   36 type  3   force =    -0.00386362    0.00470125   -0.00071481
     atom   37 type  4   force =    -0.00102421    0.00139188    0.00317199
     atom   38 type  4   force =    -0.00303880   -0.00560867    0.03284679
     atom   39 type  4   force =     0.00438058    0.00386976    0.02918350
     atom   40 type  4   force =     0.00017617   -0.00318360   -0.00484016
     atom   41 type  4   force =    -0.00000947    0.00009912    0.00351613
     atom   42 type  4   force =     0.00545771    0.00021904    0.02017148
     atom   43 type  4   force =    -0.00180874    0.00031525    0.03472162
     atom   44 type  4   force =     0.00087878   -0.00082242    0.00001028
     atom   45 type  4   force =    -0.00022147   -0.00277491    0.00128262
     atom   46 type  4   force =    -0.01519871   -0.02026313   -0.00041960
     atom   47 type  4   force =     0.00199005   -0.00060328    0.00128755
     atom   48 type  4   force =    -0.01787103    0.00403451    0.00167394
     atom   49 type  4   force =     0.01635935   -0.00273866    0.00504209
     atom   50 type  4   force =     0.01185456   -0.03667842    0.00441737
     atom   51 type  4   force =     0.00111869    0.00083255    0.00171702
     atom   52 type  4   force =     0.00085444   -0.00223727    0.00363997
     atom   53 type  1   force =     0.00138473    0.00067329   -0.00073216
     atom   54 type  1   force =     0.00040317   -0.00075241    0.00279280
     atom   55 type  2   force =    -0.00011249   -0.00053750   -0.00074720
     atom   56 type  1   force =    -0.00098006    0.00065936   -0.00056444
     atom   57 type  1   force =     0.00027320    0.00006427    0.00025561
     atom   58 type  1   force =     0.00030803   -0.00013155    0.00020654
     atom   59 type  1   force =     0.00050786    0.00093062   -0.00095238
     atom   60 type  2   force =    -0.00091396   -0.00112594    0.00683374
     atom   61 type  2   force =    -0.00032027   -0.00032741   -0.00068668
     atom   62 type  1   force =    -0.00042580    0.00144163   -0.00008899
     atom   63 type  1   force =    -0.00037710    0.00024219    0.00027480
     atom   64 type  1   force =    -0.00012157   -0.00034914   -0.00001433
     atom   65 type  3   force =    -0.00072031   -0.00174344    0.00314295
     atom   66 type  3   force =     0.00012107   -0.00011788   -0.00158005
     atom   67 type  3   force =     0.00037961    0.00049867   -0.00126702
     atom   68 type  3   force =    -0.00109901   -0.00060350    0.00297656
     atom   69 type  4   force =    -0.00081197    0.00031013   -0.00166255
     atom   70 type  4   force =    -0.00009651    0.00009934    0.00040648
     atom   71 type  4   force =     0.00007967   -0.00025065    0.00029489
     atom   72 type  4   force =     0.00047778   -0.00043358   -0.00107981
     atom   73 type  4   force =     0.00077231    0.00033050   -0.00024123
     atom   74 type  4   force =    -0.00015138   -0.00069400    0.00190853
     atom   75 type  4   force =    -0.00012568   -0.00009240    0.00060659
     atom   76 type  4   force =    -0.00078045   -0.00085112    0.00158688
     atom   77 type  4   force =    -0.00083921    0.00078650   -0.00011663
     atom   78 type  4   force =    -0.00036215    0.00014202    0.00037159
     atom   79 type  4   force =     0.00015220    0.00091156   -0.00144714
     atom   80 type  4   force =     0.00013371    0.00061381    0.00030142
     atom   81 type  4   force =    -0.00051371   -0.00028418    0.00037636
     atom   82 type  4   force =     0.00013268   -0.00006131    0.00009386
     atom   83 type  4   force =     0.00047156    0.00075136   -0.00017869
     atom   84 type  4   force =    -0.00034595    0.00023629   -0.00102797
     atom   85 type  3   force =     0.00013572   -0.00046246    0.00079073
     atom   86 type  3   force =     0.00064312   -0.00057659   -0.00051266
     atom   87 type  3   force =    -0.00028830   -0.00003767   -0.00098757
     atom   88 type  3   force =    -0.00070534    0.00024109    0.00243135
     atom   89 type  4   force =    -0.00002361    0.00016954   -0.00051962
     atom   90 type  4   force =     0.00009057   -0.00043742    0.00163725
     atom   91 type  4   force =     0.00025548    0.00003301    0.00026723
     atom   92 type  4   force =     0.00065243   -0.00079479   -0.00124277
     atom   93 type  4   force =     0.00135548    0.00009426   -0.00016106
     atom   94 type  4   force =    -0.00027008    0.00003479    0.00145147
     atom   95 type  4   force =     0.00020703    0.00010285    0.00061966
     atom   96 type  4   force =    -0.00155195    0.00002140    0.00040034
     atom   97 type  4   force =     0.00072040   -0.00040602   -0.00149619
     atom   98 type  4   force =    -0.00058451   -0.00006878    0.00035459
     atom   99 type  4   force =     0.00063229    0.00107028   -0.00131729
     atom  100 type  4   force =     0.00064815    0.00038813    0.00050908
     atom  101 type  4   force =    -0.00042182   -0.00013760    0.00046392
     atom  102 type  4   force =     0.00093623   -0.00032400    0.00046529
     atom  103 type  4   force =     0.00097899   -0.00024781    0.00004621
     atom  104 type  4   force =    -0.00032151   -0.00102606   -0.00032112
     atom  105 type  1   force =     0.00004963   -0.00002095   -0.00020833
     atom  106 type  1   force =    -0.00081567   -0.00150552    0.00088643
     atom  107 type  2   force =     0.00003544   -0.00009769   -0.00000918
     atom  108 type  1   force =    -0.00057707   -0.00077462   -0.00021919
     atom  109 type  1   force =     0.00014043    0.00006433   -0.00022837
     atom  110 type  1   force =    -0.00032732    0.00027468   -0.00014241
     atom  111 type  1   force =     0.00009846    0.00010742    0.00004117
     atom  112 type  2   force =    -0.00018904    0.00022050   -0.00018039
     atom  113 type  2   force =     0.00014720    0.00010710   -0.00014994
     atom  114 type  1   force =     0.00019274    0.00065895    0.00041464
     atom  115 type  1   force =     0.00025646   -0.00012455   -0.00022916
     atom  116 type  1   force =    -0.00014135   -0.00009044    0.00014718
     atom  117 type  3   force =    -0.00029674   -0.00018031    0.00021430
     atom  118 type  3   force =    -0.00001639   -0.00008580   -0.00024139
     atom  119 type  3   force =    -0.00020598    0.00008957    0.00026158
     atom  120 type  3   force =     0.00013309    0.00002002    0.00010827
     atom  121 type  4   force =     0.00012934    0.00000923   -0.00025187
     atom  122 type  4   force =     0.00012752   -0.00002426    0.00049229
     atom  123 type  4   force =     0.00016988    0.00011987    0.00030854
     atom  124 type  4   force =    -0.00019671   -0.00029726    0.00031245
     atom  125 type  4   force =     0.00100351   -0.00030717    0.00025048
     atom  126 type  4   force =    -0.00056473    0.00026495    0.00005543
     atom  127 type  4   force =     0.00002977    0.00010238   -0.00000919
     atom  128 type  4   force =     0.00014705   -0.00058890   -0.00001005
     atom  129 type  4   force =    -0.00028641   -0.00003249    0.00014998
     atom  130 type  4   force =    -0.00001744   -0.00004489    0.00009066
     atom  131 type  4   force =     0.00044398    0.00000975   -0.00005228
     atom  132 type  4   force =     0.00026011    0.00029651   -0.00015479
     atom  133 type  4   force =    -0.00009602    0.00003007   -0.00009123
     atom  134 type  4   force =     0.00019142    0.00011886    0.00019487
     atom  135 type  4   force =     0.00038012    0.00026330    0.00019367
     atom  136 type  4   force =     0.00021134   -0.00032603    0.00014652
     atom  137 type  3   force =     0.00007207    0.00016464   -0.00000994
     atom  138 type  3   force =     0.00009412   -0.00018866   -0.00001917
     atom  139 type  3   force =     0.00039404    0.00025294    0.00004649
     atom  140 type  3   force =     0.00011326   -0.00041001   -0.00039145
     atom  141 type  4   force =    -0.00044840   -0.00007189    0.00036153
     atom  142 type  4   force =     0.00007883    0.00007343   -0.00012253
     atom  143 type  4   force =    -0.00018009    0.00044511    0.00015178
     atom  144 type  4   force =    -0.00033048   -0.00026519    0.00074287
     atom  145 type  4   force =     0.00024249    0.00021919    0.00021454
     atom  146 type  4   force =    -0.00023047   -0.00019319    0.00001301
     atom  147 type  4   force =     0.00014373    0.00010099    0.00007564
     atom  148 type  4   force =    -0.00021615   -0.00033950   -0.00005741
     atom  149 type  4   force =     0.00030286    0.00062241   -0.00002865
     atom  150 type  4   force =    -0.00006575    0.00030542   -0.00003454
     atom  151 type  4   force =    -0.00007133   -0.00008482    0.00013748
     atom  152 type  4   force =    -0.00028602   -0.00005577    0.00002627
     atom  153 type  4   force =     0.00002811    0.00025446    0.00004484
     atom  154 type  4   force =     0.00009372   -0.00037574   -0.00016458
     atom  155 type  4   force =    -0.00010711    0.00027035    0.00014242
     atom  156 type  4   force =     0.00021743    0.00006200    0.00057074
     atom  157 type  4   force =    -0.00550475    0.00901261    0.00219712
     atom  158 type  5   force =     0.00658419   -0.00628015   -0.00241662

     Total force =     0.225667     Total SCF correction =     0.002706
 
     init_run     :      8.83s CPU      9.51s WALL (       1 calls)
     electrons    :   1088.48s CPU   1137.13s WALL (       1 calls)
     forces       :      4.56s CPU      4.95s WALL (       1 calls)
     force_london :      0.11s CPU      0.11s WALL (       1 calls)

     Called by init_run:
     wfcinit      :      5.36s CPU      5.55s WALL (       1 calls)
     potinit      :      0.74s CPU      0.93s WALL (       1 calls)
     hinit0       :      1.40s CPU      1.51s WALL (       1 calls)

     Called by electrons:
     c_bands      :    864.01s CPU    891.48s WALL (      67 calls)
     sum_band     :    142.45s CPU    153.89s WALL (      67 calls)
     v_of_rho     :     19.34s CPU     20.44s WALL (      68 calls)
     newd         :     42.97s CPU     51.53s WALL (      68 calls)
     mix_rho      :     18.71s CPU     19.02s WALL (      67 calls)
     energy_londo :      0.10s CPU      0.10s WALL (       1 calls)

     Called by c_bands:
     init_us_2    :      2.52s CPU      2.56s WALL (     272 calls)
     init_us_2:cp :      2.52s CPU      2.56s WALL (     272 calls)
     regterg      :    848.89s CPU    873.80s WALL (     135 calls)

     Called by *egterg:
     rdiaghg      :    241.60s CPU    253.68s WALL (     520 calls)
     h_psi        :    329.65s CPU    335.57s WALL (     522 calls)
     s_psi        :     50.97s CPU     51.00s WALL (     522 calls)
     g_psi        :      0.40s CPU      0.40s WALL (     385 calls)

     Called by h_psi:
     h_psi:calbec :     77.22s CPU     81.97s WALL (     522 calls)
     vloc_psi     :    198.90s CPU    199.53s WALL (     522 calls)
     add_vuspsi   :     52.56s CPU     53.08s WALL (     522 calls)

     General routines
     calbec       :    114.59s CPU    121.53s WALL (     664 calls)
     fft          :     24.70s CPU     26.44s WALL (    1237 calls)
     ffts         :     10.95s CPU     10.96s WALL (    7295 calls)
     fftw         :    218.94s CPU    219.62s WALL (  233480 calls)
     interpolate  :      1.53s CPU      1.61s WALL (     136 calls)
 
     Parallel routines
 
     PWSCF        :  18m23.92s CPU  19m13.91s WALL

 
   This run was terminated on:  23:37:46  19Nov2025            

=------------------------------------------------------------------------------=
   JOB DONE.
=------------------------------------------------------------------------------=
