
     Program PWSCF v.7.2 starts on 17Nov2025 at 20:37: 8 

     This program is part of the open-source Quantum ESPRESSO suite
     for quantum simulation of materials; please cite
         "P. Giannozzi et al., J. Phys.:Condens. Matter 21 395502 (2009);
         "P. Giannozzi et al., J. Phys.:Condens. Matter 29 465901 (2017);
         "P. Giannozzi et al., J. Chem. Phys. 152 154105 (2020);
          URL http://www.quantum-espresso.org", 
     in publications or presentations arising from this work. More details at
     http://www.quantum-espresso.org/quote

     Parallel version (MPI), running on    64 processors

     MPI processes distributed on     4 nodes
     478677 MiB available memory on the printing compute node when the environment starts
 
     Reading input from PWINPUT_atm158_yp

     Current dimensions of program PWSCF are:
     Max number of different atomic species (ntypx) = 10
     Max number of k-points (npk) =  40000
     Max angular momentum in pseudopotentials (lmaxx) =  4
     Presently no symmetry can be used with electric field

     file Ni.pbe-n-rrkjus_psl.1.0.0.UPF: wavefunction(s)  3D renormalized
     file Mn.pbe-spn-rrkjus_psl.0.3.1.UPF: wavefunction(s)  3D renormalized
     file O.pbe-rrkjus.UPF: wavefunction(s)  2S renormalized
     file H.pbe-rrkjus.UPF: wavefunction(s)  1S renormalized

     gamma-point specific algorithms are used
 
     R & G space division:  proc/nbgrp/npool/nimage =      64
     Subspace diagonalization in iterative solution of the eigenvalue problem:
     one sub-group per band group will be used
     custom distributed-memory algorithm (size of sub-group:  7*  7 procs)

 
     Parallelization info
     --------------------
     sticks:   dense  smooth     PW     G-vecs:    dense   smooth      PW
     Min         214      85     20                61830    15614    1928
     Max         216      86     22                61864    15658    1982
     Sum       13727    5503   1375              3958051  1001255  125211
 
     Using Slab Decomposition
 


     bravais-lattice index     =            0
     lattice parameter (alat)  =      17.8532  a.u.
     unit-cell volume          =   20962.6682 (a.u.)^3
     number of atoms/cell      =          158
     number of atomic types    =            5
     number of electrons       =      1108.00
     number of Kohn-Sham states=          665
     kinetic-energy cutoff     =      50.0000  Ry
     charge density cutoff     =     500.0000  Ry
     scf convergence threshold =      1.0E-06
     mixing beta               =       0.1000
     number of iterations used =            8  local-TF  mixing
     Exchange-correlation=  SLA  PW   PBE  PBE
                           (   1   4   3   4   0   0   0)

     celldm(1)=  17.853155  celldm(2)=   0.000000  celldm(3)=   0.000000
     celldm(4)=   0.000000  celldm(5)=   0.000000  celldm(6)=   0.000000

     crystal axes: (cart. coord. in units of alat)
               a(1) = (   1.000000   0.000000   0.000000 )  
               a(2) = (   0.003237   1.081997   0.000000 )  
               a(3) = (   0.000000   0.000000   3.404673 )  

     reciprocal axes: (cart. coord. in units 2 pi/alat)
               b(1) = (  1.000000 -0.002992  0.000000 )  
               b(2) = (  0.000000  0.924217  0.000000 )  
               b(3) = (  0.000000  0.000000  0.293714 )  


     PseudoPot. # 1 for Ni read from file:
     ~/PSEUDO/Ni.pbe-n-rrkjus_psl.1.0.0.UPF
     MD5 check sum: Not computed, couldn't open file
     Pseudo is Ultrasoft + core correction, Zval = 10.0
     Generated using "atomic" code by A. Dal Corso  v.5.1.2
     Using radial grid of 1195 points,  6 beta functions with: 
                l(1) =   0
                l(2) =   0
                l(3) =   1
                l(4) =   1
                l(5) =   2
                l(6) =   2
     Q(r) pseudized with 0 coefficients 


     PseudoPot. # 2 for Mn read from file:
     ~/PSEUDO/Mn.pbe-spn-rrkjus_psl.0.3.1.UPF
     MD5 check sum: Not computed, couldn't open file
     Pseudo is Ultrasoft + core correction, Zval = 15.0
     Generated using &quot;atomic&quot; code by A. Dal Corso  v.6.2.2
     Using radial grid of 1187 points,  6 beta functions with: 
                l(1) =   0
                l(2) =   0
                l(3) =   1
                l(4) =   1
                l(5) =   2
                l(6) =   2
     Q(r) pseudized with 0 coefficients 


     PseudoPot. # 3 for P  read from file:
     ~/PSEUDO/P.pbe-n-rrkjus_psl.1.0.0.UPF
     MD5 check sum: Not computed, couldn't open file
     Pseudo is Ultrasoft + core correction, Zval =  5.0
     Generated using "atomic" code by A. Dal Corso  v.5.1
     Using radial grid of 1147 points,  6 beta functions with: 
                l(1) =   0
                l(2) =   0
                l(3) =   1
                l(4) =   1
                l(5) =   2
                l(6) =   2
     Q(r) pseudized with 0 coefficients 


     PseudoPot. # 4 for O  read from file:
     ~/PSEUDO/O.pbe-rrkjus.UPF
     MD5 check sum: Not computed, couldn't open file
     Pseudo is Ultrasoft, Zval =  6.0
     Generated by new atomic code, or converted to UPF format
     Using radial grid of 1269 points,  4 beta functions with: 
                l(1) =   0
                l(2) =   0
                l(3) =   1
                l(4) =   1
     Q(r) pseudized with 0 coefficients 


     PseudoPot. # 5 for H  read from file:
     ~/PSEUDO/H.pbe-rrkjus.UPF
     MD5 check sum: Not computed, couldn't open file
     Pseudo is Ultrasoft, Zval =  1.0
     Generated by new atomic code, or converted to UPF format
     Using radial grid of 1061 points,  2 beta functions with: 
                l(1) =   0
                l(2) =   0
     Q(r) pseudized with 0 coefficients 


     atomic species   valence    mass     pseudopotential
     Ni               10.00    58.69300     Ni( 1.00)
     Mn               15.00    54.93800     Mn( 1.00)
     P                 5.00    30.97300     P ( 1.00)
     O                 6.00    15.99900     O ( 1.00)
     H                 1.00     1.00790     H ( 1.00)

     Starting magnetic structure 
     atomic species   magnetization
     Ni              1.000
     Mn              1.000
     P               1.000
     O               1.000
     H               0.000

     No symmetry found



   Cartesian axes

     site n.     atom                  positions (alat units)
         1        Ni     tau(   1) = (   0.2448189   0.8359134   0.1216996  )
         2        Ni     tau(   2) = (   0.4920952   0.7731948   0.4438949  )
         3        Mn     tau(   3) = (   0.0113021   0.2918949   0.1160512  )
         4        Ni     tau(   4) = (   0.2586115   0.2268566   0.4417628  )
         5        Ni     tau(   5) = (   1.0019827   1.0705803   0.2835623  )
         6        Ni     tau(   6) = (   0.2518099   0.5339061   0.2823483  )
         7        Ni     tau(   7) = (   0.7400999   0.8349186   0.1225624  )
         8        Mn     tau(   8) = (   0.9886961   0.7700845   0.4492175  )
         9        Mn     tau(   9) = (   0.5113421   0.2944667   0.1158892  )
        10        Ni     tau(  10) = (   0.7560857   0.2263843   0.4422798  )
        11        Ni     tau(  11) = (   0.5009386   1.0712238   0.2822610  )
        12        Ni     tau(  12) = (   0.7496978   0.5336600   0.2834396  )
        13        P      tau(  13) = (   0.2147792   0.9686896   0.4382665  )
        14        P      tau(  14) = (   0.4607377   0.6441916   0.1265334  )
        15        P      tau(  15) = (   0.2883218   0.0913464   0.1265752  )
        16        P      tau(  16) = (   0.0408981   0.4221836   0.4354960  )
        17        O      tau(  17) = (   0.1380864   0.9007819   0.3023220  )
        18        O      tau(  18) = (   0.3817439   0.7113683   0.2624610  )
        19        O      tau(  19) = (   0.3638364   0.1608547   0.2624417  )
        20        O      tau(  20) = (   0.1207568   0.3545755   0.3021219  )
        21        O      tau(  21) = (   0.1552194   0.8797563   0.5625160  )
        22        O      tau(  22) = (   0.4022820   0.7317969   0.0010585  )
        23        O      tau(  23) = (   0.3454844   0.1823965   0.0026336  )
        24        O      tau(  24) = (   0.1017019   0.3344979   0.5594858  )
        25        O      tau(  25) = (   0.0970074   0.5770714   0.4346455  )
        26        O      tau(  26) = (   0.3534166   1.0203677   0.1270707  )
        27        O      tau(  27) = (   0.3778024   0.4172402   0.4261028  )
        28        O      tau(  28) = (   0.1256171   0.0954063   0.1372153  )
        29        O      tau(  29) = (   0.1232168   0.6482422   0.1385172  )
        30        O      tau(  30) = (   0.4028533   0.4897833   0.1289718  )
        31        O      tau(  31) = (   0.1511050   0.0405554   0.4369979  )
        32        O      tau(  32) = (   0.3776556   0.9624293   0.4288159  )
        33        P      tau(  33) = (   0.7084770   0.9682119   0.4394551  )
        34        P      tau(  34) = (   0.9603154   0.6409658   0.1292469  )
        35        P      tau(  35) = (   0.7875734   0.0899770   0.1274098  )
        36        P      tau(  36) = (   0.5405152   0.4272620   0.4364455  )
        37        O      tau(  37) = (   0.6323583   0.8977630   0.3036670  )
        38        O      tau(  38) = (   0.8809646   0.7091921   0.2627111  )
        39        O      tau(  39) = (   0.8631054   0.1587239   0.2636487  )
        40        O      tau(  40) = (   0.6202581   0.3578380   0.3034239  )
        41        O      tau(  41) = (   0.6499160   0.8772596   0.5630912  )
        42        O      tau(  42) = (   0.8990171   0.7283464   0.0054426  )
        43        O      tau(  43) = (   0.8448361   0.1806154   0.0030658  )
        44        O      tau(  44) = (   0.6023096   0.3392612   0.5600469  )
        45        O      tau(  45) = (   0.5960222   0.5826131   0.4346340  )
        46        O      tau(  46) = (   0.8515023   1.0184215   0.1281632  )
        47        O      tau(  47) = (   0.8779640   0.4148900   0.4260983  )
        48        O      tau(  48) = (   0.6251159   0.0957170   0.1376895  )
        49        O      tau(  49) = (   0.6237654   0.6481585   0.1378370  )
        50        O      tau(  50) = (   0.9038046   0.4863338   0.1307354  )
        51        O      tau(  51) = (   0.6458737   0.0402574   0.4377979  )
        52        O      tau(  52) = (   0.8712434   0.9635255   0.4285638  )
        53        Ni     tau(  53) = (   0.2420320   0.8169913   0.7491577  )
        54        Ni     tau(  54) = (   0.4893084   0.7542727   1.0713530  )
        55        Mn     tau(  55) = (   0.0085152   0.2729728   0.7435093  )
        56        Ni     tau(  56) = (   0.2558246   0.2079345   1.0692209  )
        57        Ni     tau(  57) = (   0.9991959   1.0516583   0.9110204  )
        58        Ni     tau(  58) = (   0.2490231   0.5149840   0.9098064  )
        59        Ni     tau(  59) = (   0.7373131   0.8159965   0.7500205  )
        60        Mn     tau(  60) = (   0.9859093   0.7511625   1.0766756  )
        61        Mn     tau(  61) = (   0.5085552   0.2755447   0.7433473  )
        62        Ni     tau(  62) = (   0.7532989   0.2074622   1.0697379  )
        63        Ni     tau(  63) = (   0.4981517   1.0523018   0.9097191  )
        64        Ni     tau(  64) = (   0.7469109   0.5147379   0.9108977  )
        65        P      tau(  65) = (   0.2119924   0.9497675   1.0657246  )
        66        P      tau(  66) = (   0.4579509   0.6252695   0.7539915  )
        67        P      tau(  67) = (   0.2855349   0.0724244   0.7540333  )
        68        P      tau(  68) = (   0.0381112   0.4032615   1.0629541  )
        69        O      tau(  69) = (   0.1352995   0.8818598   0.9297801  )
        70        O      tau(  70) = (   0.3789570   0.6924463   0.8899191  )
        71        O      tau(  71) = (   0.3610496   0.1419327   0.8898998  )
        72        O      tau(  72) = (   0.1179700   0.3356534   0.9295800  )
        73        O      tau(  73) = (   0.1524325   0.8608343   1.1899741  )
        74        O      tau(  74) = (   0.3994952   0.7128748   0.6285166  )
        75        O      tau(  75) = (   0.3426976   0.1634744   0.6300917  )
        76        O      tau(  76) = (   0.0989151   0.3155758   1.1869439  )
        77        O      tau(  77) = (   0.0942206   0.5581494   1.0621036  )
        78        O      tau(  78) = (   0.3506297   1.0014456   0.7545288  )
        79        O      tau(  79) = (   0.3750155   0.3983181   1.0535609  )
        80        O      tau(  80) = (   0.1228303   0.0764842   0.7646734  )
        81        O      tau(  81) = (   0.1204299   0.6293201   0.7659753  )
        82        O      tau(  82) = (   0.4000664   0.4708612   0.7564299  )
        83        O      tau(  83) = (   0.1483182   0.0216333   1.0644560  )
        84        O      tau(  84) = (   0.3748687   0.9435072   1.0562740  )
        85        P      tau(  85) = (   0.7056901   0.9492898   1.0669132  )
        86        P      tau(  86) = (   0.9575286   0.6220438   0.7567050  )
        87        P      tau(  87) = (   0.7847866   0.0710549   0.7548679  )
        88        P      tau(  88) = (   0.5377283   0.4083400   1.0639036  )
        89        O      tau(  89) = (   0.6295714   0.8788409   0.9311251  )
        90        O      tau(  90) = (   0.8781778   0.6902700   0.8901692  )
        91        O      tau(  91) = (   0.8603186   0.1398018   0.8911068  )
        92        O      tau(  92) = (   0.6174712   0.3389159   0.9308820  )
        93        O      tau(  93) = (   0.6471291   0.8583376   1.1905493  )
        94        O      tau(  94) = (   0.8962302   0.7094244   0.6329007  )
        95        O      tau(  95) = (   0.8420493   0.1616933   0.6305239  )
        96        O      tau(  96) = (   0.5995227   0.3203391   1.1875050  )
        97        O      tau(  97) = (   0.5932354   0.5636910   1.0620921  )
        98        O      tau(  98) = (   0.8487155   0.9994995   0.7556213  )
        99        O      tau(  99) = (   0.8751772   0.3959680   1.0535564  )
       100        O      tau( 100) = (   0.6223291   0.0767949   0.7651476  )
       101        O      tau( 101) = (   0.6209785   0.6292365   0.7652951  )
       102        O      tau( 102) = (   0.9010178   0.4674118   0.7581935  )
       103        O      tau( 103) = (   0.6430869   0.0213354   1.0652560  )
       104        O      tau( 104) = (   0.8684566   0.9446034   1.0560219  )
       105        Ni     tau( 105) = (   0.2418877   0.7990605   1.3774994  )
       106        Ni     tau( 106) = (   0.4859924   0.7291101   1.7127883  )
       107        Mn     tau( 107) = (   0.0074091   0.2584581   1.3749705  )
       108        Ni     tau( 108) = (   0.2425157   0.1970216   1.6824860  )
       109        Ni     tau( 109) = (   0.9982898   1.0343952   1.5373768  )
       110        Ni     tau( 110) = (   0.2455541   0.5002357   1.5473962  )
       111        Ni     tau( 111) = (   0.7364741   0.7981604   1.3766198  )
       112        Mn     tau( 112) = (   0.9933806   0.7362827   1.7012765  )
       113        Mn     tau( 113) = (   0.5061773   0.2597092   1.3733878  )
       114        Ni     tau( 114) = (   0.7390624   0.1911087   1.6822626  )
       115        Ni     tau( 115) = (   0.4977171   1.0337782   1.5386589  )
       116        Ni     tau( 116) = (   0.7401814   0.4951798   1.5429972  )
       117        P      tau( 117) = (   0.2103734   0.9343735   1.6940579  )
       118        P      tau( 118) = (   0.4554029   0.6062738   1.3832147  )
       119        P      tau( 119) = (   0.2849489   0.0556490   1.3793979  )
       120        P      tau( 120) = (   0.0290749   0.3809918   1.7035602  )
       121        O      tau( 121) = (   0.1355154   0.8685926   1.5530534  )
       122        O      tau( 122) = (   0.3774347   0.6768570   1.5167281  )
       123        O      tau( 123) = (   0.3598942   0.1250008   1.5151379  )
       124        O      tau( 124) = (   0.1107954   0.3275508   1.5594841  )
       125        O      tau( 125) = (   0.1459723   0.8429241   1.8126700  )
       126        O      tau( 126) = (   0.3976183   0.6919918   1.2555103  )
       127        O      tau( 127) = (   0.3429937   0.1462538   1.2552325  )
       128        O      tau( 128) = (   0.0910722   0.2838530   1.8157905  )
       129        O      tau( 129) = (   0.0790378   0.5396957   1.7066292  )
       130        O      tau( 130) = (   0.3490860   0.9846372   1.3803291  )
       131        O      tau( 131) = (   0.3685320   0.3757119   1.6809527  )
       132        O      tau( 132) = (   0.1220401   0.0632085   1.3908914  )
       133        O      tau( 133) = (   0.1180502   0.6108095   1.4007634  )
       134        O      tau( 134) = (   0.3961976   0.4519943   1.3871462  )
       135        O      tau( 135) = (   0.1486504   0.0072842   1.6926096  )
       136        O      tau( 136) = (   0.3735002   0.9279144   1.6865291  )
       137        P      tau( 137) = (   0.7062277   0.9249542   1.6906995  )
       138        P      tau( 138) = (   0.9553712   0.6030053   1.3890406  )
       139        P      tau( 139) = (   0.7840082   0.0540629   1.3791216  )
       140        P      tau( 140) = (   0.5317123   0.3818426   1.7010624  )
       141        O      tau( 141) = (   0.6319685   0.8674441   1.5474648  )
       142        O      tau( 142) = (   0.8763482   0.6697573   1.5237027  )
       143        O      tau( 143) = (   0.8595380   0.1221826   1.5157410  )
       144        O      tau( 144) = (   0.6117506   0.3206324   1.5574399  )
       145        O      tau( 145) = (   0.6505933   0.8256672   1.8056400  )
       146        O      tau( 146) = (   0.8964847   0.6918028   1.2646706  )
       147        O      tau( 147) = (   0.8420613   0.1459611   1.2558217  )
       148        O      tau( 148) = (   0.5904161   0.2827938   1.8138958  )
       149        O      tau( 149) = (   0.5904972   0.5368025   1.6958113  )
       150        O      tau( 150) = (   0.8484323   0.9829177   1.3785021  )
       151        O      tau( 151) = (   0.8659078   0.3735192   1.6844181  )
       152        O      tau( 152) = (   0.6215468   0.0617340   1.3908597  )
       153        O      tau( 153) = (   0.6186538   0.6093341   1.3943007  )
       154        O      tau( 154) = (   0.8974697   0.4488583   1.3875570  )
       155        O      tau( 155) = (   0.6478825  -0.0004503   1.6955159  )
       156        O      tau( 156) = (   0.8711649   0.9215713   1.6818757  )
       157        O      tau( 157) = (   0.3651639   0.6449523   1.8366945  )
       158        H      tau( 158) = (   0.2891119   0.7102207   1.8682131  )

     -------------------------------------------------
     Parameters for Dispersion (Grimme-D2) Correction:
     -------------------------------------------------
       atom      VdW radius       C_6     

        Ni         2.952        374.666
        Mn         2.952        374.666
        P          3.222        271.980
        O          2.536         24.284
        H          1.892          4.857

     number of k points=     1  Gaussian smearing, width (Ry)=  0.0100
                       cart. coord. in units 2pi/alat
        k(    1) = (   0.0000000   0.0000000   0.0000000), wk =   1.0000000

     Dense  grid:  1979026 G-vectors     FFT dimensions: ( 128, 144, 450)

     Smooth grid:   500628 G-vectors     FFT dimensions: (  81,  90, 288)

     Estimated max dynamical RAM per process >     333.40 MB

     Estimated total dynamical RAM >      20.84 GB

     Check: negative core charge=   -0.000002
     Generating pointlists ...
     new r_m :   0.0794 (alat units)  1.4172 (a.u.) for type    1
     new r_m :   0.0884 (alat units)  1.5790 (a.u.) for type    2
     new r_m :   0.0664 (alat units)  1.1846 (a.u.) for type    3
     new r_m :   0.0433 (alat units)  0.7737 (a.u.) for type    4
     new r_m :   0.0433 (alat units)  0.7737 (a.u.) for type    5

     Initial potential from superposition of free atoms

     starting charge    1107.8886, renormalised to    1108.0000

     negative rho (up, down):  1.527E-03 4.654E-04
 
     Adding external electric field

     Computed dipole along edir(3) : 
        Dipole                1.6366 Ry au,          4.1597 Debye
        Dipole field          0.0010 Ry au, 
 
        Potential amp.       -0.1073 Ry
        Total length         54.7057 bohr
 
 
     Adding external electric field

     Computed dipole along edir(3) : 
        Dipole                1.6366 Ry au,          4.1597 Debye
        Dipole field          0.0010 Ry au, 
 
        Potential amp.       -0.1073 Ry
        Total length         54.7057 bohr
 
     Starting wfcs are  818 randomized atomic wfcs

     total cpu time spent up to now is       11.1 secs

     Self-consistent Calculation

     iteration #  1     ecut=    50.00 Ry     beta= 0.10
     Davidson diagonalization with overlap
     ethr =  1.00E-02,  avg # of iterations =  6.0

     negative rho (up, down):  4.477E-01 8.878E-07
 
     Adding external electric field

     Computed dipole along edir(3) : 
        Dipole               -3.4631 Ry au,         -8.8024 Debye
        Dipole field         -0.0021 Ry au, 
 
        Potential amp.        0.2271 Ry
        Total length         54.7057 bohr
 
 
     Adding external electric field

     Computed dipole along edir(3) : 
        Dipole               -3.4631 Ry au,         -8.8024 Debye
        Dipole field         -0.0021 Ry au, 
 
        Potential amp.        0.2271 Ry
        Total length         54.7057 bohr
 

     total cpu time spent up to now is       41.5 secs

     total energy              =   -7858.88387922 Ry
     estimated scf accuracy    <     725.67009762 Ry

     total magnetization       =   222.00 Bohr mag/cell
     absolute magnetization    =   319.94 Bohr mag/cell

     iteration #  2     ecut=    50.00 Ry     beta= 0.10
     Davidson diagonalization with overlap
     ethr =  1.00E-02,  avg # of iterations =  2.0

     negative rho (up, down):  4.136E-01 4.983E-07
 
     Adding external electric field

     Computed dipole along edir(3) : 
        Dipole               -2.4709 Ry au,         -6.2805 Debye
        Dipole field         -0.0015 Ry au, 
 
        Potential amp.        0.1621 Ry
        Total length         54.7057 bohr
 
 
     Adding external electric field

     Computed dipole along edir(3) : 
        Dipole               -2.4709 Ry au,         -6.2805 Debye
        Dipole field         -0.0015 Ry au, 
 
        Potential amp.        0.1621 Ry
        Total length         54.7057 bohr
 

     total cpu time spent up to now is       60.2 secs

     total energy              =   -7940.82284066 Ry
     estimated scf accuracy    <     175.39947920 Ry

     total magnetization       =   163.11 Bohr mag/cell
     absolute magnetization    =   211.18 Bohr mag/cell

     iteration #  3     ecut=    50.00 Ry     beta= 0.10
     Davidson diagonalization with overlap
     ethr =  1.00E-02,  avg # of iterations =  1.0

     negative rho (up, down):  3.654E-01 3.783E-07
 
     Adding external electric field

     Computed dipole along edir(3) : 
        Dipole               -2.0787 Ry au,         -5.2835 Debye
        Dipole field         -0.0012 Ry au, 
 
        Potential amp.        0.1363 Ry
        Total length         54.7057 bohr
 
 
     Adding external electric field

     Computed dipole along edir(3) : 
        Dipole               -2.0787 Ry au,         -5.2835 Debye
        Dipole field         -0.0012 Ry au, 
 
        Potential amp.        0.1363 Ry
        Total length         54.7057 bohr
 

     total cpu time spent up to now is       73.0 secs

     total energy              =   -7971.78826311 Ry
     estimated scf accuracy    <     103.41463502 Ry

     total magnetization       =   141.25 Bohr mag/cell
     absolute magnetization    =   191.18 Bohr mag/cell

     iteration #  4     ecut=    50.00 Ry     beta= 0.10
     Davidson diagonalization with overlap
     ethr =  9.33E-03,  avg # of iterations =  1.0

     negative rho (up, down):  2.860E-01 6.926E-08
 
     Adding external electric field

     Computed dipole along edir(3) : 
        Dipole               -1.9606 Ry au,         -4.9833 Debye
        Dipole field         -0.0012 Ry au, 
 
        Potential amp.        0.1286 Ry
        Total length         54.7057 bohr
 
 
     Adding external electric field

     Computed dipole along edir(3) : 
        Dipole               -1.9606 Ry au,         -4.9833 Debye
        Dipole field         -0.0012 Ry au, 
 
        Potential amp.        0.1286 Ry
        Total length         54.7057 bohr
 

     total cpu time spent up to now is       86.6 secs

     total energy              =   -8004.44808364 Ry
     estimated scf accuracy    <      82.94657288 Ry

     total magnetization       =   125.42 Bohr mag/cell
     absolute magnetization    =   177.06 Bohr mag/cell

     iteration #  5     ecut=    50.00 Ry     beta= 0.10
     Davidson diagonalization with overlap
     ethr =  7.49E-03,  avg # of iterations =  1.0

     negative rho (up, down):  3.011E-02 0.000E+00
 
     Adding external electric field

     Computed dipole along edir(3) : 
        Dipole               -1.4691 Ry au,         -3.7340 Debye
        Dipole field         -0.0009 Ry au, 
 
        Potential amp.        0.0964 Ry
        Total length         54.7057 bohr
 
 
     Adding external electric field

     Computed dipole along edir(3) : 
        Dipole               -1.4691 Ry au,         -3.7340 Debye
        Dipole field         -0.0009 Ry au, 
 
        Potential amp.        0.0964 Ry
        Total length         54.7057 bohr
 

     total cpu time spent up to now is       99.7 secs

     total energy              =   -8064.45142993 Ry
     estimated scf accuracy    <      65.76911549 Ry

     total magnetization       =   106.03 Bohr mag/cell
     absolute magnetization    =   159.32 Bohr mag/cell

     iteration #  6     ecut=    50.00 Ry     beta= 0.10
     Davidson diagonalization with overlap
     ethr =  5.94E-03,  avg # of iterations =  1.0

     negative rho (up, down):  2.450E-04 4.699E-04
 
     Adding external electric field

     Computed dipole along edir(3) : 
        Dipole               -1.0642 Ry au,         -2.7049 Debye
        Dipole field         -0.0006 Ry au, 
 
        Potential amp.        0.0698 Ry
        Total length         54.7057 bohr
 
 
     Adding external electric field

     Computed dipole along edir(3) : 
        Dipole               -1.0642 Ry au,         -2.7049 Debye
        Dipole field         -0.0006 Ry au, 
 
        Potential amp.        0.0698 Ry
        Total length         54.7057 bohr
 

     total cpu time spent up to now is      113.1 secs

     total energy              =   -8076.31205342 Ry
     estimated scf accuracy    <      13.23121254 Ry

     total magnetization       =   100.00 Bohr mag/cell
     absolute magnetization    =   131.80 Bohr mag/cell

     iteration #  7     ecut=    50.00 Ry     beta= 0.10
     Davidson diagonalization with overlap
     ethr =  1.19E-03,  avg # of iterations =  6.0

     negative rho (up, down):  2.396E-04 4.672E-04
 
     Adding external electric field

     Computed dipole along edir(3) : 
        Dipole               -1.0607 Ry au,         -2.6961 Debye
        Dipole field         -0.0006 Ry au, 
 
        Potential amp.        0.0696 Ry
        Total length         54.7057 bohr
 
 
     Adding external electric field

     Computed dipole along edir(3) : 
        Dipole               -1.0607 Ry au,         -2.6961 Debye
        Dipole field         -0.0006 Ry au, 
 
        Potential amp.        0.0696 Ry
        Total length         54.7057 bohr
 

     total cpu time spent up to now is      136.6 secs

     total energy              =   -8078.79918315 Ry
     estimated scf accuracy    <      28.42408636 Ry

     total magnetization       =    69.86 Bohr mag/cell
     absolute magnetization    =    87.61 Bohr mag/cell

     iteration #  8     ecut=    50.00 Ry     beta= 0.10
     Davidson diagonalization with overlap
     ethr =  1.19E-03,  avg # of iterations =  1.0

     negative rho (up, down):  2.465E-04 5.044E-04
 
     Adding external electric field

     Computed dipole along edir(3) : 
        Dipole               -1.0632 Ry au,         -2.7023 Debye
        Dipole field         -0.0006 Ry au, 
 
        Potential amp.        0.0697 Ry
        Total length         54.7057 bohr
 
 
     Adding external electric field

     Computed dipole along edir(3) : 
        Dipole               -1.0632 Ry au,         -2.7023 Debye
        Dipole field         -0.0006 Ry au, 
 
        Potential amp.        0.0697 Ry
        Total length         54.7057 bohr
 

     total cpu time spent up to now is      149.4 secs

     total energy              =   -8078.93762657 Ry
     estimated scf accuracy    <      28.26245940 Ry

     total magnetization       =    69.90 Bohr mag/cell
     absolute magnetization    =    87.21 Bohr mag/cell

     iteration #  9     ecut=    50.00 Ry     beta= 0.10
     Davidson diagonalization with overlap
     ethr =  1.19E-03,  avg # of iterations =  1.0

     negative rho (up, down):  1.587E-04 3.939E-04
 
     Adding external electric field

     Computed dipole along edir(3) : 
        Dipole               -1.0301 Ry au,         -2.6182 Debye
        Dipole field         -0.0006 Ry au, 
 
        Potential amp.        0.0676 Ry
        Total length         54.7057 bohr
 
 
     Adding external electric field

     Computed dipole along edir(3) : 
        Dipole               -1.0301 Ry au,         -2.6182 Debye
        Dipole field         -0.0006 Ry au, 
 
        Potential amp.        0.0676 Ry
        Total length         54.7057 bohr
 

     total cpu time spent up to now is      162.5 secs

     total energy              =   -8078.42427288 Ry
     estimated scf accuracy    <      29.51483302 Ry

     total magnetization       =    69.48 Bohr mag/cell
     absolute magnetization    =    86.55 Bohr mag/cell

     iteration # 10     ecut=    50.00 Ry     beta= 0.10
     Davidson diagonalization with overlap
     ethr =  1.19E-03,  avg # of iterations =  1.0

     negative rho (up, down):  1.363E-04 3.589E-04
 
     Adding external electric field

     Computed dipole along edir(3) : 
        Dipole               -1.0686 Ry au,         -2.7160 Debye
        Dipole field         -0.0006 Ry au, 
 
        Potential amp.        0.0701 Ry
        Total length         54.7057 bohr
 
 
     Adding external electric field

     Computed dipole along edir(3) : 
        Dipole               -1.0686 Ry au,         -2.7160 Debye
        Dipole field         -0.0006 Ry au, 
 
        Potential amp.        0.0701 Ry
        Total length         54.7057 bohr
 

     total cpu time spent up to now is      174.9 secs

     total energy              =   -8077.70912484 Ry
     estimated scf accuracy    <      21.48705035 Ry

     total magnetization       =    72.23 Bohr mag/cell
     absolute magnetization    =    87.68 Bohr mag/cell

     iteration # 11     ecut=    50.00 Ry     beta= 0.10
     Davidson diagonalization with overlap
     ethr =  1.19E-03,  avg # of iterations =  1.0

     negative rho (up, down):  1.147E-04 4.105E-04
 
     Adding external electric field

     Computed dipole along edir(3) : 
        Dipole               -1.0109 Ry au,         -2.5696 Debye
        Dipole field         -0.0006 Ry au, 
 
        Potential amp.        0.0663 Ry
        Total length         54.7057 bohr
 
 
     Adding external electric field

     Computed dipole along edir(3) : 
        Dipole               -1.0109 Ry au,         -2.5696 Debye
        Dipole field         -0.0006 Ry au, 
 
        Potential amp.        0.0663 Ry
        Total length         54.7057 bohr
 

     total cpu time spent up to now is      187.1 secs

     total energy              =   -8078.10295656 Ry
     estimated scf accuracy    <       3.03937025 Ry

     total magnetization       =    92.61 Bohr mag/cell
     absolute magnetization    =   103.18 Bohr mag/cell

     iteration # 12     ecut=    50.00 Ry     beta= 0.10
     Davidson diagonalization with overlap
     ethr =  2.74E-04,  avg # of iterations =  1.5

     negative rho (up, down):  7.540E-05 3.623E-04
 
     Adding external electric field

     Computed dipole along edir(3) : 
        Dipole               -0.9820 Ry au,         -2.4961 Debye
        Dipole field         -0.0006 Ry au, 
 
        Potential amp.        0.0644 Ry
        Total length         54.7057 bohr
 
 
     Adding external electric field

     Computed dipole along edir(3) : 
        Dipole               -0.9820 Ry au,         -2.4961 Debye
        Dipole field         -0.0006 Ry au, 
 
        Potential amp.        0.0644 Ry
        Total length         54.7057 bohr
 

     total cpu time spent up to now is      200.1 secs

     total energy              =   -8078.13648288 Ry
     estimated scf accuracy    <       2.20020861 Ry

     total magnetization       =    93.09 Bohr mag/cell
     absolute magnetization    =   103.07 Bohr mag/cell

     iteration # 13     ecut=    50.00 Ry     beta= 0.10
     Davidson diagonalization with overlap
     ethr =  1.99E-04,  avg # of iterations =  7.5

     negative rho (up, down):  5.428E-05 3.783E-04
 
     Adding external electric field

     Computed dipole along edir(3) : 
        Dipole               -0.9761 Ry au,         -2.4810 Debye
        Dipole field         -0.0006 Ry au, 
 
        Potential amp.        0.0640 Ry
        Total length         54.7057 bohr
 
 
     Adding external electric field

     Computed dipole along edir(3) : 
        Dipole               -0.9761 Ry au,         -2.4810 Debye
        Dipole field         -0.0006 Ry au, 
 
        Potential amp.        0.0640 Ry
        Total length         54.7057 bohr
 

     total cpu time spent up to now is      216.2 secs

     total energy              =   -8078.29476258 Ry
     estimated scf accuracy    <       9.06218423 Ry

     total magnetization       =    81.46 Bohr mag/cell
     absolute magnetization    =    92.82 Bohr mag/cell

     iteration # 14     ecut=    50.00 Ry     beta= 0.10
     Davidson diagonalization with overlap
     ethr =  1.99E-04,  avg # of iterations =  1.5

     negative rho (up, down):  4.182E-05 3.980E-04
 
     Adding external electric field

     Computed dipole along edir(3) : 
        Dipole               -0.9993 Ry au,         -2.5401 Debye
        Dipole field         -0.0006 Ry au, 
 
        Potential amp.        0.0655 Ry
        Total length         54.7057 bohr
 
 
     Adding external electric field

     Computed dipole along edir(3) : 
        Dipole               -0.9993 Ry au,         -2.5401 Debye
        Dipole field         -0.0006 Ry au, 
 
        Potential amp.        0.0655 Ry
        Total length         54.7057 bohr
 

     total cpu time spent up to now is      229.7 secs

     total energy              =   -8078.13168731 Ry
     estimated scf accuracy    <       9.69972762 Ry

     total magnetization       =    80.25 Bohr mag/cell
     absolute magnetization    =    91.09 Bohr mag/cell

     iteration # 15     ecut=    50.00 Ry     beta= 0.10
     Davidson diagonalization with overlap
     ethr =  1.99E-04,  avg # of iterations =  1.5

     negative rho (up, down):  3.880E-05 4.553E-04
 
     Adding external electric field

     Computed dipole along edir(3) : 
        Dipole               -1.0396 Ry au,         -2.6424 Debye
        Dipole field         -0.0006 Ry au, 
 
        Potential amp.        0.0682 Ry
        Total length         54.7057 bohr
 
 
     Adding external electric field

     Computed dipole along edir(3) : 
        Dipole               -1.0396 Ry au,         -2.6424 Debye
        Dipole field         -0.0006 Ry au, 
 
        Potential amp.        0.0682 Ry
        Total length         54.7057 bohr
 

     total cpu time spent up to now is      243.0 secs

     total energy              =   -8078.30935336 Ry
     estimated scf accuracy    <       1.69923091 Ry

     total magnetization       =    93.13 Bohr mag/cell
     absolute magnetization    =   100.66 Bohr mag/cell

     iteration # 16     ecut=    50.00 Ry     beta= 0.10
     Davidson diagonalization with overlap
     ethr =  1.53E-04,  avg # of iterations =  1.0

     negative rho (up, down):  9.358E-05 8.922E-04
 
     Adding external electric field

     Computed dipole along edir(3) : 
        Dipole               -1.1036 Ry au,         -2.8052 Debye
        Dipole field         -0.0007 Ry au, 
 
        Potential amp.        0.0724 Ry
        Total length         54.7057 bohr
 
 
     Adding external electric field

     Computed dipole along edir(3) : 
        Dipole               -1.1036 Ry au,         -2.8052 Debye
        Dipole field         -0.0007 Ry au, 
 
        Potential amp.        0.0724 Ry
        Total length         54.7057 bohr
 

     total cpu time spent up to now is      255.5 secs

     total energy              =   -8078.41380783 Ry
     estimated scf accuracy    <       0.84781794 Ry

     total magnetization       =    94.85 Bohr mag/cell
     absolute magnetization    =   101.32 Bohr mag/cell

     iteration # 17     ecut=    50.00 Ry     beta= 0.10
     Davidson diagonalization with overlap
     ethr =  7.65E-05,  avg # of iterations =  2.0

     negative rho (up, down):  2.931E-04 1.358E-03
 
     Adding external electric field

     Computed dipole along edir(3) : 
        Dipole               -1.1277 Ry au,         -2.8664 Debye
        Dipole field         -0.0007 Ry au, 
 
        Potential amp.        0.0740 Ry
        Total length         54.7057 bohr
 
 
     Adding external electric field

     Computed dipole along edir(3) : 
        Dipole               -1.1277 Ry au,         -2.8664 Debye
        Dipole field         -0.0007 Ry au, 
 
        Potential amp.        0.0740 Ry
        Total length         54.7057 bohr
 

     total cpu time spent up to now is      269.7 secs

     total energy              =   -8078.49028183 Ry
     estimated scf accuracy    <       0.29855209 Ry

     total magnetization       =    96.32 Bohr mag/cell
     absolute magnetization    =   100.50 Bohr mag/cell

     iteration # 18     ecut=    50.00 Ry     beta= 0.10
     Davidson diagonalization with overlap
     c_bands:  5 eigenvalues not converged
     ethr =  2.69E-05,  avg # of iterations = 19.5

     negative rho (up, down):  1.626E-04 8.953E-04
 
     Adding external electric field

     Computed dipole along edir(3) : 
        Dipole               -1.1164 Ry au,         -2.8377 Debye
        Dipole field         -0.0007 Ry au, 
 
        Potential amp.        0.0732 Ry
        Total length         54.7057 bohr
 
 
     Adding external electric field

     Computed dipole along edir(3) : 
        Dipole               -1.1164 Ry au,         -2.8377 Debye
        Dipole field         -0.0007 Ry au, 
 
        Potential amp.        0.0732 Ry
        Total length         54.7057 bohr
 

     total cpu time spent up to now is      298.1 secs

     total energy              =   -8078.51248234 Ry
     estimated scf accuracy    <       0.36538467 Ry

     total magnetization       =    98.85 Bohr mag/cell
     absolute magnetization    =   101.19 Bohr mag/cell

     iteration # 19     ecut=    50.00 Ry     beta= 0.10
     Davidson diagonalization with overlap
     ethr =  2.69E-05,  avg # of iterations =  1.5

     negative rho (up, down):  1.873E-04 7.605E-04
 
     Adding external electric field

     Computed dipole along edir(3) : 
        Dipole               -1.0862 Ry au,         -2.7608 Debye
        Dipole field         -0.0007 Ry au, 
 
        Potential amp.        0.0712 Ry
        Total length         54.7057 bohr
 
 
     Adding external electric field

     Computed dipole along edir(3) : 
        Dipole               -1.0862 Ry au,         -2.7608 Debye
        Dipole field         -0.0007 Ry au, 
 
        Potential amp.        0.0712 Ry
        Total length         54.7057 bohr
 

     total cpu time spent up to now is      310.7 secs

     total energy              =   -8078.54487599 Ry
     estimated scf accuracy    <       0.15168702 Ry

     total magnetization       =    97.74 Bohr mag/cell
     absolute magnetization    =   100.15 Bohr mag/cell

     iteration # 20     ecut=    50.00 Ry     beta= 0.10
     Davidson diagonalization with overlap
     ethr =  1.37E-05,  avg # of iterations =  2.0

     negative rho (up, down):  1.194E-04 5.848E-04
 
     Adding external electric field

     Computed dipole along edir(3) : 
        Dipole               -1.0532 Ry au,         -2.6770 Debye
        Dipole field         -0.0006 Ry au, 
 
        Potential amp.        0.0691 Ry
        Total length         54.7057 bohr
 
 
     Adding external electric field

     Computed dipole along edir(3) : 
        Dipole               -1.0532 Ry au,         -2.6770 Debye
        Dipole field         -0.0006 Ry au, 
 
        Potential amp.        0.0691 Ry
        Total length         54.7057 bohr
 

     total cpu time spent up to now is      324.1 secs

     total energy              =   -8078.55597356 Ry
     estimated scf accuracy    <       0.08603301 Ry

     total magnetization       =    97.27 Bohr mag/cell
     absolute magnetization    =    98.76 Bohr mag/cell

     iteration # 21     ecut=    50.00 Ry     beta= 0.10
     Davidson diagonalization with overlap
     ethr =  7.76E-06,  avg # of iterations =  1.5

     negative rho (up, down):  1.459E-04 5.579E-04
 
     Adding external electric field

     Computed dipole along edir(3) : 
        Dipole               -1.0417 Ry au,         -2.6479 Debye
        Dipole field         -0.0006 Ry au, 
 
        Potential amp.        0.0683 Ry
        Total length         54.7057 bohr
 
 
     Adding external electric field

     Computed dipole along edir(3) : 
        Dipole               -1.0417 Ry au,         -2.6479 Debye
        Dipole field         -0.0006 Ry au, 
 
        Potential amp.        0.0683 Ry
        Total length         54.7057 bohr
 

     total cpu time spent up to now is      336.3 secs

     total energy              =   -8078.55873370 Ry
     estimated scf accuracy    <       0.10018580 Ry

     total magnetization       =    97.62 Bohr mag/cell
     absolute magnetization    =    99.04 Bohr mag/cell

     iteration # 22     ecut=    50.00 Ry     beta= 0.10
     Davidson diagonalization with overlap
     c_bands:  4 eigenvalues not converged
     ethr =  7.76E-06,  avg # of iterations = 10.5

     negative rho (up, down):  5.698E-07 2.742E-05
 
     Adding external electric field

     Computed dipole along edir(3) : 
        Dipole               -0.9617 Ry au,         -2.4445 Debye
        Dipole field         -0.0006 Ry au, 
 
        Potential amp.        0.0631 Ry
        Total length         54.7057 bohr
 
 
     Adding external electric field

     Computed dipole along edir(3) : 
        Dipole               -0.9617 Ry au,         -2.4445 Debye
        Dipole field         -0.0006 Ry au, 
 
        Potential amp.        0.0631 Ry
        Total length         54.7057 bohr
 

     total cpu time spent up to now is      354.0 secs

     total energy              =   -8078.56117019 Ry
     estimated scf accuracy    <       0.07366644 Ry

     total magnetization       =    97.62 Bohr mag/cell
     absolute magnetization    =    98.74 Bohr mag/cell

     iteration # 23     ecut=    50.00 Ry     beta= 0.10
     Davidson diagonalization with overlap
     ethr =  6.65E-06,  avg # of iterations =  2.5

     negative rho (up, down):  6.506E-07 5.457E-06
 
     Adding external electric field

     Computed dipole along edir(3) : 
        Dipole               -0.9298 Ry au,         -2.3633 Debye
        Dipole field         -0.0006 Ry au, 
 
        Potential amp.        0.0610 Ry
        Total length         54.7057 bohr
 
 
     Adding external electric field

     Computed dipole along edir(3) : 
        Dipole               -0.9298 Ry au,         -2.3633 Debye
        Dipole field         -0.0006 Ry au, 
 
        Potential amp.        0.0610 Ry
        Total length         54.7057 bohr
 

     total cpu time spent up to now is      367.5 secs

     total energy              =   -8078.56176498 Ry
     estimated scf accuracy    <       0.06500052 Ry

     total magnetization       =    97.30 Bohr mag/cell
     absolute magnetization    =    98.41 Bohr mag/cell

     iteration # 24     ecut=    50.00 Ry     beta= 0.10
     Davidson diagonalization with overlap
     ethr =  5.87E-06,  avg # of iterations =  2.0

     negative rho (up, down):  9.758E-07 2.370E-06
 
     Adding external electric field

     Computed dipole along edir(3) : 
        Dipole               -0.8936 Ry au,         -2.2714 Debye
        Dipole field         -0.0005 Ry au, 
 
        Potential amp.        0.0586 Ry
        Total length         54.7057 bohr
 
 
     Adding external electric field

     Computed dipole along edir(3) : 
        Dipole               -0.8936 Ry au,         -2.2714 Debye
        Dipole field         -0.0005 Ry au, 
 
        Potential amp.        0.0586 Ry
        Total length         54.7057 bohr
 

     total cpu time spent up to now is      380.5 secs

     total energy              =   -8078.56247602 Ry
     estimated scf accuracy    <       0.04355327 Ry

     total magnetization       =    97.34 Bohr mag/cell
     absolute magnetization    =    98.38 Bohr mag/cell

     iteration # 25     ecut=    50.00 Ry     beta= 0.10
     Davidson diagonalization with overlap
     ethr =  3.93E-06,  avg # of iterations =  2.0

     negative rho (up, down):  1.510E-06 1.911E-06
 
     Adding external electric field

     Computed dipole along edir(3) : 
        Dipole               -0.8637 Ry au,         -2.1954 Debye
        Dipole field         -0.0005 Ry au, 
 
        Potential amp.        0.0567 Ry
        Total length         54.7057 bohr
 
 
     Adding external electric field

     Computed dipole along edir(3) : 
        Dipole               -0.8637 Ry au,         -2.1954 Debye
        Dipole field         -0.0005 Ry au, 
 
        Potential amp.        0.0567 Ry
        Total length         54.7057 bohr
 

     total cpu time spent up to now is      394.0 secs

     total energy              =   -8078.56334846 Ry
     estimated scf accuracy    <       0.04375173 Ry

     total magnetization       =    97.21 Bohr mag/cell
     absolute magnetization    =    98.25 Bohr mag/cell

     iteration # 26     ecut=    50.00 Ry     beta= 0.10
     Davidson diagonalization with overlap
     ethr =  3.93E-06,  avg # of iterations = 12.0

     negative rho (up, down):  5.074E-06 7.481E-06
 
     Adding external electric field

     Computed dipole along edir(3) : 
        Dipole               -0.8238 Ry au,         -2.0939 Debye
        Dipole field         -0.0005 Ry au, 
 
        Potential amp.        0.0540 Ry
        Total length         54.7057 bohr
 
 
     Adding external electric field

     Computed dipole along edir(3) : 
        Dipole               -0.8238 Ry au,         -2.0939 Debye
        Dipole field         -0.0005 Ry au, 
 
        Potential amp.        0.0540 Ry
        Total length         54.7057 bohr
 

     total cpu time spent up to now is      419.3 secs

     total energy              =   -8078.56276718 Ry
     estimated scf accuracy    <       0.02603495 Ry

     total magnetization       =    97.36 Bohr mag/cell
     absolute magnetization    =    98.52 Bohr mag/cell

     iteration # 27     ecut=    50.00 Ry     beta= 0.10
     Davidson diagonalization with overlap
     c_bands:  1 eigenvalues not converged
     ethr =  2.35E-06,  avg # of iterations = 17.0

     negative rho (up, down):  1.967E-05 3.311E-05
 
     Adding external electric field

     Computed dipole along edir(3) : 
        Dipole               -0.7846 Ry au,         -1.9942 Debye
        Dipole field         -0.0005 Ry au, 
 
        Potential amp.        0.0515 Ry
        Total length         54.7057 bohr
 
 
     Adding external electric field

     Computed dipole along edir(3) : 
        Dipole               -0.7846 Ry au,         -1.9942 Debye
        Dipole field         -0.0005 Ry au, 
 
        Potential amp.        0.0515 Ry
        Total length         54.7057 bohr
 

     total cpu time spent up to now is      439.5 secs

     total energy              =   -8078.56255045 Ry
     estimated scf accuracy    <       0.03422248 Ry

     total magnetization       =    97.44 Bohr mag/cell
     absolute magnetization    =    98.59 Bohr mag/cell

     iteration # 28     ecut=    50.00 Ry     beta= 0.10
     Davidson diagonalization with overlap
     ethr =  2.35E-06,  avg # of iterations =  2.0

     negative rho (up, down):  5.203E-05 8.402E-05
 
     Adding external electric field

     Computed dipole along edir(3) : 
        Dipole               -0.7388 Ry au,         -1.8778 Debye
        Dipole field         -0.0004 Ry au, 
 
        Potential amp.        0.0485 Ry
        Total length         54.7057 bohr
 
 
     Adding external electric field

     Computed dipole along edir(3) : 
        Dipole               -0.7388 Ry au,         -1.8778 Debye
        Dipole field         -0.0004 Ry au, 
 
        Potential amp.        0.0485 Ry
        Total length         54.7057 bohr
 

     total cpu time spent up to now is      453.0 secs

     total energy              =   -8078.56235079 Ry
     estimated scf accuracy    <       0.02729425 Ry

     total magnetization       =    97.54 Bohr mag/cell
     absolute magnetization    =    98.76 Bohr mag/cell

     iteration # 29     ecut=    50.00 Ry     beta= 0.10
     Davidson diagonalization with overlap
     ethr =  2.35E-06,  avg # of iterations =  1.5

     negative rho (up, down):  6.755E-05 1.116E-04
 
     Adding external electric field

     Computed dipole along edir(3) : 
        Dipole               -0.7216 Ry au,         -1.8340 Debye
        Dipole field         -0.0004 Ry au, 
 
        Potential amp.        0.0473 Ry
        Total length         54.7057 bohr
 
 
     Adding external electric field

     Computed dipole along edir(3) : 
        Dipole               -0.7216 Ry au,         -1.8340 Debye
        Dipole field         -0.0004 Ry au, 
 
        Potential amp.        0.0473 Ry
        Total length         54.7057 bohr
 

     total cpu time spent up to now is      465.5 secs

     total energy              =   -8078.56229705 Ry
     estimated scf accuracy    <       0.03270558 Ry

     total magnetization       =    97.53 Bohr mag/cell
     absolute magnetization    =    98.77 Bohr mag/cell

     iteration # 30     ecut=    50.00 Ry     beta= 0.10
     Davidson diagonalization with overlap
     ethr =  2.35E-06,  avg # of iterations =  1.5

     negative rho (up, down):  1.782E-05 3.433E-05
 
     Adding external electric field

     Computed dipole along edir(3) : 
        Dipole               -0.7555 Ry au,         -1.9202 Debye
        Dipole field         -0.0005 Ry au, 
 
        Potential amp.        0.0495 Ry
        Total length         54.7057 bohr
 
 
     Adding external electric field

     Computed dipole along edir(3) : 
        Dipole               -0.7555 Ry au,         -1.9202 Debye
        Dipole field         -0.0005 Ry au, 
 
        Potential amp.        0.0495 Ry
        Total length         54.7057 bohr
 

     total cpu time spent up to now is      478.3 secs

     total energy              =   -8078.56257350 Ry
     estimated scf accuracy    <       0.03486114 Ry

     total magnetization       =    97.52 Bohr mag/cell
     absolute magnetization    =    98.76 Bohr mag/cell

     iteration # 31     ecut=    50.00 Ry     beta= 0.10
     Davidson diagonalization with overlap
     ethr =  2.35E-06,  avg # of iterations =  1.5

     negative rho (up, down):  7.301E-04 8.723E-04
 
     Adding external electric field

     Computed dipole along edir(3) : 
        Dipole               -0.6640 Ry au,         -1.6876 Debye
        Dipole field         -0.0004 Ry au, 
 
        Potential amp.        0.0435 Ry
        Total length         54.7057 bohr
 
 
     Adding external electric field

     Computed dipole along edir(3) : 
        Dipole               -0.6640 Ry au,         -1.6876 Debye
        Dipole field         -0.0004 Ry au, 
 
        Potential amp.        0.0435 Ry
        Total length         54.7057 bohr
 

     total cpu time spent up to now is      490.8 secs

     total energy              =   -8078.56122102 Ry
     estimated scf accuracy    <       0.03569879 Ry

     total magnetization       =    97.52 Bohr mag/cell
     absolute magnetization    =    98.80 Bohr mag/cell

     iteration # 32     ecut=    50.00 Ry     beta= 0.10
     Davidson diagonalization with overlap
     ethr =  2.35E-06,  avg # of iterations =  3.0

     negative rho (up, down):  7.110E-04 8.619E-04
 
     Adding external electric field

     Computed dipole along edir(3) : 
        Dipole               -0.6703 Ry au,         -1.7038 Debye
        Dipole field         -0.0004 Ry au, 
 
        Potential amp.        0.0440 Ry
        Total length         54.7057 bohr
 
 
     Adding external electric field

     Computed dipole along edir(3) : 
        Dipole               -0.6703 Ry au,         -1.7038 Debye
        Dipole field         -0.0004 Ry au, 
 
        Potential amp.        0.0440 Ry
        Total length         54.7057 bohr
 

     total cpu time spent up to now is      504.6 secs

     total energy              =   -8078.56152863 Ry
     estimated scf accuracy    <       0.03406248 Ry

     total magnetization       =    97.49 Bohr mag/cell
     absolute magnetization    =    98.71 Bohr mag/cell

     iteration # 33     ecut=    50.00 Ry     beta= 0.10
     Davidson diagonalization with overlap
     ethr =  2.35E-06,  avg # of iterations =  1.0

     negative rho (up, down):  1.394E-04 1.663E-04
 
     Adding external electric field

     Computed dipole along edir(3) : 
        Dipole               -0.7208 Ry au,         -1.8320 Debye
        Dipole field         -0.0004 Ry au, 
 
        Potential amp.        0.0473 Ry
        Total length         54.7057 bohr
 
 
     Adding external electric field

     Computed dipole along edir(3) : 
        Dipole               -0.7208 Ry au,         -1.8320 Debye
        Dipole field         -0.0004 Ry au, 
 
        Potential amp.        0.0473 Ry
        Total length         54.7057 bohr
 

     total cpu time spent up to now is      516.3 secs

     total energy              =   -8078.56150306 Ry
     estimated scf accuracy    <       0.03448528 Ry

     total magnetization       =    97.51 Bohr mag/cell
     absolute magnetization    =    98.71 Bohr mag/cell

     iteration # 34     ecut=    50.00 Ry     beta= 0.10
     Davidson diagonalization with overlap
     ethr =  2.35E-06,  avg # of iterations =  2.0

     negative rho (up, down):  4.910E-04 5.817E-04
 
     Adding external electric field

     Computed dipole along edir(3) : 
        Dipole               -0.6754 Ry au,         -1.7167 Debye
        Dipole field         -0.0004 Ry au, 
 
        Potential amp.        0.0443 Ry
        Total length         54.7057 bohr
 
 
     Adding external electric field

     Computed dipole along edir(3) : 
        Dipole               -0.6754 Ry au,         -1.7167 Debye
        Dipole field         -0.0004 Ry au, 
 
        Potential amp.        0.0443 Ry
        Total length         54.7057 bohr
 

     total cpu time spent up to now is      529.8 secs

     total energy              =   -8078.56143959 Ry
     estimated scf accuracy    <       0.03121307 Ry

     total magnetization       =    97.51 Bohr mag/cell
     absolute magnetization    =    98.67 Bohr mag/cell

     iteration # 35     ecut=    50.00 Ry     beta= 0.10
     Davidson diagonalization with overlap
     ethr =  2.35E-06,  avg # of iterations =  1.5

     negative rho (up, down):  5.512E-04 6.197E-04
 
     Adding external electric field

     Computed dipole along edir(3) : 
        Dipole               -0.6699 Ry au,         -1.7026 Debye
        Dipole field         -0.0004 Ry au, 
 
        Potential amp.        0.0439 Ry
        Total length         54.7057 bohr
 
 
     Adding external electric field

     Computed dipole along edir(3) : 
        Dipole               -0.6699 Ry au,         -1.7026 Debye
        Dipole field         -0.0004 Ry au, 
 
        Potential amp.        0.0439 Ry
        Total length         54.7057 bohr
 

     total cpu time spent up to now is      542.2 secs

     total energy              =   -8078.56137229 Ry
     estimated scf accuracy    <       0.03241781 Ry

     total magnetization       =    97.47 Bohr mag/cell
     absolute magnetization    =    98.68 Bohr mag/cell

     iteration # 36     ecut=    50.00 Ry     beta= 0.10
     Davidson diagonalization with overlap
     ethr =  2.35E-06,  avg # of iterations =  1.5

     negative rho (up, down):  5.482E-04 6.094E-04
 
     Adding external electric field

     Computed dipole along edir(3) : 
        Dipole               -0.6715 Ry au,         -1.7068 Debye
        Dipole field         -0.0004 Ry au, 
 
        Potential amp.        0.0440 Ry
        Total length         54.7057 bohr
 
 
     Adding external electric field

     Computed dipole along edir(3) : 
        Dipole               -0.6715 Ry au,         -1.7068 Debye
        Dipole field         -0.0004 Ry au, 
 
        Potential amp.        0.0440 Ry
        Total length         54.7057 bohr
 

     total cpu time spent up to now is      554.4 secs

     total energy              =   -8078.56134445 Ry
     estimated scf accuracy    <       0.03151118 Ry

     total magnetization       =    97.49 Bohr mag/cell
     absolute magnetization    =    98.70 Bohr mag/cell

     iteration # 37     ecut=    50.00 Ry     beta= 0.10
     Davidson diagonalization with overlap
     ethr =  2.35E-06,  avg # of iterations =  1.5

     negative rho (up, down):  1.728E-04 1.162E-04
 
     Adding external electric field

     Computed dipole along edir(3) : 
        Dipole               -0.7053 Ry au,         -1.7926 Debye
        Dipole field         -0.0004 Ry au, 
 
        Potential amp.        0.0463 Ry
        Total length         54.7057 bohr
 
 
     Adding external electric field

     Computed dipole along edir(3) : 
        Dipole               -0.7053 Ry au,         -1.7926 Debye
        Dipole field         -0.0004 Ry au, 
 
        Potential amp.        0.0463 Ry
        Total length         54.7057 bohr
 

     total cpu time spent up to now is      567.0 secs

     total energy              =   -8078.56049552 Ry
     estimated scf accuracy    <       0.03126839 Ry

     total magnetization       =    97.48 Bohr mag/cell
     absolute magnetization    =    98.70 Bohr mag/cell

     iteration # 38     ecut=    50.00 Ry     beta= 0.10
     Davidson diagonalization with overlap
     ethr =  2.35E-06,  avg # of iterations =  2.0

     negative rho (up, down):  9.351E-05 4.713E-05
 
     Adding external electric field

     Computed dipole along edir(3) : 
        Dipole               -0.6379 Ry au,         -1.6215 Debye
        Dipole field         -0.0004 Ry au, 
 
        Potential amp.        0.0418 Ry
        Total length         54.7057 bohr
 
 
     Adding external electric field

     Computed dipole along edir(3) : 
        Dipole               -0.6379 Ry au,         -1.6215 Debye
        Dipole field         -0.0004 Ry au, 
 
        Potential amp.        0.0418 Ry
        Total length         54.7057 bohr
 

     total cpu time spent up to now is      580.4 secs

     total energy              =   -8078.56003329 Ry
     estimated scf accuracy    <       0.02983279 Ry

     total magnetization       =    97.53 Bohr mag/cell
     absolute magnetization    =    98.72 Bohr mag/cell

     iteration # 39     ecut=    50.00 Ry     beta= 0.10
     Davidson diagonalization with overlap
     ethr =  2.35E-06,  avg # of iterations =  2.0

     negative rho (up, down):  6.433E-05 2.870E-05
 
     Adding external electric field

     Computed dipole along edir(3) : 
        Dipole               -0.7175 Ry au,         -1.8238 Debye
        Dipole field         -0.0004 Ry au, 
 
        Potential amp.        0.0471 Ry
        Total length         54.7057 bohr
 
 
     Adding external electric field

     Computed dipole along edir(3) : 
        Dipole               -0.7175 Ry au,         -1.8238 Debye
        Dipole field         -0.0004 Ry au, 
 
        Potential amp.        0.0471 Ry
        Total length         54.7057 bohr
 

     total cpu time spent up to now is      594.2 secs

     total energy              =   -8078.55979646 Ry
     estimated scf accuracy    <       0.03020946 Ry

     total magnetization       =    97.44 Bohr mag/cell
     absolute magnetization    =    98.61 Bohr mag/cell

     iteration # 40     ecut=    50.00 Ry     beta= 0.10
     Davidson diagonalization with overlap
     ethr =  2.35E-06,  avg # of iterations =  1.5

     negative rho (up, down):  2.329E-04 1.321E-04
 
     Adding external electric field

     Computed dipole along edir(3) : 
        Dipole               -0.6079 Ry au,         -1.5450 Debye
        Dipole field         -0.0004 Ry au, 
 
        Potential amp.        0.0399 Ry
        Total length         54.7057 bohr
 
 
     Adding external electric field

     Computed dipole along edir(3) : 
        Dipole               -0.6079 Ry au,         -1.5450 Debye
        Dipole field         -0.0004 Ry au, 
 
        Potential amp.        0.0399 Ry
        Total length         54.7057 bohr
 

     total cpu time spent up to now is      607.0 secs

     total energy              =   -8078.55923891 Ry
     estimated scf accuracy    <       0.03040844 Ry

     total magnetization       =    97.47 Bohr mag/cell
     absolute magnetization    =    98.63 Bohr mag/cell

     iteration # 41     ecut=    50.00 Ry     beta= 0.10
     Davidson diagonalization with overlap
     ethr =  2.35E-06,  avg # of iterations =  2.0

     negative rho (up, down):  7.495E-05 4.004E-05
 
     Adding external electric field

     Computed dipole along edir(3) : 
        Dipole               -0.6438 Ry au,         -1.6363 Debye
        Dipole field         -0.0004 Ry au, 
 
        Potential amp.        0.0422 Ry
        Total length         54.7057 bohr
 
 
     Adding external electric field

     Computed dipole along edir(3) : 
        Dipole               -0.6438 Ry au,         -1.6363 Debye
        Dipole field         -0.0004 Ry au, 
 
        Potential amp.        0.0422 Ry
        Total length         54.7057 bohr
 

     total cpu time spent up to now is      620.5 secs

     total energy              =   -8078.56010448 Ry
     estimated scf accuracy    <       0.02866387 Ry

     total magnetization       =    97.51 Bohr mag/cell
     absolute magnetization    =    98.61 Bohr mag/cell

     iteration # 42     ecut=    50.00 Ry     beta= 0.10
     Davidson diagonalization with overlap
     ethr =  2.35E-06,  avg # of iterations =  1.0

     negative rho (up, down):  1.724E-04 1.095E-04
 
     Adding external electric field

     Computed dipole along edir(3) : 
        Dipole               -0.6335 Ry au,         -1.6102 Debye
        Dipole field         -0.0004 Ry au, 
 
        Potential amp.        0.0416 Ry
        Total length         54.7057 bohr
 
 
     Adding external electric field

     Computed dipole along edir(3) : 
        Dipole               -0.6335 Ry au,         -1.6102 Debye
        Dipole field         -0.0004 Ry au, 
 
        Potential amp.        0.0416 Ry
        Total length         54.7057 bohr
 

     total cpu time spent up to now is      632.3 secs

     total energy              =   -8078.55954446 Ry
     estimated scf accuracy    <       0.02775867 Ry

     total magnetization       =    97.53 Bohr mag/cell
     absolute magnetization    =    98.62 Bohr mag/cell

     iteration # 43     ecut=    50.00 Ry     beta= 0.10
     Davidson diagonalization with overlap
     ethr =  2.35E-06,  avg # of iterations =  1.5

     negative rho (up, down):  1.171E-04 5.645E-05
 
     Adding external electric field

     Computed dipole along edir(3) : 
        Dipole               -0.6229 Ry au,         -1.5831 Debye
        Dipole field         -0.0004 Ry au, 
 
        Potential amp.        0.0409 Ry
        Total length         54.7057 bohr
 
 
     Adding external electric field

     Computed dipole along edir(3) : 
        Dipole               -0.6229 Ry au,         -1.5831 Debye
        Dipole field         -0.0004 Ry au, 
 
        Potential amp.        0.0409 Ry
        Total length         54.7057 bohr
 

     total cpu time spent up to now is      645.0 secs

     total energy              =   -8078.55993661 Ry
     estimated scf accuracy    <       0.02853722 Ry

     total magnetization       =    97.60 Bohr mag/cell
     absolute magnetization    =    98.67 Bohr mag/cell

     iteration # 44     ecut=    50.00 Ry     beta= 0.10
     Davidson diagonalization with overlap
     ethr =  2.35E-06,  avg # of iterations =  1.5

     negative rho (up, down):  3.153E-05 1.343E-05
 
     Adding external electric field

     Computed dipole along edir(3) : 
        Dipole               -0.6511 Ry au,         -1.6550 Debye
        Dipole field         -0.0004 Ry au, 
 
        Potential amp.        0.0427 Ry
        Total length         54.7057 bohr
 
 
     Adding external electric field

     Computed dipole along edir(3) : 
        Dipole               -0.6511 Ry au,         -1.6550 Debye
        Dipole field         -0.0004 Ry au, 
 
        Potential amp.        0.0427 Ry
        Total length         54.7057 bohr
 

     total cpu time spent up to now is      657.9 secs

     total energy              =   -8078.56004247 Ry
     estimated scf accuracy    <       0.02662430 Ry

     total magnetization       =    97.53 Bohr mag/cell
     absolute magnetization    =    98.66 Bohr mag/cell

     iteration # 45     ecut=    50.00 Ry     beta= 0.10
     Davidson diagonalization with overlap
     ethr =  2.35E-06,  avg # of iterations =  1.5

     negative rho (up, down):  9.603E-05 3.859E-05
 
     Adding external electric field

     Computed dipole along edir(3) : 
        Dipole               -0.6589 Ry au,         -1.6748 Debye
        Dipole field         -0.0004 Ry au, 
 
        Potential amp.        0.0432 Ry
        Total length         54.7057 bohr
 
 
     Adding external electric field

     Computed dipole along edir(3) : 
        Dipole               -0.6589 Ry au,         -1.6748 Debye
        Dipole field         -0.0004 Ry au, 
 
        Potential amp.        0.0432 Ry
        Total length         54.7057 bohr
 

     total cpu time spent up to now is      670.7 secs

     total energy              =   -8078.56008560 Ry
     estimated scf accuracy    <       0.02994741 Ry

     total magnetization       =    97.53 Bohr mag/cell
     absolute magnetization    =    98.63 Bohr mag/cell

     iteration # 46     ecut=    50.00 Ry     beta= 0.10
     Davidson diagonalization with overlap
     ethr =  2.35E-06,  avg # of iterations =  1.0

     negative rho (up, down):  8.163E-05 3.416E-05
 
     Adding external electric field

     Computed dipole along edir(3) : 
        Dipole               -0.6819 Ry au,         -1.7333 Debye
        Dipole field         -0.0004 Ry au, 
 
        Potential amp.        0.0447 Ry
        Total length         54.7057 bohr
 
 
     Adding external electric field

     Computed dipole along edir(3) : 
        Dipole               -0.6819 Ry au,         -1.7333 Debye
        Dipole field         -0.0004 Ry au, 
 
        Potential amp.        0.0447 Ry
        Total length         54.7057 bohr
 

     total cpu time spent up to now is      682.7 secs

     total energy              =   -8078.55988779 Ry
     estimated scf accuracy    <       0.02483673 Ry

     total magnetization       =    97.60 Bohr mag/cell
     absolute magnetization    =    98.77 Bohr mag/cell

     iteration # 47     ecut=    50.00 Ry     beta= 0.10
     Davidson diagonalization with overlap
     ethr =  2.24E-06,  avg # of iterations =  1.5

     negative rho (up, down):  7.956E-05 2.812E-05
 
     Adding external electric field

     Computed dipole along edir(3) : 
        Dipole               -0.6918 Ry au,         -1.7584 Debye
        Dipole field         -0.0004 Ry au, 
 
        Potential amp.        0.0454 Ry
        Total length         54.7057 bohr
 
 
     Adding external electric field

     Computed dipole along edir(3) : 
        Dipole               -0.6918 Ry au,         -1.7584 Debye
        Dipole field         -0.0004 Ry au, 
 
        Potential amp.        0.0454 Ry
        Total length         54.7057 bohr
 

     total cpu time spent up to now is      695.3 secs

     total energy              =   -8078.55964613 Ry
     estimated scf accuracy    <       0.02397351 Ry

     total magnetization       =    97.64 Bohr mag/cell
     absolute magnetization    =    98.86 Bohr mag/cell

     iteration # 48     ecut=    50.00 Ry     beta= 0.10
     Davidson diagonalization with overlap
     ethr =  2.16E-06,  avg # of iterations =  1.0

     negative rho (up, down):  9.286E-05 4.773E-05
 
     Adding external electric field

     Computed dipole along edir(3) : 
        Dipole               -0.6589 Ry au,         -1.6749 Debye
        Dipole field         -0.0004 Ry au, 
 
        Potential amp.        0.0432 Ry
        Total length         54.7057 bohr
 
 
     Adding external electric field

     Computed dipole along edir(3) : 
        Dipole               -0.6589 Ry au,         -1.6749 Debye
        Dipole field         -0.0004 Ry au, 
 
        Potential amp.        0.0432 Ry
        Total length         54.7057 bohr
 

     total cpu time spent up to now is      707.0 secs

     total energy              =   -8078.56006236 Ry
     estimated scf accuracy    <       0.02414178 Ry

     total magnetization       =    97.67 Bohr mag/cell
     absolute magnetization    =    98.89 Bohr mag/cell

     iteration # 49     ecut=    50.00 Ry     beta= 0.10
     Davidson diagonalization with overlap
     ethr =  2.16E-06,  avg # of iterations =  1.5

     negative rho (up, down):  7.788E-05 2.183E-05
 
     Adding external electric field

     Computed dipole along edir(3) : 
        Dipole               -0.7214 Ry au,         -1.8335 Debye
        Dipole field         -0.0004 Ry au, 
 
        Potential amp.        0.0473 Ry
        Total length         54.7057 bohr
 
 
     Adding external electric field

     Computed dipole along edir(3) : 
        Dipole               -0.7214 Ry au,         -1.8335 Debye
        Dipole field         -0.0004 Ry au, 
 
        Potential amp.        0.0473 Ry
        Total length         54.7057 bohr
 

     total cpu time spent up to now is      720.0 secs

     total energy              =   -8078.55907313 Ry
     estimated scf accuracy    <       0.02546413 Ry

     total magnetization       =    97.63 Bohr mag/cell
     absolute magnetization    =    98.90 Bohr mag/cell

     iteration # 50     ecut=    50.00 Ry     beta= 0.10
     Davidson diagonalization with overlap
     ethr =  2.16E-06,  avg # of iterations =  1.0

     negative rho (up, down):  1.218E-04 2.891E-05
 
     Adding external electric field

     Computed dipole along edir(3) : 
        Dipole               -0.7106 Ry au,         -1.8063 Debye
        Dipole field         -0.0004 Ry au, 
 
        Potential amp.        0.0466 Ry
        Total length         54.7057 bohr
 
 
     Adding external electric field

     Computed dipole along edir(3) : 
        Dipole               -0.7106 Ry au,         -1.8063 Debye
        Dipole field         -0.0004 Ry au, 
 
        Potential amp.        0.0466 Ry
        Total length         54.7057 bohr
 

     total cpu time spent up to now is      731.9 secs

     total energy              =   -8078.55864320 Ry
     estimated scf accuracy    <       0.02310905 Ry

     total magnetization       =    97.64 Bohr mag/cell
     absolute magnetization    =    98.85 Bohr mag/cell

     iteration # 51     ecut=    50.00 Ry     beta= 0.10
     Davidson diagonalization with overlap
     ethr =  2.09E-06,  avg # of iterations =  1.0

     negative rho (up, down):  8.009E-05 2.516E-05
 
     Adding external electric field

     Computed dipole along edir(3) : 
        Dipole               -0.7252 Ry au,         -1.8433 Debye
        Dipole field         -0.0004 Ry au, 
 
        Potential amp.        0.0476 Ry
        Total length         54.7057 bohr
 
 
     Adding external electric field

     Computed dipole along edir(3) : 
        Dipole               -0.7252 Ry au,         -1.8433 Debye
        Dipole field         -0.0004 Ry au, 
 
        Potential amp.        0.0476 Ry
        Total length         54.7057 bohr
 

     total cpu time spent up to now is      743.8 secs

     total energy              =   -8078.55938865 Ry
     estimated scf accuracy    <       0.02342687 Ry

     total magnetization       =    97.64 Bohr mag/cell
     absolute magnetization    =    98.84 Bohr mag/cell

     iteration # 52     ecut=    50.00 Ry     beta= 0.10
     Davidson diagonalization with overlap
     ethr =  2.09E-06,  avg # of iterations =  1.0

     negative rho (up, down):  6.659E-05 1.756E-05
 
     Adding external electric field

     Computed dipole along edir(3) : 
        Dipole               -0.7466 Ry au,         -1.8978 Debye
        Dipole field         -0.0004 Ry au, 
 
        Potential amp.        0.0490 Ry
        Total length         54.7057 bohr
 
 
     Adding external electric field

     Computed dipole along edir(3) : 
        Dipole               -0.7466 Ry au,         -1.8978 Debye
        Dipole field         -0.0004 Ry au, 
 
        Potential amp.        0.0490 Ry
        Total length         54.7057 bohr
 

     total cpu time spent up to now is      755.8 secs

     total energy              =   -8078.55933817 Ry
     estimated scf accuracy    <       0.02306942 Ry

     total magnetization       =    97.63 Bohr mag/cell
     absolute magnetization    =    98.83 Bohr mag/cell

     iteration # 53     ecut=    50.00 Ry     beta= 0.10
     Davidson diagonalization with overlap
     ethr =  2.08E-06,  avg # of iterations =  1.5

     negative rho (up, down):  3.222E-04 1.397E-04
 
     Adding external electric field

     Computed dipole along edir(3) : 
        Dipole               -0.6557 Ry au,         -1.6667 Debye
        Dipole field         -0.0004 Ry au, 
 
        Potential amp.        0.0430 Ry
        Total length         54.7057 bohr
 
 
     Adding external electric field

     Computed dipole along edir(3) : 
        Dipole               -0.6557 Ry au,         -1.6667 Debye
        Dipole field         -0.0004 Ry au, 
 
        Potential amp.        0.0430 Ry
        Total length         54.7057 bohr
 

     total cpu time spent up to now is      768.3 secs

     total energy              =   -8078.55882272 Ry
     estimated scf accuracy    <       0.02393057 Ry

     total magnetization       =    97.60 Bohr mag/cell
     absolute magnetization    =    98.80 Bohr mag/cell

     iteration # 54     ecut=    50.00 Ry     beta= 0.10
     Davidson diagonalization with overlap
     ethr =  2.08E-06,  avg # of iterations =  1.5

     negative rho (up, down):  3.387E-04 1.558E-04
 
     Adding external electric field

     Computed dipole along edir(3) : 
        Dipole               -0.6286 Ry au,         -1.5976 Debye
        Dipole field         -0.0004 Ry au, 
 
        Potential amp.        0.0412 Ry
        Total length         54.7057 bohr
 
 
     Adding external electric field

     Computed dipole along edir(3) : 
        Dipole               -0.6286 Ry au,         -1.5976 Debye
        Dipole field         -0.0004 Ry au, 
 
        Potential amp.        0.0412 Ry
        Total length         54.7057 bohr
 

     total cpu time spent up to now is      781.2 secs

     total energy              =   -8078.55916044 Ry
     estimated scf accuracy    <       0.02241858 Ry

     total magnetization       =    97.59 Bohr mag/cell
     absolute magnetization    =    98.84 Bohr mag/cell

     iteration # 55     ecut=    50.00 Ry     beta= 0.10
     Davidson diagonalization with overlap
     ethr =  2.02E-06,  avg # of iterations =  1.5

     negative rho (up, down):  2.889E-04 1.311E-04
 
     Adding external electric field

     Computed dipole along edir(3) : 
        Dipole               -0.6427 Ry au,         -1.6337 Debye
        Dipole field         -0.0004 Ry au, 
 
        Potential amp.        0.0422 Ry
        Total length         54.7057 bohr
 
 
     Adding external electric field

     Computed dipole along edir(3) : 
        Dipole               -0.6427 Ry au,         -1.6337 Debye
        Dipole field         -0.0004 Ry au, 
 
        Potential amp.        0.0422 Ry
        Total length         54.7057 bohr
 

     total cpu time spent up to now is      793.7 secs

     total energy              =   -8078.55935271 Ry
     estimated scf accuracy    <       0.02261918 Ry

     total magnetization       =    97.58 Bohr mag/cell
     absolute magnetization    =    98.82 Bohr mag/cell

     iteration # 56     ecut=    50.00 Ry     beta= 0.10
     Davidson diagonalization with overlap
     ethr =  2.02E-06,  avg # of iterations =  1.5

     negative rho (up, down):  2.936E-04 1.319E-04
 
     Adding external electric field

     Computed dipole along edir(3) : 
        Dipole               -0.6041 Ry au,         -1.5356 Debye
        Dipole field         -0.0004 Ry au, 
 
        Potential amp.        0.0396 Ry
        Total length         54.7057 bohr
 
 
     Adding external electric field

     Computed dipole along edir(3) : 
        Dipole               -0.6041 Ry au,         -1.5356 Debye
        Dipole field         -0.0004 Ry au, 
 
        Potential amp.        0.0396 Ry
        Total length         54.7057 bohr
 

     total cpu time spent up to now is      806.0 secs

     total energy              =   -8078.55872670 Ry
     estimated scf accuracy    <       0.02290931 Ry

     total magnetization       =    97.57 Bohr mag/cell
     absolute magnetization    =    98.82 Bohr mag/cell

     iteration # 57     ecut=    50.00 Ry     beta= 0.10
     Davidson diagonalization with overlap
     ethr =  2.02E-06,  avg # of iterations =  2.0

     negative rho (up, down):  2.114E-04 9.643E-05
 
     Adding external electric field

     Computed dipole along edir(3) : 
        Dipole               -0.6202 Ry au,         -1.5763 Debye
        Dipole field         -0.0004 Ry au, 
 
        Potential amp.        0.0407 Ry
        Total length         54.7057 bohr
 
 
     Adding external electric field

     Computed dipole along edir(3) : 
        Dipole               -0.6202 Ry au,         -1.5763 Debye
        Dipole field         -0.0004 Ry au, 
 
        Potential amp.        0.0407 Ry
        Total length         54.7057 bohr
 

     total cpu time spent up to now is      819.4 secs

     total energy              =   -8078.55875714 Ry
     estimated scf accuracy    <       0.02180519 Ry

     total magnetization       =    97.63 Bohr mag/cell
     absolute magnetization    =    98.86 Bohr mag/cell

     iteration # 58     ecut=    50.00 Ry     beta= 0.10
     Davidson diagonalization with overlap
     ethr =  1.97E-06,  avg # of iterations =  1.5

     negative rho (up, down):  4.772E-04 3.380E-04
 
     Adding external electric field

     Computed dipole along edir(3) : 
        Dipole               -0.5511 Ry au,         -1.4006 Debye
        Dipole field         -0.0003 Ry au, 
 
[...]
    -5.9989  -5.9834  -5.9619  -5.9435  -5.8990  -5.8869  -5.8743  -5.8538
    -5.8465  -5.8341  -5.8073  -5.7798  -5.7716  -5.7311  -5.7058  -5.6835
    -5.6794  -5.6348  -5.6184  -5.6080  -5.5948  -5.5875  -5.5695  -5.5489
    -5.5351  -5.5126  -5.5052  -5.4821  -5.4806  -5.4768  -5.4428  -5.3742
    -5.3514  -5.3091  -5.2718  -5.2591  -5.2571  -5.2502  -5.2384  -5.1697
    -5.1251  -5.1152  -5.0836  -5.0547  -5.0317  -5.0009  -4.9293  -4.9093
    -4.8784  -4.8261  -4.8199  -4.7978  -4.7920  -4.7533  -4.7405  -4.7045
    -4.6690  -4.6335  -4.5945  -4.5721  -4.5494  -4.4538  -4.4153  -4.3979
    -4.3912  -4.3805  -4.3595  -4.2979  -4.2684  -4.2308  -4.2267  -4.2101
    -4.1852  -4.1655  -4.1173  -4.0596  -4.0406  -3.9964  -3.9907  -3.9651
    -3.9024  -3.8667  -3.8427  -3.8375  -3.8180  -3.7528  -3.7443  -3.7400
    -3.7251  -3.7018  -3.6812  -3.6417  -3.6283  -3.6088  -3.6045  -3.5815
    -3.5447  -3.5339  -3.5267  -3.5122  -3.5016  -3.4890  -3.4549  -3.4315
    -3.4135  -3.3869  -3.3834  -3.3797  -3.3696  -3.3630  -3.3311  -3.3168
    -3.2926  -3.2857  -3.2763  -3.2407  -3.2211  -3.1975  -3.1691  -3.1510
    -3.1425  -3.0907  -3.0833  -3.0677  -3.0464  -3.0400  -3.0232  -3.0089
    -2.9815  -2.9538  -2.9270  -2.9019  -2.8737  -2.8596  -2.8493  -2.8275
    -2.8066  -2.7880  -2.7281  -2.7163  -2.7104  -2.6982  -2.6947  -2.6819
    -2.6695  -2.6559  -2.6529  -2.6296  -2.6105  -2.5984  -2.5820  -2.5777
    -2.5572  -2.5445  -2.5302  -2.5116  -2.5074  -2.5042  -2.4821  -2.4681
    -2.4371  -2.4210  -2.4038  -2.3897  -2.3792  -2.3425  -2.3403  -2.3187
    -2.2995  -2.2825  -2.2732  -2.2515  -2.2234  -2.2017  -2.1963  -2.1896
    -2.1589  -2.1451  -2.1310  -2.0986  -2.0814  -2.0582  -2.0447  -2.0312
    -2.0131  -1.9955  -1.9798  -1.9731  -1.9573  -1.9181  -1.8930  -1.8869
    -1.8776  -1.8636  -1.8587  -1.8401  -1.8351  -1.8198  -1.8059  -1.7994
    -1.7286  -1.7003  -1.6850  -1.6538  -1.6409  -1.6341  -1.6166  -1.5939
    -1.5930  -1.5859  -1.5728  -1.5393  -1.5355  -1.5241  -1.4823  -1.4496
    -1.4312  -1.4229  -1.3815  -1.3704  -1.3561  -1.3410  -1.3274  -1.3200
    -1.3060  -1.2878  -1.2558  -1.2278  -1.1878  -1.1715  -1.1502  -1.1043
    -1.0789  -1.0288  -1.0122  -1.0018  -0.9951  -0.8492  -0.8412  -0.8065
    -0.7427  -0.6375  -0.6212  -0.5726  -0.4632  -0.4205  -0.2821  -0.2158
     0.1721   0.1843   0.2281   0.2472   0.2547   0.2812   0.2994   0.3115
     0.3302   0.3349   0.3618   0.3699   0.3731   0.3799   0.3912   0.3974
     0.4030   0.4060   0.4205   0.4232   0.4366   0.4473   0.4583   0.4624
     0.4671   0.4728   0.4801   0.4839   0.4974   0.5062   0.5121   0.5237
     0.5261   0.5345   0.5495   0.5633   0.5681   0.5726   0.5895   0.5965
     0.6026   0.6171   0.6248   0.6315   0.6367   0.6458   0.6540   0.6584
     0.6686   0.6723   0.6941   0.6975   0.7121   0.7164   0.7249   0.7333
     0.7351   0.7520   0.7689   0.7721   0.7840   0.7956   0.8022   0.8135
     0.8167   0.8321   0.8426   0.8508   0.8578   0.8629   0.8681   0.8929
     0.9006   0.9528   0.9739   1.0205   1.0332   1.0512   1.1237   1.1431
     1.6820   1.7558   1.7754   1.8041   1.8175   1.8241   1.8345   1.8676
     1.8780   1.9006   1.9304   1.9561   1.9750   1.9894   2.0047   2.0341
     2.0470   2.0795   2.0821   2.1022   2.1033   2.1322   2.1358   2.1647
     2.1742   2.1914   2.1970   2.2087   2.2258   2.2451   2.2704   2.2793
     2.2910   2.2964   2.3230   2.3440   2.3565   2.3742   2.4363   2.4436
     2.4626   2.4759   2.4930   2.5070   2.5226   2.5327   2.5893   2.5977
     2.6115   2.6510   2.6874   2.7965   2.8203   2.8553   2.8621   3.5536
     3.6009   3.6880   3.7513   3.7808   3.8236   3.8288   3.8442   3.8763
     3.8809   3.9366   3.9455   3.9602   3.9953   3.9991   4.0159   4.0310
     4.0635   4.0782   4.0922   4.1016   4.1352   4.1518   4.1652   4.2008
     4.2073   4.2193   4.2440   4.2624   4.3034   4.6025   4.7012   4.7665
     4.7836   4.8529   4.8944   4.9203   4.9749   4.9879   5.0086   5.0587
     5.0732   5.0983   5.1460   5.1676   5.2077   5.2186   5.3871   6.1793
     6.3511   6.4422   6.5741   6.7053   6.7153   6.7519   6.8506   6.8728
     6.9481   6.9634   7.0094   7.0521   7.2196   7.2996   7.3441   7.3615
     7.3829   7.4232   7.4869   7.5130   7.5713   7.5893   7.7081   7.7145
     7.8264   7.8411   7.8882   7.9200   7.9518   7.9927   8.0164   8.0499
     8.0734   8.1024   8.1110   8.1617   8.1955   8.2060   8.2355   8.2836
     8.3019   8.3378   8.3623   8.3665   8.3851   8.4106   8.4232   8.4418
     8.4557   8.4751   8.5278   8.5578   8.5606   8.5749   8.6102   8.6413
     8.6488

     the Fermi energy is     1.6828 ev

!    total energy              =   -8078.55895498 Ry
     estimated scf accuracy    <       0.00000061 Ry
     smearing contrib. (-TS)   =      -0.02331836 Ry
     internal energy E=F+TS    =   -8078.53563663 Ry

     The total energy is F=E-TS. E is the sum of the following terms:
     one-electron contribution =  -94695.82275566 Ry
     hartree contribution      =   47932.65138384 Ry
     xc contribution           =   -2177.38686456 Ry
     ewald contribution        =   40863.79302157 Ry
     Dispersion Correction     =      -1.77043525 Ry
     electric field correction =       0.00001343 Ry

     total magnetization       =    97.44 Bohr mag/cell
     absolute magnetization    =    98.66 Bohr mag/cell

     convergence has been achieved in  80 iterations

     negative rho (up, down):  1.163E-03 6.260E-04

     Forces acting on atoms (cartesian axes, Ry/au):

     atom    1 type  1   force =     0.02416375   -0.01765580    0.01994842
     atom    2 type  1   force =    -0.00196844    0.00026633   -0.00570867
     atom    3 type  2   force =    -0.03032364   -0.01573376   -0.00858759
     atom    4 type  1   force =     0.00189055   -0.00347074   -0.00461325
     atom    5 type  1   force =    -0.00373396    0.00224924   -0.00202318
     atom    6 type  1   force =     0.00240344    0.00744790   -0.00444884
     atom    7 type  1   force =     0.03209399   -0.01956806    0.01770946
     atom    8 type  2   force =    -0.00184150    0.00025624   -0.00919300
     atom    9 type  2   force =    -0.02898612   -0.01542646   -0.00863270
     atom   10 type  1   force =     0.00202596   -0.00315013   -0.00437732
     atom   11 type  1   force =    -0.00345140    0.00273152   -0.00120688
     atom   12 type  1   force =     0.00377656    0.00685280   -0.00394591
     atom   13 type  3   force =     0.00212933    0.00073528   -0.00761980
     atom   14 type  3   force =    -0.02975625    0.04990622   -0.06595859
     atom   15 type  3   force =     0.03465779    0.03760344   -0.05982190
     atom   16 type  3   force =    -0.00440949    0.00309118   -0.00097817
     atom   17 type  4   force =    -0.00201895    0.00134362    0.00279354
     atom   18 type  4   force =    -0.00163730   -0.00513079    0.02736059
     atom   19 type  4   force =     0.00397698    0.00281231    0.02947241
     atom   20 type  4   force =     0.00007466   -0.00273666   -0.00486222
     atom   21 type  4   force =    -0.00305024   -0.00231766    0.00342639
     atom   22 type  4   force =     0.00472159   -0.00327519    0.03420709
     atom   23 type  4   force =    -0.00598133   -0.00109550    0.03247943
     atom   24 type  4   force =     0.00067324   -0.00100497    0.00009641
     atom   25 type  4   force =    -0.00132240    0.00084623    0.00218350
     atom   26 type  4   force =    -0.01451912   -0.02271512   -0.00182259
     atom   27 type  4   force =     0.00171927   -0.00070982    0.00119746
     atom   28 type  4   force =    -0.01764486    0.00340763    0.00119660
     atom   29 type  4   force =     0.02066080   -0.00458402    0.00827947
     atom   30 type  4   force =     0.01240327   -0.03410062    0.00112028
     atom   31 type  4   force =     0.00051447    0.00095387    0.00232225
     atom   32 type  4   force =    -0.00207287    0.00007234    0.00266663
     atom   33 type  3   force =    -0.00053996   -0.00161533   -0.00509831
     atom   34 type  3   force =    -0.03022044    0.05981941   -0.08314665
     atom   35 type  3   force =     0.03460061    0.03340539   -0.05925324
     atom   36 type  3   force =    -0.00386511    0.00469597   -0.00075421
     atom   37 type  4   force =    -0.00109948    0.00131332    0.00303020
     atom   38 type  4   force =    -0.00306739   -0.00555398    0.03293274
     atom   39 type  4   force =     0.00444301    0.00392874    0.02922763
     atom   40 type  4   force =     0.00023087   -0.00325598   -0.00497358
     atom   41 type  4   force =    -0.00008441    0.00001572    0.00364066
     atom   42 type  4   force =     0.00543187    0.00028659    0.01995256
     atom   43 type  4   force =    -0.00177571    0.00037480    0.03455861
     atom   44 type  4   force =     0.00094049   -0.00088441    0.00010545
     atom   45 type  4   force =    -0.00015214   -0.00261862    0.00128994
     atom   46 type  4   force =    -0.01509659   -0.02036783   -0.00048252
     atom   47 type  4   force =     0.00186617   -0.00060145    0.00127730
     atom   48 type  4   force =    -0.01800676    0.00403131    0.00162157
     atom   49 type  4   force =     0.01649734   -0.00276824    0.00498531
     atom   50 type  4   force =     0.01180728   -0.03678569    0.00436164
     atom   51 type  4   force =     0.00104027    0.00097878    0.00172595
     atom   52 type  4   force =     0.00101201   -0.00222606    0.00363387
     atom   53 type  1   force =     0.00129569    0.00073061   -0.00062537
     atom   54 type  1   force =     0.00042108   -0.00078782    0.00307072
     atom   55 type  2   force =    -0.00008469   -0.00052622   -0.00058161
     atom   56 type  1   force =    -0.00103998    0.00070570   -0.00033880
     atom   57 type  1   force =     0.00027933    0.00017440    0.00041480
     atom   58 type  1   force =     0.00020689   -0.00027701    0.00043094
     atom   59 type  1   force =     0.00064502    0.00095696   -0.00080189
     atom   60 type  2   force =    -0.00091934   -0.00119587    0.00715376
     atom   61 type  2   force =    -0.00033790   -0.00038029   -0.00048076
     atom   62 type  1   force =    -0.00038918    0.00149290    0.00016475
     atom   63 type  1   force =    -0.00038065    0.00040280    0.00042004
     atom   64 type  1   force =    -0.00002386   -0.00047796    0.00020428
     atom   65 type  3   force =    -0.00072198   -0.00174194    0.00309913
     atom   66 type  3   force =     0.00011945   -0.00011774   -0.00162103
     atom   67 type  3   force =     0.00038004    0.00050087   -0.00130974
     atom   68 type  3   force =    -0.00110189   -0.00061083    0.00293098
     atom   69 type  4   force =    -0.00084623    0.00027116   -0.00170537
     atom   70 type  4   force =    -0.00013803    0.00014547    0.00049029
     atom   71 type  4   force =     0.00010317   -0.00021747    0.00033693
     atom   72 type  4   force =     0.00048381   -0.00045280   -0.00109916
     atom   73 type  4   force =     0.00077520    0.00034503   -0.00024956
     atom   74 type  4   force =    -0.00023035   -0.00061712    0.00175661
     atom   75 type  4   force =    -0.00008183   -0.00003874    0.00051714
     atom   76 type  4   force =    -0.00080689   -0.00083595    0.00156484
     atom   77 type  4   force =    -0.00085236    0.00077561   -0.00010828
     atom   78 type  4   force =    -0.00030771    0.00003914    0.00034416
     atom   79 type  4   force =     0.00013359    0.00090467   -0.00143196
     atom   80 type  4   force =     0.00005762    0.00061720    0.00029197
     atom   81 type  4   force =    -0.00041277   -0.00029319    0.00036287
     atom   82 type  4   force =     0.00009003   -0.00015942    0.00007359
     atom   83 type  4   force =     0.00046275    0.00076447   -0.00016143
     atom   84 type  4   force =    -0.00030235    0.00024512   -0.00100550
     atom   85 type  3   force =     0.00013114   -0.00046104    0.00074560
     atom   86 type  3   force =     0.00063949   -0.00057380   -0.00055656
     atom   87 type  3   force =    -0.00029332   -0.00003751   -0.00102767
     atom   88 type  3   force =    -0.00070387    0.00023329    0.00238326
     atom   89 type  4   force =    -0.00005432    0.00012900   -0.00057300
     atom   90 type  4   force =     0.00007640   -0.00041081    0.00169708
     atom   91 type  4   force =     0.00028547    0.00006617    0.00030665
     atom   92 type  4   force =     0.00067078   -0.00082319   -0.00127023
     atom   93 type  4   force =     0.00135632    0.00009954   -0.00014869
     atom   94 type  4   force =    -0.00032266    0.00009355    0.00133375
     atom   95 type  4   force =     0.00026718    0.00015775    0.00053664
     atom   96 type  4   force =    -0.00157411    0.00003543    0.00039060
     atom   97 type  4   force =     0.00073582   -0.00037665   -0.00147494
     atom   98 type  4   force =    -0.00052134   -0.00016221    0.00033194
     atom   99 type  4   force =     0.00063632    0.00106279   -0.00130820
     atom  100 type  4   force =     0.00055592    0.00038778    0.00050051
     atom  101 type  4   force =    -0.00028314   -0.00015683    0.00044977
     atom  102 type  4   force =     0.00091571   -0.00040170    0.00045143
     atom  103 type  4   force =     0.00097027   -0.00022533    0.00006740
     atom  104 type  4   force =    -0.00030194   -0.00102402   -0.00030388
     atom  105 type  1   force =    -0.00001790    0.00005079    0.00001030
     atom  106 type  1   force =     0.00034552   -0.00016890   -0.00012436
     atom  107 type  2   force =     0.00002045   -0.00019836    0.00020714
     atom  108 type  1   force =    -0.00067472   -0.00078674   -0.00027775
     atom  109 type  1   force =     0.00018516    0.00016434   -0.00011552
     atom  110 type  1   force =    -0.00033792    0.00016726   -0.00005199
     atom  111 type  1   force =     0.00021541    0.00019822    0.00020226
     atom  112 type  2   force =    -0.00015490    0.00023907   -0.00011865
     atom  113 type  2   force =     0.00012198   -0.00000229    0.00015312
     atom  114 type  1   force =     0.00014350    0.00064392    0.00035503
     atom  115 type  1   force =     0.00022064    0.00001005   -0.00010220
     atom  116 type  1   force =    -0.00012254   -0.00024041    0.00024313
     atom  117 type  3   force =    -0.00025289    0.00006275   -0.00011299
     atom  118 type  3   force =    -0.00002618   -0.00010030   -0.00035430
     atom  119 type  3   force =    -0.00021339    0.00009141    0.00019956
     atom  120 type  3   force =     0.00013707    0.00003109    0.00002414
     atom  121 type  4   force =     0.00018552    0.00007360   -0.00009759
     atom  122 type  4   force =     0.00017137   -0.00008513    0.00039974
     atom  123 type  4   force =     0.00011336    0.00006239    0.00021973
     atom  124 type  4   force =    -0.00023951   -0.00025690    0.00041598
     atom  125 type  4   force =     0.00095956   -0.00004356    0.00017911
     atom  126 type  4   force =    -0.00054837    0.00024490    0.00010115
     atom  127 type  4   force =    -0.00000326    0.00006504    0.00006265
     atom  128 type  4   force =     0.00009188   -0.00046471   -0.00021437
     atom  129 type  4   force =    -0.00028767   -0.00018750    0.00012487
     atom  130 type  4   force =    -0.00006227    0.00004759    0.00011684
     atom  131 type  4   force =     0.00059602    0.00024037    0.00008886
     atom  132 type  4   force =     0.00038161    0.00030414   -0.00013248
     atom  133 type  4   force =    -0.00017425    0.00002063   -0.00007480
     atom  134 type  4   force =     0.00022614    0.00020241    0.00022723
     atom  135 type  4   force =     0.00047098    0.00007289    0.00017282
     atom  136 type  4   force =    -0.00003559   -0.00014394    0.00004539
     atom  137 type  3   force =     0.00012728    0.00024190   -0.00015682
     atom  138 type  3   force =     0.00007113   -0.00017762   -0.00006245
     atom  139 type  3   force =     0.00039173    0.00025028   -0.00001349
     atom  140 type  3   force =     0.00025157   -0.00053404   -0.00053153
     atom  141 type  4   force =    -0.00036941   -0.00004702    0.00041953
     atom  142 type  4   force =     0.00010745    0.00000920   -0.00021970
     atom  143 type  4   force =    -0.00024074    0.00038411    0.00006462
     atom  144 type  4   force =    -0.00039615   -0.00020616    0.00089316
     atom  145 type  4   force =     0.00030719    0.00028517   -0.00001710
     atom  146 type  4   force =    -0.00019847   -0.00022188    0.00005034
     atom  147 type  4   force =     0.00011422    0.00006024    0.00015082
     atom  148 type  4   force =    -0.00030578   -0.00017747   -0.00027323
     atom  149 type  4   force =     0.00001536    0.00047783    0.00011182
     atom  150 type  4   force =    -0.00010962    0.00040527   -0.00000730
     atom  151 type  4   force =     0.00006887   -0.00010276    0.00012440
     atom  152 type  4   force =    -0.00017496   -0.00005162    0.00005360
     atom  153 type  4   force =    -0.00004460    0.00024932    0.00007579
     atom  154 type  4   force =     0.00012753   -0.00030804   -0.00013831
     atom  155 type  4   force =    -0.00003120    0.00013962    0.00010095
     atom  156 type  4   force =     0.00005122    0.00007075    0.00055510
     atom  157 type  4   force =    -0.00656735    0.00703380    0.00366854
     atom  158 type  5   force =     0.00657835   -0.00612226   -0.00255381

     Total force =     0.225787     Total SCF correction =     0.003440
 
     init_run     :      8.39s CPU      8.99s WALL (       1 calls)
     electrons    :   1081.36s CPU   1124.73s WALL (       1 calls)
     forces       :      4.15s CPU      4.44s WALL (       1 calls)
     force_london :      0.08s CPU      0.08s WALL (       1 calls)

     Called by init_run:
     wfcinit      :      4.84s CPU      5.01s WALL (       1 calls)
     potinit      :      0.62s CPU      0.79s WALL (       1 calls)
     hinit0       :      1.73s CPU      1.83s WALL (       1 calls)

     Called by electrons:
     c_bands      :    839.58s CPU    862.23s WALL (      80 calls)
     sum_band     :    149.49s CPU    160.58s WALL (      80 calls)
     v_of_rho     :     22.06s CPU     23.09s WALL (      81 calls)
     newd         :     48.28s CPU     56.94s WALL (      81 calls)
     mix_rho      :     20.94s CPU     21.03s WALL (      80 calls)
     energy_londo :      0.07s CPU      0.07s WALL (       1 calls)

     Called by c_bands:
     init_us_2    :      1.81s CPU      1.87s WALL (     324 calls)
     init_us_2:cp :      1.80s CPU      1.87s WALL (     324 calls)
     regterg      :    823.24s CPU    845.73s WALL (     161 calls)

     Called by *egterg:
     rdiaghg      :    198.16s CPU    209.23s WALL (     592 calls)
     h_psi        :    314.40s CPU    319.73s WALL (     594 calls)
     s_psi        :     46.84s CPU     46.87s WALL (     594 calls)
     g_psi        :      0.35s CPU      0.35s WALL (     431 calls)

     Called by h_psi:
     h_psi:calbec :     84.39s CPU     88.61s WALL (     594 calls)
     vloc_psi     :    180.41s CPU    181.00s WALL (     594 calls)
     add_vuspsi   :     49.03s CPU     49.55s WALL (     594 calls)

     General routines
     calbec       :    125.37s CPU    131.58s WALL (     762 calls)
     fft          :     37.81s CPU     39.19s WALL (    1471 calls)
     ffts         :     12.75s CPU     12.78s WALL (    9959 calls)
     fftw         :    208.46s CPU    209.08s WALL (  275072 calls)
     interpolate  :      1.70s CPU      1.80s WALL (     162 calls)
 
     Parallel routines
 
     PWSCF        :  18m15.87s CPU  19m 0.43s WALL

 
   This run was terminated on:  20:56: 8  17Nov2025            

=------------------------------------------------------------------------------=
   JOB DONE.
=------------------------------------------------------------------------------=
