
     Program PWSCF v.7.2 starts on 17Nov2025 at 21:18: 6 

     This program is part of the open-source Quantum ESPRESSO suite
     for quantum simulation of materials; please cite
         "P. Giannozzi et al., J. Phys.:Condens. Matter 21 395502 (2009);
         "P. Giannozzi et al., J. Phys.:Condens. Matter 29 465901 (2017);
         "P. Giannozzi et al., J. Chem. Phys. 152 154105 (2020);
          URL http://www.quantum-espresso.org", 
     in publications or presentations arising from this work. More details at
     http://www.quantum-espresso.org/quote

     Parallel version (MPI), running on    64 processors

     MPI processes distributed on     4 nodes
     466240 MiB available memory on the printing compute node when the environment starts
 
     Reading input from PWINPUT_atm158_zp

     Current dimensions of program PWSCF are:
     Max number of different atomic species (ntypx) = 10
     Max number of k-points (npk) =  40000
     Max angular momentum in pseudopotentials (lmaxx) =  4
     Presently no symmetry can be used with electric field

     file Ni.pbe-n-rrkjus_psl.1.0.0.UPF: wavefunction(s)  3D renormalized
     file Mn.pbe-spn-rrkjus_psl.0.3.1.UPF: wavefunction(s)  3D renormalized
     file O.pbe-rrkjus.UPF: wavefunction(s)  2S renormalized
     file H.pbe-rrkjus.UPF: wavefunction(s)  1S renormalized

     gamma-point specific algorithms are used
 
     R & G space division:  proc/nbgrp/npool/nimage =      64
     Subspace diagonalization in iterative solution of the eigenvalue problem:
     one sub-group per band group will be used
     custom distributed-memory algorithm (size of sub-group:  7*  7 procs)

 
     Parallelization info
     --------------------
     sticks:   dense  smooth     PW     G-vecs:    dense   smooth      PW
     Min         214      85     20                61830    15614    1928
     Max         216      86     22                61864    15658    1982
     Sum       13727    5503   1375              3958051  1001255  125211
 
     Using Slab Decomposition
 


     bravais-lattice index     =            0
     lattice parameter (alat)  =      17.8532  a.u.
     unit-cell volume          =   20962.6682 (a.u.)^3
     number of atoms/cell      =          158
     number of atomic types    =            5
     number of electrons       =      1108.00
     number of Kohn-Sham states=          665
     kinetic-energy cutoff     =      50.0000  Ry
     charge density cutoff     =     500.0000  Ry
     scf convergence threshold =      1.0E-06
     mixing beta               =       0.1000
     number of iterations used =            8  local-TF  mixing
     Exchange-correlation=  SLA  PW   PBE  PBE
                           (   1   4   3   4   0   0   0)

     celldm(1)=  17.853155  celldm(2)=   0.000000  celldm(3)=   0.000000
     celldm(4)=   0.000000  celldm(5)=   0.000000  celldm(6)=   0.000000

     crystal axes: (cart. coord. in units of alat)
               a(1) = (   1.000000   0.000000   0.000000 )  
               a(2) = (   0.003237   1.081997   0.000000 )  
               a(3) = (   0.000000   0.000000   3.404673 )  

     reciprocal axes: (cart. coord. in units 2 pi/alat)
               b(1) = (  1.000000 -0.002992  0.000000 )  
               b(2) = (  0.000000  0.924217  0.000000 )  
               b(3) = (  0.000000  0.000000  0.293714 )  


     PseudoPot. # 1 for Ni read from file:
     ~/PSEUDO/Ni.pbe-n-rrkjus_psl.1.0.0.UPF
     MD5 check sum: Not computed, couldn't open file
     Pseudo is Ultrasoft + core correction, Zval = 10.0
     Generated using "atomic" code by A. Dal Corso  v.5.1.2
     Using radial grid of 1195 points,  6 beta functions with: 
                l(1) =   0
                l(2) =   0
                l(3) =   1
                l(4) =   1
                l(5) =   2
                l(6) =   2
     Q(r) pseudized with 0 coefficients 


     PseudoPot. # 2 for Mn read from file:
     ~/PSEUDO/Mn.pbe-spn-rrkjus_psl.0.3.1.UPF
     MD5 check sum: Not computed, couldn't open file
     Pseudo is Ultrasoft + core correction, Zval = 15.0
     Generated using &quot;atomic&quot; code by A. Dal Corso  v.6.2.2
     Using radial grid of 1187 points,  6 beta functions with: 
                l(1) =   0
                l(2) =   0
                l(3) =   1
                l(4) =   1
                l(5) =   2
                l(6) =   2
     Q(r) pseudized with 0 coefficients 


     PseudoPot. # 3 for P  read from file:
     ~/PSEUDO/P.pbe-n-rrkjus_psl.1.0.0.UPF
     MD5 check sum: Not computed, couldn't open file
     Pseudo is Ultrasoft + core correction, Zval =  5.0
     Generated using "atomic" code by A. Dal Corso  v.5.1
     Using radial grid of 1147 points,  6 beta functions with: 
                l(1) =   0
                l(2) =   0
                l(3) =   1
                l(4) =   1
                l(5) =   2
                l(6) =   2
     Q(r) pseudized with 0 coefficients 


     PseudoPot. # 4 for O  read from file:
     ~/PSEUDO/O.pbe-rrkjus.UPF
     MD5 check sum: Not computed, couldn't open file
     Pseudo is Ultrasoft, Zval =  6.0
     Generated by new atomic code, or converted to UPF format
     Using radial grid of 1269 points,  4 beta functions with: 
                l(1) =   0
                l(2) =   0
                l(3) =   1
                l(4) =   1
     Q(r) pseudized with 0 coefficients 


     PseudoPot. # 5 for H  read from file:
     ~/PSEUDO/H.pbe-rrkjus.UPF
     MD5 check sum: Not computed, couldn't open file
     Pseudo is Ultrasoft, Zval =  1.0
     Generated by new atomic code, or converted to UPF format
     Using radial grid of 1061 points,  2 beta functions with: 
                l(1) =   0
                l(2) =   0
     Q(r) pseudized with 0 coefficients 


     atomic species   valence    mass     pseudopotential
     Ni               10.00    58.69300     Ni( 1.00)
     Mn               15.00    54.93800     Mn( 1.00)
     P                 5.00    30.97300     P ( 1.00)
     O                 6.00    15.99900     O ( 1.00)
     H                 1.00     1.00790     H ( 1.00)

     Starting magnetic structure 
     atomic species   magnetization
     Ni              1.000
     Mn              1.000
     P               1.000
     O               1.000
     H               0.000

     No symmetry found



   Cartesian axes

     site n.     atom                  positions (alat units)
         1        Ni     tau(   1) = (   0.2448189   0.8359134   0.1216996  )
         2        Ni     tau(   2) = (   0.4920952   0.7731948   0.4438949  )
         3        Mn     tau(   3) = (   0.0113021   0.2918949   0.1160512  )
         4        Ni     tau(   4) = (   0.2586115   0.2268566   0.4417628  )
         5        Ni     tau(   5) = (   1.0019827   1.0705803   0.2835623  )
         6        Ni     tau(   6) = (   0.2518099   0.5339061   0.2823483  )
         7        Ni     tau(   7) = (   0.7400999   0.8349186   0.1225624  )
         8        Mn     tau(   8) = (   0.9886961   0.7700845   0.4492175  )
         9        Mn     tau(   9) = (   0.5113421   0.2944667   0.1158892  )
        10        Ni     tau(  10) = (   0.7560857   0.2263843   0.4422798  )
        11        Ni     tau(  11) = (   0.5009386   1.0712238   0.2822610  )
        12        Ni     tau(  12) = (   0.7496978   0.5336600   0.2834396  )
        13        P      tau(  13) = (   0.2147792   0.9686896   0.4382665  )
        14        P      tau(  14) = (   0.4607377   0.6441916   0.1265334  )
        15        P      tau(  15) = (   0.2883218   0.0913464   0.1265752  )
        16        P      tau(  16) = (   0.0408981   0.4221836   0.4354960  )
        17        O      tau(  17) = (   0.1380864   0.9007819   0.3023220  )
        18        O      tau(  18) = (   0.3817439   0.7113683   0.2624610  )
        19        O      tau(  19) = (   0.3638364   0.1608547   0.2624417  )
        20        O      tau(  20) = (   0.1207568   0.3545755   0.3021219  )
        21        O      tau(  21) = (   0.1552194   0.8797563   0.5625160  )
        22        O      tau(  22) = (   0.4022820   0.7317969   0.0010585  )
        23        O      tau(  23) = (   0.3454844   0.1823965   0.0026336  )
        24        O      tau(  24) = (   0.1017019   0.3344979   0.5594858  )
        25        O      tau(  25) = (   0.0970074   0.5770714   0.4346455  )
        26        O      tau(  26) = (   0.3534166   1.0203677   0.1270707  )
        27        O      tau(  27) = (   0.3778024   0.4172402   0.4261028  )
        28        O      tau(  28) = (   0.1256171   0.0954063   0.1372153  )
        29        O      tau(  29) = (   0.1232168   0.6482422   0.1385172  )
        30        O      tau(  30) = (   0.4028533   0.4897833   0.1289718  )
        31        O      tau(  31) = (   0.1511050   0.0405554   0.4369979  )
        32        O      tau(  32) = (   0.3776556   0.9624293   0.4288159  )
        33        P      tau(  33) = (   0.7084770   0.9682119   0.4394551  )
        34        P      tau(  34) = (   0.9603154   0.6409658   0.1292469  )
        35        P      tau(  35) = (   0.7875734   0.0899770   0.1274098  )
        36        P      tau(  36) = (   0.5405152   0.4272620   0.4364455  )
        37        O      tau(  37) = (   0.6323583   0.8977630   0.3036670  )
        38        O      tau(  38) = (   0.8809646   0.7091921   0.2627111  )
        39        O      tau(  39) = (   0.8631054   0.1587239   0.2636487  )
        40        O      tau(  40) = (   0.6202581   0.3578380   0.3034239  )
        41        O      tau(  41) = (   0.6499160   0.8772596   0.5630912  )
        42        O      tau(  42) = (   0.8990171   0.7283464   0.0054426  )
        43        O      tau(  43) = (   0.8448361   0.1806154   0.0030658  )
        44        O      tau(  44) = (   0.6023096   0.3392612   0.5600469  )
        45        O      tau(  45) = (   0.5960222   0.5826131   0.4346340  )
        46        O      tau(  46) = (   0.8515023   1.0184215   0.1281632  )
        47        O      tau(  47) = (   0.8779640   0.4148900   0.4260983  )
        48        O      tau(  48) = (   0.6251159   0.0957170   0.1376895  )
        49        O      tau(  49) = (   0.6237654   0.6481585   0.1378370  )
        50        O      tau(  50) = (   0.9038046   0.4863338   0.1307354  )
        51        O      tau(  51) = (   0.6458737   0.0402574   0.4377979  )
        52        O      tau(  52) = (   0.8712434   0.9635255   0.4285638  )
        53        Ni     tau(  53) = (   0.2420320   0.8169913   0.7491577  )
        54        Ni     tau(  54) = (   0.4893084   0.7542727   1.0713530  )
        55        Mn     tau(  55) = (   0.0085152   0.2729728   0.7435093  )
        56        Ni     tau(  56) = (   0.2558246   0.2079345   1.0692209  )
        57        Ni     tau(  57) = (   0.9991959   1.0516583   0.9110204  )
        58        Ni     tau(  58) = (   0.2490231   0.5149840   0.9098064  )
        59        Ni     tau(  59) = (   0.7373131   0.8159965   0.7500205  )
        60        Mn     tau(  60) = (   0.9859093   0.7511625   1.0766756  )
        61        Mn     tau(  61) = (   0.5085552   0.2755447   0.7433473  )
        62        Ni     tau(  62) = (   0.7532989   0.2074622   1.0697379  )
        63        Ni     tau(  63) = (   0.4981517   1.0523018   0.9097191  )
        64        Ni     tau(  64) = (   0.7469109   0.5147379   0.9108977  )
        65        P      tau(  65) = (   0.2119924   0.9497675   1.0657246  )
        66        P      tau(  66) = (   0.4579509   0.6252695   0.7539915  )
        67        P      tau(  67) = (   0.2855349   0.0724244   0.7540333  )
        68        P      tau(  68) = (   0.0381112   0.4032615   1.0629541  )
        69        O      tau(  69) = (   0.1352995   0.8818598   0.9297801  )
        70        O      tau(  70) = (   0.3789570   0.6924463   0.8899191  )
        71        O      tau(  71) = (   0.3610496   0.1419327   0.8898998  )
        72        O      tau(  72) = (   0.1179700   0.3356534   0.9295800  )
        73        O      tau(  73) = (   0.1524325   0.8608343   1.1899741  )
        74        O      tau(  74) = (   0.3994952   0.7128748   0.6285166  )
        75        O      tau(  75) = (   0.3426976   0.1634744   0.6300917  )
        76        O      tau(  76) = (   0.0989151   0.3155758   1.1869439  )
        77        O      tau(  77) = (   0.0942206   0.5581494   1.0621036  )
        78        O      tau(  78) = (   0.3506297   1.0014456   0.7545288  )
        79        O      tau(  79) = (   0.3750155   0.3983181   1.0535609  )
        80        O      tau(  80) = (   0.1228303   0.0764842   0.7646734  )
        81        O      tau(  81) = (   0.1204299   0.6293201   0.7659753  )
        82        O      tau(  82) = (   0.4000664   0.4708612   0.7564299  )
        83        O      tau(  83) = (   0.1483182   0.0216333   1.0644560  )
        84        O      tau(  84) = (   0.3748687   0.9435072   1.0562740  )
        85        P      tau(  85) = (   0.7056901   0.9492898   1.0669132  )
        86        P      tau(  86) = (   0.9575286   0.6220438   0.7567050  )
        87        P      tau(  87) = (   0.7847866   0.0710549   0.7548679  )
        88        P      tau(  88) = (   0.5377283   0.4083400   1.0639036  )
        89        O      tau(  89) = (   0.6295714   0.8788409   0.9311251  )
        90        O      tau(  90) = (   0.8781778   0.6902700   0.8901692  )
        91        O      tau(  91) = (   0.8603186   0.1398018   0.8911068  )
        92        O      tau(  92) = (   0.6174712   0.3389159   0.9308820  )
        93        O      tau(  93) = (   0.6471291   0.8583376   1.1905493  )
        94        O      tau(  94) = (   0.8962302   0.7094244   0.6329007  )
        95        O      tau(  95) = (   0.8420493   0.1616933   0.6305239  )
        96        O      tau(  96) = (   0.5995227   0.3203391   1.1875050  )
        97        O      tau(  97) = (   0.5932354   0.5636910   1.0620921  )
        98        O      tau(  98) = (   0.8487155   0.9994995   0.7556213  )
        99        O      tau(  99) = (   0.8751772   0.3959680   1.0535564  )
       100        O      tau( 100) = (   0.6223291   0.0767949   0.7651476  )
       101        O      tau( 101) = (   0.6209785   0.6292365   0.7652951  )
       102        O      tau( 102) = (   0.9010178   0.4674118   0.7581935  )
       103        O      tau( 103) = (   0.6430869   0.0213354   1.0652560  )
       104        O      tau( 104) = (   0.8684566   0.9446034   1.0560219  )
       105        Ni     tau( 105) = (   0.2418877   0.7990605   1.3774994  )
       106        Ni     tau( 106) = (   0.4859924   0.7291101   1.7127883  )
       107        Mn     tau( 107) = (   0.0074091   0.2584581   1.3749705  )
       108        Ni     tau( 108) = (   0.2425157   0.1970216   1.6824860  )
       109        Ni     tau( 109) = (   0.9982898   1.0343952   1.5373768  )
       110        Ni     tau( 110) = (   0.2455541   0.5002357   1.5473962  )
       111        Ni     tau( 111) = (   0.7364741   0.7981604   1.3766198  )
       112        Mn     tau( 112) = (   0.9933806   0.7362827   1.7012765  )
       113        Mn     tau( 113) = (   0.5061773   0.2597092   1.3733878  )
       114        Ni     tau( 114) = (   0.7390624   0.1911087   1.6822626  )
       115        Ni     tau( 115) = (   0.4977171   1.0337782   1.5386589  )
       116        Ni     tau( 116) = (   0.7401814   0.4951798   1.5429972  )
       117        P      tau( 117) = (   0.2103734   0.9343735   1.6940579  )
       118        P      tau( 118) = (   0.4554029   0.6062738   1.3832147  )
       119        P      tau( 119) = (   0.2849489   0.0556490   1.3793979  )
       120        P      tau( 120) = (   0.0290749   0.3809918   1.7035602  )
       121        O      tau( 121) = (   0.1355154   0.8685926   1.5530534  )
       122        O      tau( 122) = (   0.3774347   0.6768570   1.5167281  )
       123        O      tau( 123) = (   0.3598942   0.1250008   1.5151379  )
       124        O      tau( 124) = (   0.1107954   0.3275508   1.5594841  )
       125        O      tau( 125) = (   0.1459723   0.8429241   1.8126700  )
       126        O      tau( 126) = (   0.3976183   0.6919918   1.2555103  )
       127        O      tau( 127) = (   0.3429937   0.1462538   1.2552325  )
       128        O      tau( 128) = (   0.0910722   0.2838530   1.8157905  )
       129        O      tau( 129) = (   0.0790378   0.5396957   1.7066292  )
       130        O      tau( 130) = (   0.3490860   0.9846372   1.3803291  )
       131        O      tau( 131) = (   0.3685320   0.3757119   1.6809527  )
       132        O      tau( 132) = (   0.1220401   0.0632085   1.3908914  )
       133        O      tau( 133) = (   0.1180502   0.6108095   1.4007634  )
       134        O      tau( 134) = (   0.3961976   0.4519943   1.3871462  )
       135        O      tau( 135) = (   0.1486504   0.0072842   1.6926096  )
       136        O      tau( 136) = (   0.3735002   0.9279144   1.6865291  )
       137        P      tau( 137) = (   0.7062277   0.9249542   1.6906995  )
       138        P      tau( 138) = (   0.9553712   0.6030053   1.3890406  )
       139        P      tau( 139) = (   0.7840082   0.0540629   1.3791216  )
       140        P      tau( 140) = (   0.5317123   0.3818426   1.7010624  )
       141        O      tau( 141) = (   0.6319685   0.8674441   1.5474648  )
       142        O      tau( 142) = (   0.8763482   0.6697573   1.5237027  )
       143        O      tau( 143) = (   0.8595380   0.1221826   1.5157410  )
       144        O      tau( 144) = (   0.6117506   0.3206324   1.5574399  )
       145        O      tau( 145) = (   0.6505933   0.8256672   1.8056400  )
       146        O      tau( 146) = (   0.8964847   0.6918028   1.2646706  )
       147        O      tau( 147) = (   0.8420613   0.1459611   1.2558217  )
       148        O      tau( 148) = (   0.5904161   0.2827938   1.8138958  )
       149        O      tau( 149) = (   0.5904972   0.5368025   1.6958113  )
       150        O      tau( 150) = (   0.8484323   0.9829177   1.3785021  )
       151        O      tau( 151) = (   0.8659078   0.3735192   1.6844181  )
       152        O      tau( 152) = (   0.6215468   0.0617340   1.3908597  )
       153        O      tau( 153) = (   0.6186538   0.6093341   1.3943007  )
       154        O      tau( 154) = (   0.8974697   0.4488583   1.3875570  )
       155        O      tau( 155) = (   0.6478825  -0.0004503   1.6955159  )
       156        O      tau( 156) = (   0.8711649   0.9215713   1.6818757  )
       157        O      tau( 157) = (   0.3651639   0.6449523   1.8366945  )
       158        H      tau( 158) = (   0.2891119   0.7091622   1.8692716  )

     -------------------------------------------------
     Parameters for Dispersion (Grimme-D2) Correction:
     -------------------------------------------------
       atom      VdW radius       C_6     

        Ni         2.952        374.666
        Mn         2.952        374.666
        P          3.222        271.980
        O          2.536         24.284
        H          1.892          4.857

     number of k points=     1  Gaussian smearing, width (Ry)=  0.0100
                       cart. coord. in units 2pi/alat
        k(    1) = (   0.0000000   0.0000000   0.0000000), wk =   1.0000000

     Dense  grid:  1979026 G-vectors     FFT dimensions: ( 128, 144, 450)

     Smooth grid:   500628 G-vectors     FFT dimensions: (  81,  90, 288)

     Estimated max dynamical RAM per process >     333.40 MB

     Estimated total dynamical RAM >      20.84 GB

     Check: negative core charge=   -0.000002
     Generating pointlists ...
     new r_m :   0.0794 (alat units)  1.4172 (a.u.) for type    1
     new r_m :   0.0884 (alat units)  1.5790 (a.u.) for type    2
     new r_m :   0.0664 (alat units)  1.1846 (a.u.) for type    3
     new r_m :   0.0432 (alat units)  0.7713 (a.u.) for type    4
     new r_m :   0.0432 (alat units)  0.7713 (a.u.) for type    5

     Initial potential from superposition of free atoms

     starting charge    1107.8886, renormalised to    1108.0000

     negative rho (up, down):  1.526E-03 4.660E-04
 
     Adding external electric field

     Computed dipole along edir(3) : 
        Dipole                1.6384 Ry au,          4.1644 Debye
        Dipole field          0.0010 Ry au, 
 
        Potential amp.       -0.1075 Ry
        Total length         54.7057 bohr
 
 
     Adding external electric field

     Computed dipole along edir(3) : 
        Dipole                1.6384 Ry au,          4.1644 Debye
        Dipole field          0.0010 Ry au, 
 
        Potential amp.       -0.1075 Ry
        Total length         54.7057 bohr
 
     Starting wfcs are  818 randomized atomic wfcs

     total cpu time spent up to now is       11.3 secs

     Self-consistent Calculation

     iteration #  1     ecut=    50.00 Ry     beta= 0.10
     Davidson diagonalization with overlap
     ethr =  1.00E-02,  avg # of iterations =  6.0

     negative rho (up, down):  4.345E-01 4.842E-07
 
     Adding external electric field

     Computed dipole along edir(3) : 
        Dipole               -3.7596 Ry au,         -9.5560 Debye
        Dipole field         -0.0023 Ry au, 
 
        Potential amp.        0.2466 Ry
        Total length         54.7057 bohr
 
 
     Adding external electric field

     Computed dipole along edir(3) : 
        Dipole               -3.7596 Ry au,         -9.5560 Debye
        Dipole field         -0.0023 Ry au, 
 
        Potential amp.        0.2466 Ry
        Total length         54.7057 bohr
 

     total cpu time spent up to now is       38.4 secs

     total energy              =   -7856.94429523 Ry
     estimated scf accuracy    <     725.49219407 Ry

     total magnetization       =   222.00 Bohr mag/cell
     absolute magnetization    =   320.01 Bohr mag/cell

     iteration #  2     ecut=    50.00 Ry     beta= 0.10
     Davidson diagonalization with overlap
     ethr =  1.00E-02,  avg # of iterations =  2.0

     negative rho (up, down):  4.112E-01 2.664E-07
 
     Adding external electric field

     Computed dipole along edir(3) : 
        Dipole               -2.5013 Ry au,         -6.3576 Debye
        Dipole field         -0.0015 Ry au, 
 
        Potential amp.        0.1641 Ry
        Total length         54.7057 bohr
 
 
     Adding external electric field

     Computed dipole along edir(3) : 
        Dipole               -2.5013 Ry au,         -6.3576 Debye
        Dipole field         -0.0015 Ry au, 
 
        Potential amp.        0.1641 Ry
        Total length         54.7057 bohr
 

     total cpu time spent up to now is       54.6 secs

     total energy              =   -7938.90212112 Ry
     estimated scf accuracy    <     217.53638489 Ry

     total magnetization       =   167.74 Bohr mag/cell
     absolute magnetization    =   214.31 Bohr mag/cell

     iteration #  3     ecut=    50.00 Ry     beta= 0.10
     Davidson diagonalization with overlap
     ethr =  1.00E-02,  avg # of iterations =  1.5

     negative rho (up, down):  3.684E-01 2.103E-07
 
     Adding external electric field

     Computed dipole along edir(3) : 
        Dipole               -2.1704 Ry au,         -5.5166 Debye
        Dipole field         -0.0013 Ry au, 
 
        Potential amp.        0.1424 Ry
        Total length         54.7057 bohr
 
 
     Adding external electric field

     Computed dipole along edir(3) : 
        Dipole               -2.1704 Ry au,         -5.5166 Debye
        Dipole field         -0.0013 Ry au, 
 
        Potential amp.        0.1424 Ry
        Total length         54.7057 bohr
 

     total cpu time spent up to now is       67.9 secs

     total energy              =   -7967.79150718 Ry
     estimated scf accuracy    <     104.80193524 Ry

     total magnetization       =   144.12 Bohr mag/cell
     absolute magnetization    =   193.04 Bohr mag/cell

     iteration #  4     ecut=    50.00 Ry     beta= 0.10
     Davidson diagonalization with overlap
     ethr =  9.46E-03,  avg # of iterations =  1.0

     negative rho (up, down):  2.946E-01 2.740E-08
 
     Adding external electric field

     Computed dipole along edir(3) : 
        Dipole               -1.9710 Ry au,         -5.0099 Debye
        Dipole field         -0.0012 Ry au, 
 
        Potential amp.        0.1293 Ry
        Total length         54.7057 bohr
 
 
     Adding external electric field

     Computed dipole along edir(3) : 
        Dipole               -1.9710 Ry au,         -5.0099 Debye
        Dipole field         -0.0012 Ry au, 
 
        Potential amp.        0.1293 Ry
        Total length         54.7057 bohr
 

     total cpu time spent up to now is       80.1 secs

     total energy              =   -7999.81281731 Ry
     estimated scf accuracy    <      85.60448871 Ry

     total magnetization       =   128.91 Bohr mag/cell
     absolute magnetization    =   179.27 Bohr mag/cell

     iteration #  5     ecut=    50.00 Ry     beta= 0.10
     Davidson diagonalization with overlap
     ethr =  7.73E-03,  avg # of iterations =  1.0

     negative rho (up, down):  6.906E-02 0.000E+00
 
     Adding external electric field

     Computed dipole along edir(3) : 
        Dipole               -1.5617 Ry au,         -3.9695 Debye
        Dipole field         -0.0009 Ry au, 
 
        Potential amp.        0.1024 Ry
        Total length         54.7057 bohr
 
 
     Adding external electric field

     Computed dipole along edir(3) : 
        Dipole               -1.5617 Ry au,         -3.9695 Debye
        Dipole field         -0.0009 Ry au, 
 
        Potential amp.        0.1024 Ry
        Total length         54.7057 bohr
 

     total cpu time spent up to now is       92.1 secs

     total energy              =   -8058.18721976 Ry
     estimated scf accuracy    <      69.64104557 Ry

     total magnetization       =   106.68 Bohr mag/cell
     absolute magnetization    =   160.70 Bohr mag/cell

     iteration #  6     ecut=    50.00 Ry     beta= 0.10
     Davidson diagonalization with overlap
     ethr =  6.29E-03,  avg # of iterations =  1.0

     negative rho (up, down):  1.141E-03 1.828E-03
 
     Adding external electric field

     Computed dipole along edir(3) : 
        Dipole               -1.1361 Ry au,         -2.8877 Debye
        Dipole field         -0.0007 Ry au, 
 
        Potential amp.        0.0745 Ry
        Total length         54.7057 bohr
 
 
     Adding external electric field

     Computed dipole along edir(3) : 
        Dipole               -1.1361 Ry au,         -2.8877 Debye
        Dipole field         -0.0007 Ry au, 
 
        Potential amp.        0.0745 Ry
        Total length         54.7057 bohr
 

     total cpu time spent up to now is      104.1 secs

     total energy              =   -8075.95882256 Ry
     estimated scf accuracy    <      19.98892299 Ry

     total magnetization       =   100.00 Bohr mag/cell
     absolute magnetization    =   135.61 Bohr mag/cell

     iteration #  7     ecut=    50.00 Ry     beta= 0.10
     Davidson diagonalization with overlap
     ethr =  1.80E-03,  avg # of iterations =  6.0

     negative rho (up, down):  1.121E-03 1.809E-03
 
     Adding external electric field

     Computed dipole along edir(3) : 
        Dipole               -1.1342 Ry au,         -2.8829 Debye
        Dipole field         -0.0007 Ry au, 
 
        Potential amp.        0.0744 Ry
        Total length         54.7057 bohr
 
 
     Adding external electric field

     Computed dipole along edir(3) : 
        Dipole               -1.1342 Ry au,         -2.8829 Debye
        Dipole field         -0.0007 Ry au, 
 
        Potential amp.        0.0744 Ry
        Total length         54.7057 bohr
 

     total cpu time spent up to now is      124.0 secs

     total energy              =   -8078.76117925 Ry
     estimated scf accuracy    <      28.90129564 Ry

     total magnetization       =    69.85 Bohr mag/cell
     absolute magnetization    =    87.69 Bohr mag/cell

     iteration #  8     ecut=    50.00 Ry     beta= 0.10
     Davidson diagonalization with overlap
     ethr =  1.80E-03,  avg # of iterations =  1.0

     negative rho (up, down):  1.137E-03 1.916E-03
 
     Adding external electric field

     Computed dipole along edir(3) : 
        Dipole               -1.1201 Ry au,         -2.8470 Debye
        Dipole field         -0.0007 Ry au, 
 
        Potential amp.        0.0735 Ry
        Total length         54.7057 bohr
 
 
     Adding external electric field

     Computed dipole along edir(3) : 
        Dipole               -1.1201 Ry au,         -2.8470 Debye
        Dipole field         -0.0007 Ry au, 
 
        Potential amp.        0.0735 Ry
        Total length         54.7057 bohr
 

     total cpu time spent up to now is      135.8 secs

     total energy              =   -8078.97017078 Ry
     estimated scf accuracy    <      28.80080748 Ry

     total magnetization       =    69.90 Bohr mag/cell
     absolute magnetization    =    87.21 Bohr mag/cell

     iteration #  9     ecut=    50.00 Ry     beta= 0.10
     Davidson diagonalization with overlap
     ethr =  1.80E-03,  avg # of iterations =  1.0

     negative rho (up, down):  9.350E-04 1.711E-03
 
     Adding external electric field

     Computed dipole along edir(3) : 
        Dipole               -1.1427 Ry au,         -2.9044 Debye
        Dipole field         -0.0007 Ry au, 
 
        Potential amp.        0.0749 Ry
        Total length         54.7057 bohr
 
 
     Adding external electric field

     Computed dipole along edir(3) : 
        Dipole               -1.1427 Ry au,         -2.9044 Debye
        Dipole field         -0.0007 Ry au, 
 
        Potential amp.        0.0749 Ry
        Total length         54.7057 bohr
 

     total cpu time spent up to now is      147.9 secs

     total energy              =   -8078.64487248 Ry
     estimated scf accuracy    <      30.56977539 Ry

     total magnetization       =    69.19 Bohr mag/cell
     absolute magnetization    =    86.22 Bohr mag/cell

     iteration # 10     ecut=    50.00 Ry     beta= 0.10
     Davidson diagonalization with overlap
     ethr =  1.80E-03,  avg # of iterations =  1.0

     negative rho (up, down):  4.825E-04 1.187E-03
 
     Adding external electric field

     Computed dipole along edir(3) : 
        Dipole               -1.2885 Ry au,         -3.2750 Debye
        Dipole field         -0.0008 Ry au, 
 
        Potential amp.        0.0845 Ry
        Total length         54.7057 bohr
 
 
     Adding external electric field

     Computed dipole along edir(3) : 
        Dipole               -1.2885 Ry au,         -3.2750 Debye
        Dipole field         -0.0008 Ry au, 
 
        Potential amp.        0.0845 Ry
        Total length         54.7057 bohr
 

     total cpu time spent up to now is      159.6 secs

     total energy              =   -8077.17817206 Ry
     estimated scf accuracy    <      26.15870430 Ry

     total magnetization       =    70.07 Bohr mag/cell
     absolute magnetization    =    86.12 Bohr mag/cell

     iteration # 11     ecut=    50.00 Ry     beta= 0.10
     Davidson diagonalization with overlap
     ethr =  1.80E-03,  avg # of iterations =  1.5

     negative rho (up, down):  4.085E-04 1.055E-03
 
     Adding external electric field

     Computed dipole along edir(3) : 
        Dipole               -1.3076 Ry au,         -3.3236 Debye
        Dipole field         -0.0008 Ry au, 
 
        Potential amp.        0.0858 Ry
        Total length         54.7057 bohr
 
 
     Adding external electric field

     Computed dipole along edir(3) : 
        Dipole               -1.3076 Ry au,         -3.3236 Debye
        Dipole field         -0.0008 Ry au, 
 
        Potential amp.        0.0858 Ry
        Total length         54.7057 bohr
 

     total cpu time spent up to now is      171.4 secs

     total energy              =   -8078.21108875 Ry
     estimated scf accuracy    <       1.30709553 Ry

     total magnetization       =    96.44 Bohr mag/cell
     absolute magnetization    =   105.90 Bohr mag/cell

     iteration # 12     ecut=    50.00 Ry     beta= 0.10
     Davidson diagonalization with overlap
     ethr =  1.18E-04,  avg # of iterations = 13.0

     negative rho (up, down):  3.026E-04 8.315E-04
 
     Adding external electric field

     Computed dipole along edir(3) : 
        Dipole               -1.2812 Ry au,         -3.2565 Debye
        Dipole field         -0.0008 Ry au, 
 
        Potential amp.        0.0840 Ry
        Total length         54.7057 bohr
 
 
     Adding external electric field

     Computed dipole along edir(3) : 
        Dipole               -1.2812 Ry au,         -3.2565 Debye
        Dipole field         -0.0008 Ry au, 
 
        Potential amp.        0.0840 Ry
        Total length         54.7057 bohr
 

     total cpu time spent up to now is      192.8 secs

     total energy              =   -8078.28895467 Ry
     estimated scf accuracy    <       1.09348146 Ry

     total magnetization       =    98.83 Bohr mag/cell
     absolute magnetization    =   106.86 Bohr mag/cell

     iteration # 13     ecut=    50.00 Ry     beta= 0.10
     Davidson diagonalization with overlap
     ethr =  9.87E-05,  avg # of iterations =  1.5

     negative rho (up, down):  6.327E-05 3.525E-04
 
     Adding external electric field

     Computed dipole along edir(3) : 
        Dipole               -1.1411 Ry au,         -2.9004 Debye
        Dipole field         -0.0007 Ry au, 
 
        Potential amp.        0.0748 Ry
        Total length         54.7057 bohr
 
 
     Adding external electric field

     Computed dipole along edir(3) : 
        Dipole               -1.1411 Ry au,         -2.9004 Debye
        Dipole field         -0.0007 Ry au, 
 
        Potential amp.        0.0748 Ry
        Total length         54.7057 bohr
 

     total cpu time spent up to now is      204.9 secs

     total energy              =   -8078.23907136 Ry
     estimated scf accuracy    <       1.00275669 Ry

     total magnetization       =    98.61 Bohr mag/cell
     absolute magnetization    =   106.02 Bohr mag/cell

     iteration # 14     ecut=    50.00 Ry     beta= 0.10
     Davidson diagonalization with overlap
     ethr =  9.05E-05,  avg # of iterations =  2.0

     negative rho (up, down):  4.731E-05 1.950E-04
 
     Adding external electric field

     Computed dipole along edir(3) : 
        Dipole               -1.1554 Ry au,         -2.9367 Debye
        Dipole field         -0.0007 Ry au, 
 
        Potential amp.        0.0758 Ry
        Total length         54.7057 bohr
 
 
     Adding external electric field

     Computed dipole along edir(3) : 
        Dipole               -1.1554 Ry au,         -2.9367 Debye
        Dipole field         -0.0007 Ry au, 
 
        Potential amp.        0.0758 Ry
        Total length         54.7057 bohr
 

     total cpu time spent up to now is      218.0 secs

     total energy              =   -8078.33794100 Ry
     estimated scf accuracy    <       1.83991091 Ry

     total magnetization       =    92.39 Bohr mag/cell
     absolute magnetization    =    99.01 Bohr mag/cell

     iteration # 15     ecut=    50.00 Ry     beta= 0.10
     Davidson diagonalization with overlap
     ethr =  9.05E-05,  avg # of iterations =  1.5

     negative rho (up, down):  1.882E-06 6.544E-05
 
     Adding external electric field

     Computed dipole along edir(3) : 
        Dipole               -0.9765 Ry au,         -2.4820 Debye
        Dipole field         -0.0006 Ry au, 
 
        Potential amp.        0.0640 Ry
        Total length         54.7057 bohr
 
 
     Adding external electric field

     Computed dipole along edir(3) : 
        Dipole               -0.9765 Ry au,         -2.4820 Debye
        Dipole field         -0.0006 Ry au, 
 
        Potential amp.        0.0640 Ry
        Total length         54.7057 bohr
 

     total cpu time spent up to now is      230.1 secs

     total energy              =   -8078.45915689 Ry
     estimated scf accuracy    <       0.57663370 Ry

     total magnetization       =    97.79 Bohr mag/cell
     absolute magnetization    =   103.07 Bohr mag/cell

     iteration # 16     ecut=    50.00 Ry     beta= 0.10
     Davidson diagonalization with overlap
     ethr =  5.20E-05,  avg # of iterations =  2.5

     negative rho (up, down):  1.227E-06 3.771E-05
 
     Adding external electric field

     Computed dipole along edir(3) : 
        Dipole               -1.0282 Ry au,         -2.6133 Debye
        Dipole field         -0.0006 Ry au, 
 
        Potential amp.        0.0674 Ry
        Total length         54.7057 bohr
 
 
     Adding external electric field

     Computed dipole along edir(3) : 
        Dipole               -1.0282 Ry au,         -2.6133 Debye
        Dipole field         -0.0006 Ry au, 
 
        Potential amp.        0.0674 Ry
        Total length         54.7057 bohr
 

     total cpu time spent up to now is      243.8 secs

     total energy              =   -8078.47901803 Ry
     estimated scf accuracy    <       2.74131595 Ry

     total magnetization       =    90.50 Bohr mag/cell
     absolute magnetization    =    94.09 Bohr mag/cell

     iteration # 17     ecut=    50.00 Ry     beta= 0.10
     Davidson diagonalization with overlap
     ethr =  5.20E-05,  avg # of iterations =  1.0

     negative rho (up, down):  7.827E-07 4.863E-05
 
     Adding external electric field

     Computed dipole along edir(3) : 
        Dipole               -0.9982 Ry au,         -2.5372 Debye
        Dipole field         -0.0006 Ry au, 
 
        Potential amp.        0.0655 Ry
        Total length         54.7057 bohr
 
 
     Adding external electric field

     Computed dipole along edir(3) : 
        Dipole               -0.9982 Ry au,         -2.5372 Debye
        Dipole field         -0.0006 Ry au, 
 
        Potential amp.        0.0655 Ry
        Total length         54.7057 bohr
 

     total cpu time spent up to now is      255.0 secs

     total energy              =   -8078.51317251 Ry
     estimated scf accuracy    <       0.89703035 Ry

     total magnetization       =    94.46 Bohr mag/cell
     absolute magnetization    =    98.01 Bohr mag/cell

     iteration # 18     ecut=    50.00 Ry     beta= 0.10
     Davidson diagonalization with overlap
     ethr =  5.20E-05,  avg # of iterations =  1.5

     negative rho (up, down):  1.390E-06 1.309E-04
 
     Adding external electric field

     Computed dipole along edir(3) : 
        Dipole               -0.9026 Ry au,         -2.2941 Debye
        Dipole field         -0.0005 Ry au, 
 
        Potential amp.        0.0592 Ry
        Total length         54.7057 bohr
 
 
     Adding external electric field

     Computed dipole along edir(3) : 
        Dipole               -0.9026 Ry au,         -2.2941 Debye
        Dipole field         -0.0005 Ry au, 
 
        Potential amp.        0.0592 Ry
        Total length         54.7057 bohr
 

     total cpu time spent up to now is      267.0 secs

     total energy              =   -8078.54917835 Ry
     estimated scf accuracy    <       0.98962369 Ry

     total magnetization       =    94.44 Bohr mag/cell
     absolute magnetization    =    97.71 Bohr mag/cell

     iteration # 19     ecut=    50.00 Ry     beta= 0.10
     Davidson diagonalization with overlap
     ethr =  5.20E-05,  avg # of iterations =  1.5

     negative rho (up, down):  1.626E-06 1.389E-04
 
     Adding external electric field

     Computed dipole along edir(3) : 
        Dipole               -0.8991 Ry au,         -2.2854 Debye
        Dipole field         -0.0005 Ry au, 
 
        Potential amp.        0.0590 Ry
        Total length         54.7057 bohr
 
 
     Adding external electric field

     Computed dipole along edir(3) : 
        Dipole               -0.8991 Ry au,         -2.2854 Debye
        Dipole field         -0.0005 Ry au, 
 
        Potential amp.        0.0590 Ry
        Total length         54.7057 bohr
 

     total cpu time spent up to now is      279.0 secs

     total energy              =   -8078.56109733 Ry
     estimated scf accuracy    <       2.34855400 Ry

     total magnetization       =    92.08 Bohr mag/cell
     absolute magnetization    =    94.92 Bohr mag/cell

     iteration # 20     ecut=    50.00 Ry     beta= 0.10
     Davidson diagonalization with overlap
     ethr =  5.20E-05,  avg # of iterations =  1.0

     negative rho (up, down):  5.669E-06 2.223E-04
 
     Adding external electric field

     Computed dipole along edir(3) : 
        Dipole               -0.8412 Ry au,         -2.1380 Debye
        Dipole field         -0.0005 Ry au, 
 
        Potential amp.        0.0552 Ry
        Total length         54.7057 bohr
 
 
     Adding external electric field

     Computed dipole along edir(3) : 
        Dipole               -0.8412 Ry au,         -2.1380 Debye
        Dipole field         -0.0005 Ry au, 
 
        Potential amp.        0.0552 Ry
        Total length         54.7057 bohr
 

     total cpu time spent up to now is      290.2 secs

     total energy              =   -8078.58428778 Ry
     estimated scf accuracy    <       2.29902531 Ry

     total magnetization       =    92.19 Bohr mag/cell
     absolute magnetization    =    94.92 Bohr mag/cell

     iteration # 21     ecut=    50.00 Ry     beta= 0.10
     Davidson diagonalization with overlap
     ethr =  5.20E-05,  avg # of iterations =  1.5

     negative rho (up, down):  8.194E-06 2.395E-04
 
     Adding external electric field

     Computed dipole along edir(3) : 
        Dipole               -0.8268 Ry au,         -2.1014 Debye
        Dipole field         -0.0005 Ry au, 
 
        Potential amp.        0.0542 Ry
        Total length         54.7057 bohr
 
 
     Adding external electric field

     Computed dipole along edir(3) : 
        Dipole               -0.8268 Ry au,         -2.1014 Debye
        Dipole field         -0.0005 Ry au, 
 
        Potential amp.        0.0542 Ry
        Total length         54.7057 bohr
 

     total cpu time spent up to now is      302.5 secs

     total energy              =   -8078.59514462 Ry
     estimated scf accuracy    <       3.23130659 Ry

     total magnetization       =    90.71 Bohr mag/cell
     absolute magnetization    =    93.28 Bohr mag/cell

     iteration # 22     ecut=    50.00 Ry     beta= 0.10
     Davidson diagonalization with overlap
     ethr =  5.20E-05,  avg # of iterations =  1.0

     negative rho (up, down):  2.963E-06 1.176E-04
 
     Adding external electric field

     Computed dipole along edir(3) : 
        Dipole               -0.8911 Ry au,         -2.2650 Debye
        Dipole field         -0.0005 Ry au, 
 
        Potential amp.        0.0584 Ry
        Total length         54.7057 bohr
 
 
     Adding external electric field

     Computed dipole along edir(3) : 
        Dipole               -0.8911 Ry au,         -2.2650 Debye
        Dipole field         -0.0005 Ry au, 
 
        Potential amp.        0.0584 Ry
        Total length         54.7057 bohr
 

     total cpu time spent up to now is      313.6 secs

     total energy              =   -8078.51807946 Ry
     estimated scf accuracy    <       3.49966860 Ry

     total magnetization       =    90.38 Bohr mag/cell
     absolute magnetization    =    92.92 Bohr mag/cell

     iteration # 23     ecut=    50.00 Ry     beta= 0.10
     Davidson diagonalization with overlap
     ethr =  5.20E-05,  avg # of iterations =  1.5

     negative rho (up, down):  1.180E-05 3.218E-05
 
     Adding external electric field

     Computed dipole along edir(3) : 
        Dipole               -0.9563 Ry au,         -2.4308 Debye
        Dipole field         -0.0006 Ry au, 
 
        Potential amp.        0.0627 Ry
        Total length         54.7057 bohr
 
 
     Adding external electric field

     Computed dipole along edir(3) : 
        Dipole               -0.9563 Ry au,         -2.4308 Debye
        Dipole field         -0.0006 Ry au, 
 
        Potential amp.        0.0627 Ry
        Total length         54.7057 bohr
 

     total cpu time spent up to now is      325.7 secs

     total energy              =   -8078.48390557 Ry
     estimated scf accuracy    <       1.35357736 Ry

     total magnetization       =    93.14 Bohr mag/cell
     absolute magnetization    =    96.13 Bohr mag/cell

     iteration # 24     ecut=    50.00 Ry     beta= 0.10
     Davidson diagonalization with overlap
     ethr =  5.20E-05,  avg # of iterations =  1.0

     negative rho (up, down):  6.597E-06 1.153E-05
 
     Adding external electric field

     Computed dipole along edir(3) : 
        Dipole               -0.9822 Ry au,         -2.4964 Debye
        Dipole field         -0.0006 Ry au, 
 
        Potential amp.        0.0644 Ry
        Total length         54.7057 bohr
 
 
     Adding external electric field

     Computed dipole along edir(3) : 
        Dipole               -0.9822 Ry au,         -2.4964 Debye
        Dipole field         -0.0006 Ry au, 
 
        Potential amp.        0.0644 Ry
        Total length         54.7057 bohr
 

     total cpu time spent up to now is      337.1 secs

     total energy              =   -8078.50315856 Ry
     estimated scf accuracy    <       0.46120592 Ry

     total magnetization       =    95.91 Bohr mag/cell
     absolute magnetization    =    99.65 Bohr mag/cell

     iteration # 25     ecut=    50.00 Ry     beta= 0.10
     Davidson diagonalization with overlap
     ethr =  4.16E-05,  avg # of iterations =  1.0

     negative rho (up, down):  1.750E-06 3.484E-06
 
     Adding external electric field

     Computed dipole along edir(3) : 
        Dipole               -0.9794 Ry au,         -2.4894 Debye
        Dipole field         -0.0006 Ry au, 
 
        Potential amp.        0.0642 Ry
        Total length         54.7057 bohr
 
 
     Adding external electric field

     Computed dipole along edir(3) : 
        Dipole               -0.9794 Ry au,         -2.4894 Debye
        Dipole field         -0.0006 Ry au, 
 
        Potential amp.        0.0642 Ry
        Total length         54.7057 bohr
 

     total cpu time spent up to now is      348.3 secs

     total energy              =   -8078.52227368 Ry
     estimated scf accuracy    <       0.26445257 Ry

     total magnetization       =    97.08 Bohr mag/cell
     absolute magnetization    =   100.59 Bohr mag/cell

     iteration # 26     ecut=    50.00 Ry     beta= 0.10
     Davidson diagonalization with overlap
     ethr =  2.39E-05,  avg # of iterations =  1.5

     negative rho (up, down):  5.898E-09 3.636E-08
 
     Adding external electric field

     Computed dipole along edir(3) : 
        Dipole               -0.8980 Ry au,         -2.2824 Debye
        Dipole field         -0.0005 Ry au, 
 
        Potential amp.        0.0589 Ry
        Total length         54.7057 bohr
 
 
     Adding external electric field

     Computed dipole along edir(3) : 
        Dipole               -0.8980 Ry au,         -2.2824 Debye
        Dipole field         -0.0005 Ry au, 
 
        Potential amp.        0.0589 Ry
        Total length         54.7057 bohr
 

     total cpu time spent up to now is      360.4 secs

     total energy              =   -8078.54687612 Ry
     estimated scf accuracy    <       0.20030185 Ry

     total magnetization       =    97.33 Bohr mag/cell
     absolute magnetization    =   100.43 Bohr mag/cell

     iteration # 27     ecut=    50.00 Ry     beta= 0.10
     Davidson diagonalization with overlap
     ethr =  1.81E-05,  avg # of iterations =  2.0

     negative rho (up, down):  4.463E-09 1.533E-07
 
     Adding external electric field

     Computed dipole along edir(3) : 
        Dipole               -0.8211 Ry au,         -2.0871 Debye
        Dipole field         -0.0005 Ry au, 
 
        Potential amp.        0.0539 Ry
        Total length         54.7057 bohr
 
 
     Adding external electric field

     Computed dipole along edir(3) : 
        Dipole               -0.8211 Ry au,         -2.0871 Debye
        Dipole field         -0.0005 Ry au, 
 
        Potential amp.        0.0539 Ry
        Total length         54.7057 bohr
 

     total cpu time spent up to now is      373.8 secs

     total energy              =   -8078.56336877 Ry
     estimated scf accuracy    <       0.11925594 Ry

     total magnetization       =    97.40 Bohr mag/cell
     absolute magnetization    =    99.05 Bohr mag/cell

     iteration # 28     ecut=    50.00 Ry     beta= 0.10
     Davidson diagonalization with overlap
     ethr =  1.08E-05,  avg # of iterations = 12.0

     negative rho (up, down):  3.409E-09 1.824E-07
 
     Adding external electric field

     Computed dipole along edir(3) : 
        Dipole               -0.8517 Ry au,         -2.1647 Debye
        Dipole field         -0.0005 Ry au, 
 
        Potential amp.        0.0559 Ry
        Total length         54.7057 bohr
 
 
     Adding external electric field

     Computed dipole along edir(3) : 
        Dipole               -0.8517 Ry au,         -2.1647 Debye
        Dipole field         -0.0005 Ry au, 
 
        Potential amp.        0.0559 Ry
        Total length         54.7057 bohr
 

     total cpu time spent up to now is      397.9 secs

     total energy              =   -8078.56459420 Ry
     estimated scf accuracy    <       0.12359354 Ry

     total magnetization       =    97.56 Bohr mag/cell
     absolute magnetization    =    98.85 Bohr mag/cell

     iteration # 29     ecut=    50.00 Ry     beta= 0.10
     Davidson diagonalization with overlap
     ethr =  1.08E-05,  avg # of iterations =  1.5

     negative rho (up, down):  8.207E-08 5.161E-08
 
     Adding external electric field

     Computed dipole along edir(3) : 
        Dipole               -0.7934 Ry au,         -2.0165 Debye
        Dipole field         -0.0005 Ry au, 
 
        Potential amp.        0.0520 Ry
        Total length         54.7057 bohr
 
 
     Adding external electric field

     Computed dipole along edir(3) : 
        Dipole               -0.7934 Ry au,         -2.0165 Debye
        Dipole field         -0.0005 Ry au, 
 
        Potential amp.        0.0520 Ry
        Total length         54.7057 bohr
 

     total cpu time spent up to now is      409.8 secs

     total energy              =   -8078.56727944 Ry
     estimated scf accuracy    <       0.11950546 Ry

     total magnetization       =    97.52 Bohr mag/cell
     absolute magnetization    =    98.84 Bohr mag/cell

     iteration # 30     ecut=    50.00 Ry     beta= 0.10
     Davidson diagonalization with overlap
     ethr =  1.08E-05,  avg # of iterations =  2.0

     negative rho (up, down):  1.207E-08 7.705E-09
 
     Adding external electric field

     Computed dipole along edir(3) : 
        Dipole               -0.8235 Ry au,         -2.0931 Debye
        Dipole field         -0.0005 Ry au, 
 
        Potential amp.        0.0540 Ry
        Total length         54.7057 bohr
 
 
     Adding external electric field

     Computed dipole along edir(3) : 
        Dipole               -0.8235 Ry au,         -2.0931 Debye
        Dipole field         -0.0005 Ry au, 
 
        Potential amp.        0.0540 Ry
        Total length         54.7057 bohr
 

     total cpu time spent up to now is      422.9 secs

     total energy              =   -8078.56721981 Ry
     estimated scf accuracy    <       0.12730151 Ry

     total magnetization       =    97.53 Bohr mag/cell
     absolute magnetization    =    98.83 Bohr mag/cell

     iteration # 31     ecut=    50.00 Ry     beta= 0.10
     Davidson diagonalization with overlap
     ethr =  1.08E-05,  avg # of iterations =  2.0

     negative rho (up, down):  6.041E-06 4.541E-06
 
     Adding external electric field

     Computed dipole along edir(3) : 
        Dipole               -0.7579 Ry au,         -1.9264 Debye
        Dipole field         -0.0005 Ry au, 
 
        Potential amp.        0.0497 Ry
        Total length         54.7057 bohr
 
 
     Adding external electric field

     Computed dipole along edir(3) : 
        Dipole               -0.7579 Ry au,         -1.9264 Debye
        Dipole field         -0.0005 Ry au, 
 
        Potential amp.        0.0497 Ry
        Total length         54.7057 bohr
 

     total cpu time spent up to now is      435.6 secs

     total energy              =   -8078.56463617 Ry
     estimated scf accuracy    <       0.09755675 Ry

     total magnetization       =    97.70 Bohr mag/cell
     absolute magnetization    =    98.97 Bohr mag/cell

     iteration # 32     ecut=    50.00 Ry     beta= 0.10
     Davidson diagonalization with overlap
     c_bands:  3 eigenvalues not converged
     ethr =  8.80E-06,  avg # of iterations = 11.0

     negative rho (up, down):  1.033E-06 4.523E-07
 
     Adding external electric field

     Computed dipole along edir(3) : 
        Dipole               -0.8132 Ry au,         -2.0670 Debye
        Dipole field         -0.0005 Ry au, 
 
        Potential amp.        0.0533 Ry
        Total length         54.7057 bohr
 
 
     Adding external electric field

     Computed dipole along edir(3) : 
        Dipole               -0.8132 Ry au,         -2.0670 Debye
        Dipole field         -0.0005 Ry au, 
 
        Potential amp.        0.0533 Ry
        Total length         54.7057 bohr
 

     total cpu time spent up to now is      452.6 secs

     total energy              =   -8078.56557461 Ry
     estimated scf accuracy    <       0.09872621 Ry

     total magnetization       =    97.71 Bohr mag/cell
     absolute magnetization    =    98.83 Bohr mag/cell

     iteration # 33     ecut=    50.00 Ry     beta= 0.10
     Davidson diagonalization with overlap
     ethr =  8.80E-06,  avg # of iterations =  2.0

     negative rho (up, down):  8.579E-06 1.689E-06
 
     Adding external electric field

     Computed dipole along edir(3) : 
        Dipole               -0.8406 Ry au,         -2.1365 Debye
        Dipole field         -0.0005 Ry au, 
 
        Potential amp.        0.0551 Ry
        Total length         54.7057 bohr
 
 
     Adding external electric field

     Computed dipole along edir(3) : 
        Dipole               -0.8406 Ry au,         -2.1365 Debye
        Dipole field         -0.0005 Ry au, 
 
        Potential amp.        0.0551 Ry
        Total length         54.7057 bohr
 

     total cpu time spent up to now is      464.8 secs

     total energy              =   -8078.56435115 Ry
     estimated scf accuracy    <       0.08567106 Ry

     total magnetization       =    97.82 Bohr mag/cell
     absolute magnetization    =    98.90 Bohr mag/cell

     iteration # 34     ecut=    50.00 Ry     beta= 0.10
     Davidson diagonalization with overlap
     ethr =  7.73E-06,  avg # of iterations =  1.5

     negative rho (up, down):  4.719E-05 1.165E-06
 
     Adding external electric field

     Computed dipole along edir(3) : 
        Dipole               -0.8113 Ry au,         -2.0621 Debye
        Dipole field         -0.0005 Ry au, 
 
        Potential amp.        0.0532 Ry
        Total length         54.7057 bohr
 
 
     Adding external electric field

     Computed dipole along edir(3) : 
        Dipole               -0.8113 Ry au,         -2.0621 Debye
        Dipole field         -0.0005 Ry au, 
 
        Potential amp.        0.0532 Ry
        Total length         54.7057 bohr
 

     total cpu time spent up to now is      477.1 secs

     total energy              =   -8078.55958167 Ry
     estimated scf accuracy    <       0.07998351 Ry

     total magnetization       =    97.87 Bohr mag/cell
     absolute magnetization    =    98.91 Bohr mag/cell

     iteration # 35     ecut=    50.00 Ry     beta= 0.10
     Davidson diagonalization with overlap
     ethr =  7.22E-06,  avg # of iterations =  1.5

     negative rho (up, down):  6.599E-05 3.380E-07
 
     Adding external electric field

     Computed dipole along edir(3) : 
        Dipole               -0.7992 Ry au,         -2.0313 Debye
        Dipole field         -0.0005 Ry au, 
 
        Potential amp.        0.0524 Ry
        Total length         54.7057 bohr
 
 
     Adding external electric field

     Computed dipole along edir(3) : 
        Dipole               -0.7992 Ry au,         -2.0313 Debye
        Dipole field         -0.0005 Ry au, 
 
        Potential amp.        0.0524 Ry
        Total length         54.7057 bohr
 

     total cpu time spent up to now is      489.2 secs

     total energy              =   -8078.55468171 Ry
     estimated scf accuracy    <       0.07488438 Ry

     total magnetization       =    97.76 Bohr mag/cell
     absolute magnetization    =    98.82 Bohr mag/cell

     iteration # 36     ecut=    50.00 Ry     beta= 0.10
     Davidson diagonalization with overlap
     ethr =  6.76E-06,  avg # of iterations =  1.0

     negative rho (up, down):  4.546E-05 6.268E-08
 
     Adding external electric field

     Computed dipole along edir(3) : 
        Dipole               -0.7987 Ry au,         -2.0301 Debye
        Dipole field         -0.0005 Ry au, 
 
        Potential amp.        0.0524 Ry
        Total length         54.7057 bohr
 
 
     Adding external electric field

     Computed dipole along edir(3) : 
        Dipole               -0.7987 Ry au,         -2.0301 Debye
        Dipole field         -0.0005 Ry au, 
 
        Potential amp.        0.0524 Ry
        Total length         54.7057 bohr
 

     total cpu time spent up to now is      500.4 secs

     total energy              =   -8078.55375096 Ry
     estimated scf accuracy    <       0.06654501 Ry

     total magnetization       =    97.86 Bohr mag/cell
     absolute magnetization    =    98.92 Bohr mag/cell

     iteration # 37     ecut=    50.00 Ry     beta= 0.10
     Davidson diagonalization with overlap
     ethr =  6.01E-06,  avg # of iterations =  1.5

     negative rho (up, down):  7.520E-05 2.728E-07
 
     Adding external electric field

     Computed dipole along edir(3) : 
        Dipole               -0.7643 Ry au,         -1.9427 Debye
        Dipole field         -0.0005 Ry au, 
 
        Potential amp.        0.0501 Ry
        Total length         54.7057 bohr
 
 
     Adding external electric field

     Computed dipole along edir(3) : 
        Dipole               -0.7643 Ry au,         -1.9427 Debye
        Dipole field         -0.0005 Ry au, 
 
        Potential amp.        0.0501 Ry
        Total length         54.7057 bohr
 

     total cpu time spent up to now is      512.5 secs

     total energy              =   -8078.55168922 Ry
     estimated scf accuracy    <       0.06712604 Ry

     total magnetization       =    97.86 Bohr mag/cell
     absolute magnetization    =    98.97 Bohr mag/cell

     iteration # 38     ecut=    50.00 Ry     beta= 0.10
     Davidson diagonalization with overlap
     ethr =  6.01E-06,  avg # of iterations =  1.5

     negative rho (up, down):  4.324E-05 1.976E-07
 
     Adding external electric field

     Computed dipole along edir(3) : 
        Dipole               -0.7958 Ry au,         -2.0227 Debye
        Dipole field         -0.0005 Ry au, 
 
        Potential amp.        0.0522 Ry
        Total length         54.7057 bohr
 
 
     Adding external electric field

     Computed dipole along edir(3) : 
        Dipole               -0.7958 Ry au,         -2.0227 Debye
        Dipole field         -0.0005 Ry au, 
 
        Potential amp.        0.0522 Ry
        Total length         54.7057 bohr
 

     total cpu time spent up to now is      525.0 secs

     total energy              =   -8078.55544127 Ry
     estimated scf accuracy    <       0.06877499 Ry

     total magnetization       =    97.89 Bohr mag/cell
     absolute magnetization    =    98.94 Bohr mag/cell

     iteration # 39     ecut=    50.00 Ry     beta= 0.10
     Davidson diagonalization with overlap
     ethr =  6.01E-06,  avg # of iterations =  1.0

     negative rho (up, down):  9.406E-05 7.084E-07
 
     Adding external electric field

     Computed dipole along edir(3) : 
        Dipole               -0.7776 Ry au,         -1.9765 Debye
        Dipole field         -0.0005 Ry au, 
 
        Potential amp.        0.0510 Ry
        Total length         54.7057 bohr
 
 
     Adding external electric field

     Computed dipole along edir(3) : 
        Dipole               -0.7776 Ry au,         -1.9765 Debye
        Dipole field         -0.0005 Ry au, 
 
        Potential amp.        0.0510 Ry
        Total length         54.7057 bohr
 

     total cpu time spent up to now is      537.7 secs

     total energy              =   -8078.55225015 Ry
     estimated scf accuracy    <       0.06672559 Ry

     total magnetization       =    97.84 Bohr mag/cell
     absolute magnetization    =    98.98 Bohr mag/cell

     iteration # 40     ecut=    50.00 Ry     beta= 0.10
     Davidson diagonalization with overlap
     ethr =  6.01E-06,  avg # of iterations =  1.0

     negative rho (up, down):  2.493E-05 7.389E-08
 
     Adding external electric field

     Computed dipole along edir(3) : 
        Dipole               -0.7944 Ry au,         -2.0191 Debye
        Dipole field         -0.0005 Ry au, 
 
        Potential amp.        0.0521 Ry
        Total length         54.7057 bohr
 
 
     Adding external electric field

     Computed dipole along edir(3) : 
        Dipole               -0.7944 Ry au,         -2.0191 Debye
        Dipole field         -0.0005 Ry au, 
 
        Potential amp.        0.0521 Ry
        Total length         54.7057 bohr
 

     total cpu time spent up to now is      549.0 secs

     total energy              =   -8078.55690099 Ry
     estimated scf accuracy    <       0.06511165 Ry

     total magnetization       =    97.90 Bohr mag/cell
     absolute magnetization    =    98.98 Bohr mag/cell

     iteration # 41     ecut=    50.00 Ry     beta= 0.10
     Davidson diagonalization with overlap
     ethr =  5.88E-06,  avg # of iterations =  1.5

     negative rho (up, down):  1.196E-05 7.767E-08
 
     Adding external electric field

     Computed dipole along edir(3) : 
        Dipole               -0.7957 Ry au,         -2.0224 Debye
        Dipole field         -0.0005 Ry au, 
 
        Potential amp.        0.0522 Ry
        Total length         54.7057 bohr
 
 
     Adding external electric field

     Computed dipole along edir(3) : 
        Dipole               -0.7957 Ry au,         -2.0224 Debye
        Dipole field         -0.0005 Ry au, 
 
        Potential amp.        0.0522 Ry
        Total length         54.7057 bohr
 

     total cpu time spent up to now is      560.9 secs

     total energy              =   -8078.55841964 Ry
     estimated scf accuracy    <       0.06579849 Ry

     total magnetization       =    97.80 Bohr mag/cell
     absolute magnetization    =    98.94 Bohr mag/cell

     iteration # 42     ecut=    50.00 Ry     beta= 0.10
     Davidson diagonalization with overlap
     ethr =  5.88E-06,  avg # of iterations =  1.0

     negative rho (up, down):  2.680E-05 2.027E-07
 
     Adding external electric field

     Computed dipole along edir(3) : 
        Dipole               -0.7919 Ry au,         -2.0128 Debye
        Dipole field         -0.0005 Ry au, 
 
        Potential amp.        0.0519 Ry
        Total length         54.7057 bohr
 
 
     Adding external electric field

     Computed dipole along edir(3) : 
        Dipole               -0.7919 Ry au,         -2.0128 Debye
        Dipole field         -0.0005 Ry au, 
 
        Potential amp.        0.0519 Ry
        Total length         54.7057 bohr
 

     total cpu time spent up to now is      572.3 secs

     total energy              =   -8078.55958839 Ry
     estimated scf accuracy    <       0.06599224 Ry

     total magnetization       =    97.81 Bohr mag/cell
     absolute magnetization    =    98.98 Bohr mag/cell

     iteration # 43     ecut=    50.00 Ry     beta= 0.10
     Davidson diagonalization with overlap
     ethr =  5.88E-06,  avg # of iterations =  1.0

     negative rho (up, down):  5.353E-05 1.794E-06
 
     Adding external electric field

     Computed dipole along edir(3) : 
        Dipole               -0.7999 Ry au,         -2.0332 Debye
        Dipole field         -0.0005 Ry au, 
 
        Potential amp.        0.0525 Ry
        Total length         54.7057 bohr
 
 
     Adding external electric field

     Computed dipole along edir(3) : 
        Dipole               -0.7999 Ry au,         -2.0332 Debye
        Dipole field         -0.0005 Ry au, 
 
        Potential amp.        0.0525 Ry
        Total length         54.7057 bohr
 

     total cpu time spent up to now is      583.5 secs

     total energy              =   -8078.56023333 Ry
     estimated scf accuracy    <       0.06215799 Ry

     total magnetization       =    97.79 Bohr mag/cell
     absolute magnetization    =    98.89 Bohr mag/cell

     iteration # 44     ecut=    50.00 Ry     beta= 0.10
     Davidson diagonalization with overlap
     ethr =  5.61E-06,  avg # of iterations =  1.0

     negative rho (up, down):  7.950E-05 1.651E-05
 
     Adding external electric field

     Computed dipole along edir(3) : 
        Dipole               -0.8008 Ry au,         -2.0354 Debye
        Dipole field         -0.0005 Ry au, 
 
        Potential amp.        0.0525 Ry
        Total length         54.7057 bohr
 
 
     Adding external electric field

     Computed dipole along edir(3) : 
        Dipole               -0.8008 Ry au,         -2.0354 Debye
        Dipole field         -0.0005 Ry au, 
 
        Potential amp.        0.0525 Ry
        Total length         54.7057 bohr
 

     total cpu time spent up to now is      594.9 secs

     total energy              =   -8078.56218587 Ry
     estimated scf accuracy    <       0.05951333 Ry

     total magnetization       =    97.81 Bohr mag/cell
     absolute magnetization    =    98.90 Bohr mag/cell

     iteration # 45     ecut=    50.00 Ry     beta= 0.10
     Davidson diagonalization with overlap
     ethr =  5.37E-06,  avg # of iterations =  1.0

     negative rho (up, down):  7.971E-05 2.435E-05
 
     Adding external electric field

     Computed dipole along edir(3) : 
        Dipole               -0.7874 Ry au,         -2.0013 Debye
        Dipole field         -0.0005 Ry au, 
 
        Potential amp.        0.0516 Ry
        Total length         54.7057 bohr
 
 
     Adding external electric field

     Computed dipole along edir(3) : 
        Dipole               -0.7874 Ry au,         -2.0013 Debye
        Dipole field         -0.0005 Ry au, 
 
        Potential amp.        0.0516 Ry
        Total length         54.7057 bohr
 

     total cpu time spent up to now is      606.2 secs

     total energy              =   -8078.56292705 Ry
     estimated scf accuracy    <       0.05804541 Ry

     total magnetization       =    97.78 Bohr mag/cell
     absolute magnetization    =    98.85 Bohr mag/cell

     iteration # 46     ecut=    50.00 Ry     beta= 0.10
     Davidson diagonalization with overlap
     ethr =  5.24E-06,  avg # of iterations =  1.0

     negative rho (up, down):  5.552E-05 1.578E-05
 
     Adding external electric field

     Computed dipole along edir(3) : 
        Dipole               -0.7753 Ry au,         -1.9706 Debye
        Dipole field         -0.0005 Ry au, 
 
        Potential amp.        0.0509 Ry
        Total length         54.7057 bohr
 
 
     Adding external electric field

     Computed dipole along edir(3) : 
        Dipole               -0.7753 Ry au,         -1.9706 Debye
        Dipole field         -0.0005 Ry au, 
 
        Potential amp.        0.0509 Ry
        Total length         54.7057 bohr
 

     total cpu time spent up to now is      617.4 secs

     total energy              =   -8078.56330153 Ry
     estimated scf accuracy    <       0.05771365 Ry

     total magnetization       =    97.77 Bohr mag/cell
     absolute magnetization    =    98.84 Bohr mag/cell

     iteration # 47     ecut=    50.00 Ry     beta= 0.10
     Davidson diagonalization with overlap
     ethr =  5.21E-06,  avg # of iterations =  1.5

     negative rho (up, down):  2.300E-04 9.780E-05
 
     Adding external electric field

     Computed dipole along edir(3) : 
        Dipole               -0.7341 Ry au,         -1.8660 Debye
        Dipole field         -0.0004 Ry au, 
 
        Potential amp.        0.0482 Ry
        Total length         54.7057 bohr
 
 
     Adding external electric field

     Computed dipole along edir(3) : 
        Dipole               -0.7341 Ry au,         -1.8660 Debye
        Dipole field         -0.0004 Ry au, 
 
        Potential amp.        0.0482 Ry
        Total length         54.7057 bohr
 

     total cpu time spent up to now is      629.4 secs

     total energy              =   -8078.56099731 Ry
     estimated scf accuracy    <       0.05946402 Ry

     total magnetization       =    97.77 Bohr mag/cell
     absolute magnetization    =    98.87 Bohr mag/cell

     iteration # 48     ecut=    50.00 Ry     beta= 0.10
     Davidson diagonalization with overlap
     ethr =  5.21E-06,  avg # of iterations =  1.5

     negative rho (up, down):  8.351E-05 4.405E-05
 
     Adding external electric field

     Computed dipole along edir(3) : 
        Dipole               -0.7574 Ry au,         -1.9251 Debye
        Dipole field         -0.0005 Ry au, 
 
        Potential amp.        0.0497 Ry
        Total length         54.7057 bohr
 
 
     Adding external electric field

     Computed dipole along edir(3) : 
        Dipole               -0.7574 Ry au,         -1.9251 Debye
        Dipole field         -0.0005 Ry au, 
 
        Potential amp.        0.0497 Ry
        Total length         54.7057 bohr
 

     total cpu time spent up to now is      641.1 secs

     total energy              =   -8078.56387394 Ry
     estimated scf accuracy    <       0.05652279 Ry

     total magnetization       =    97.71 Bohr mag/cell
     absolute magnetization    =    98.76 Bohr mag/cell

     iteration # 49     ecut=    50.00 Ry     beta= 0.10
     Davidson diagonalization with overlap
     ethr =  5.10E-06,  avg # of iterations =  1.0

     negative rho (up, down):  1.395E-04 6.503E-05
 
     Adding external electric field

     Computed dipole along edir(3) : 
        Dipole               -0.7331 Ry au,         -1.8633 Debye
        Dipole field         -0.0004 Ry au, 
 
        Potential amp.        0.0481 Ry
        Total length         54.7057 bohr
 
 
     Adding external electric field

     Computed dipole along edir(3) : 
        Dipole               -0.7331 Ry au,         -1.8633 Debye
        Dipole field         -0.0004 Ry au, 
 
        Potential amp.        0.0481 Ry
        Total length         54.7057 bohr
 

     total cpu time spent up to now is      652.3 secs

     total energy              =   -8078.56264606 Ry
     estimated scf accuracy    <       0.05644952 Ry

     total magnetization       =    97.62 Bohr mag/cell
     absolute magnetization    =    98.73 Bohr mag/cell

     iteration # 50     ecut=    50.00 Ry     beta= 0.10
     Davidson diagonalization with overlap
     ethr =  5.09E-06,  avg # of iterations =  1.0

     negative rho (up, down):  1.677E-04 8.332E-05
 
     Adding external electric field

     Computed dipole along edir(3) : 
        Dipole               -0.7375 Ry au,         -1.8746 Debye
        Dipole field         -0.0004 Ry au, 
 
        Potential amp.        0.0484 Ry
        Total length         54.7057 bohr
 
 
     Adding external electric field

     Computed dipole along edir(3) : 
        Dipole               -0.7375 Ry au,         -1.8746 Debye
        Dipole field         -0.0004 Ry au, 
 
        Potential amp.        0.0484 Ry
        Total length         54.7057 bohr
 

     total cpu time spent up to now is      663.6 secs

     total energy              =   -8078.56261665 Ry
     estimated scf accuracy    <       0.05546114 Ry

     total magnetization       =    97.66 Bohr mag/cell
     absolute magnetization    =    98.74 Bohr mag/cell

     iteration # 51     ecut=    50.00 Ry     beta= 0.10
     Davidson diagonalization with overlap
     ethr =  5.01E-06,  avg # of iterations =  1.0

     negative rho (up, down):  3.850E-04 2.360E-04
 
     Adding external electric field

     Computed dipole along edir(3) : 
        Dipole               -0.7640 Ry au,         -1.9418 Debye
        Dipole field         -0.0005 Ry au, 
 
        Potential amp.        0.0501 Ry
        Total length         54.7057 bohr
 
 
     Adding external electric field

     Computed dipole along edir(3) : 
        Dipole               -0.7640 Ry au,         -1.9418 Debye
        Dipole field         -0.0005 Ry au, 
 
        Potential amp.        0.0501 Ry
        Total length         54.7057 bohr
 

     total cpu time spent up to now is      674.6 secs

     total energy              =   -8078.56201036 Ry
     estimated scf accuracy    <       0.05433776 Ry

     total magnetization       =    97.66 Bohr mag/cell
     absolute magnetization    =    98.75 Bohr mag/cell

     iteration # 52     ecut=    50.00 Ry     beta= 0.10
     Davidson diagonalization with overlap
     ethr =  4.90E-06,  avg # of iterations =  1.5

     negative rho (up, down):  4.249E-04 2.712E-04
 
     Adding external electric field

     Computed dipole along edir(3) : 
        Dipole               -0.7578 Ry au,         -1.9262 Debye
        Dipole field         -0.0005 Ry au, 
 
        Potential amp.        0.0497 Ry
        Total length         54.7057 bohr
 
 
     Adding external electric field

     Computed dipole along edir(3) : 
        Dipole               -0.7578 Ry au,         -1.9262 Debye
        Dipole field         -0.0005 Ry au, 
 
        Potential amp.        0.0497 Ry
        Total length         54.7057 bohr
 

     total cpu time spent up to now is      686.3 secs

     total energy              =   -8078.56221910 Ry
     estimated scf accuracy    <       0.04999894 Ry

     total magnetization       =    97.65 Bohr mag/cell
     absolute magnetization    =    98.77 Bohr mag/cell

     iteration # 53     ecut=    50.00 Ry     beta= 0.10
     Davidson diagonalization with overlap
     ethr =  4.51E-06,  avg # of iterations =  1.0

     negative rho (up, down):  2.996E-04 1.618E-04
 
     Adding external electric field

     Computed dipole along edir(3) : 
        Dipole               -0.7794 Ry au,         -1.9810 Debye
        Dipole field         -0.0005 Ry au, 
 
        Potential amp.        0.0511 Ry
        Total length         54.7057 bohr
 
 
     Adding external electric field

     Computed dipole along edir(3) : 
        Dipole               -0.7794 Ry au,         -1.9810 Debye
        Dipole field         -0.0005 Ry au, 
 
        Potential amp.        0.0511 Ry
        Total length         54.7057 bohr
 

     total cpu time spent up to now is      697.5 secs

     total energy              =   -8078.56161079 Ry
     estimated scf accuracy    <       0.04912000 Ry

     total magnetization       =    97.62 Bohr mag/cell
     absolute magnetization    =    98.71 Bohr mag/cell

     iteration # 54     ecut=    50.00 Ry     beta= 0.10
     Davidson diagonalization with overlap
     ethr =  4.43E-06,  avg # of iterations =  1.5

     negative rho (up, down):  3.037E-04 1.528E-04
 
     Adding external electric field

     Computed dipole along edir(3) : 
        Dipole               -0.7792 Ry au,         -1.9806 Debye
        Dipole field         -0.0005 Ry au, 
 
        Potential amp.        0.0511 Ry
        Total length         54.7057 bohr
 
 
     Adding external electric field

     Computed dipole along edir(3) : 
        Dipole               -0.7792 Ry au,         -1.9806 Debye
        Dipole field         -0.0005 Ry au, 
 
        Potential amp.        0.0511 Ry
        Total length         54.7057 bohr
 

     total cpu time spent up to now is      709.2 secs

     total energy              =   -8078.56144223 Ry
     estimated scf accuracy    <       0.04752115 Ry

     total magnetization       =    97.68 Bohr mag/cell
     absolute magnetization    =    98.75 Bohr mag/cell

     iteration # 55     ecut=    50.00 Ry     beta= 0.10
     Davidson diagonalization with overlap
     ethr =  4.29E-06,  avg # of iterations =  1.0

     negative rho (up, down):  2.219E-04 1.406E-04
 
     Adding external electric field

     Computed dipole along edir(3) : 
        Dipole               -0.7834 Ry au,         -1.9912 Debye
        Dipole field         -0.0005 Ry au, 
 
        Potential amp.        0.0514 Ry
        Total length         54.7057 bohr
 
 
     Adding external electric field

     Computed dipole along edir(3) : 
        Dipole               -0.7834 Ry au,         -1.9912 Debye
        Dipole field         -0.0005 Ry au, 
 
        Potential amp.        0.0514 Ry
        Total length         54.7057 bohr
 

     total cpu time spent up to now is      720.5 secs

     total energy              =   -8078.56283030 Ry
     estimated scf accuracy    <       0.04759807 Ry

     total magnetization       =    97.68 Bohr mag/cell
     absolute magnetization    =    98.77 Bohr mag/cell

     iteration # 56     ecut=    50.00 Ry     beta= 0.10
     Davidson diagonalization with overlap
     ethr =  4.29E-06,  avg # of iterations =  1.5

     negative rho (up, down):  7.941E-05 6.972E-05
 
     Adding external electric field

     Computed dipole along edir(3) : 
        Dipole               -0.7628 Ry au,         -1.9388 Debye
        Dipole field         -0.0005 Ry au, 
 
        Potential amp.        0.0500 Ry
        Total length         54.7057 bohr
 
 
     Adding external electric field

     Computed dipole along edir(3) : 
        Dipole               -0.7628 Ry au,         -1.9388 Debye
        Dipole field         -0.0005 Ry au, 
 
        Potential amp.        0.0500 Ry
        Total length         54.7057 bohr
 

     total cpu time spent up to now is      732.2 secs

     total energy              =   -8078.56323887 Ry
     estimated scf accuracy    <       0.04525529 Ry

     total magnetization       =    97.64 Bohr mag/cell
     absolute magnetization    =    98.73 Bohr mag/cell

     iteration # 57     ecut=    50.00 Ry     beta= 0.10
     Davidson diagonalization with overlap
     ethr =  4.08E-06,  avg # of iterations =  1.5

     negative rho (up, down):  4.896E-05 4.912E-05
 
     Adding external electric field

     Computed dipole along edir(3) : 
        Dipole               -0.7419 Ry au,         -1.8858 Debye
        Dipole field         -0.0004 Ry au, 
 
        Potential amp.        0.0487 Ry
        Total length         54.7057 bohr
 
 
     Adding external electric field

     Computed dipole along edir(3) : 
        Dipole               -0.7419 Ry au,         -1.8858 Debye
        Dipole field         -0.0004 Ry au, 
 
        Potential amp.        0.0487 Ry
        Total length         54.7057 bohr
 

     total cpu time spent up to now is      744.0 secs

     total energy              =   -8078.56290586 Ry
     estimated scf accuracy    <       0.04257672 Ry

     total magnetization       =    97.61 Bohr mag/cell
     absolute magnetization    =    98.74 Bohr mag/cell

     iteration # 58     ecut=    50.00 Ry     beta= 0.10
     Davidson diagonalization with overlap
     ethr =  3.84E-06,  avg # of iterations =  1.5

     negative rho (up, down):  3.091E-05 3.918E-05
 
     Adding external electric field

     Computed dipole along edir(3) : 
        Dipole               -0.7331 Ry au,         -1.8634 Debye
        Dipole field         -0.0004 Ry au, 
 
        Potential amp.        0.0481 Ry
        Total length         54.7057 bohr
 
 
[...]
    -5.9986  -5.9830  -5.9615  -5.9431  -5.8986  -5.8864  -5.8738  -5.8533
    -5.8459  -5.8337  -5.8068  -5.7793  -5.7713  -5.7305  -5.7053  -5.6832
    -5.6790  -5.6343  -5.6178  -5.6071  -5.5945  -5.5871  -5.5691  -5.5484
    -5.5346  -5.5121  -5.5047  -5.4817  -5.4801  -5.4764  -5.4421  -5.3737
    -5.3508  -5.3087  -5.2713  -5.2587  -5.2568  -5.2497  -5.2380  -5.1691
    -5.1244  -5.1142  -5.0833  -5.0544  -5.0308  -5.0005  -4.9289  -4.9079
    -4.8780  -4.8256  -4.8195  -4.7973  -4.7916  -4.7530  -4.7401  -4.7039
    -4.6687  -4.6331  -4.5943  -4.5718  -4.5486  -4.4544  -4.4160  -4.3977
    -4.3921  -4.3803  -4.3609  -4.2975  -4.2682  -4.2308  -4.2263  -4.2099
    -4.1849  -4.1660  -4.1169  -4.0591  -4.0402  -3.9955  -3.9898  -3.9644
    -3.9020  -3.8662  -3.8424  -3.8366  -3.8177  -3.7525  -3.7440  -3.7398
    -3.7247  -3.7011  -3.6807  -3.6419  -3.6280  -3.6083  -3.6041  -3.5812
    -3.5443  -3.5332  -3.5263  -3.5117  -3.5012  -3.4884  -3.4543  -3.4311
    -3.4132  -3.3867  -3.3829  -3.3792  -3.3692  -3.3623  -3.3306  -3.3164
    -3.2921  -3.2853  -3.2759  -3.2401  -3.2207  -3.1978  -3.1687  -3.1503
    -3.1420  -3.0902  -3.0829  -3.0673  -3.0460  -3.0395  -3.0224  -3.0086
    -2.9811  -2.9535  -2.9267  -2.9014  -2.8730  -2.8591  -2.8490  -2.8270
    -2.8063  -2.7876  -2.7280  -2.7159  -2.7103  -2.6979  -2.6943  -2.6816
    -2.6693  -2.6555  -2.6524  -2.6292  -2.6101  -2.5980  -2.5813  -2.5771
    -2.5567  -2.5441  -2.5298  -2.5112  -2.5072  -2.5037  -2.4820  -2.4677
    -2.4369  -2.4207  -2.4035  -2.3893  -2.3793  -2.3417  -2.3398  -2.3184
    -2.2991  -2.2819  -2.2728  -2.2511  -2.2230  -2.2013  -2.1959  -2.1889
    -2.1583  -2.1447  -2.1306  -2.0982  -2.0808  -2.0579  -2.0439  -2.0308
    -2.0125  -1.9950  -1.9792  -1.9728  -1.9566  -1.9177  -1.8924  -1.8863
    -1.8772  -1.8633  -1.8592  -1.8402  -1.8347  -1.8195  -1.8056  -1.7991
    -1.7282  -1.6990  -1.6845  -1.6532  -1.6404  -1.6337  -1.6163  -1.5933
    -1.5924  -1.5857  -1.5719  -1.5389  -1.5329  -1.5236  -1.4812  -1.4492
    -1.4305  -1.4223  -1.3811  -1.3698  -1.3556  -1.3406  -1.3271  -1.3196
    -1.3058  -1.2872  -1.2547  -1.2272  -1.1871  -1.1708  -1.1488  -1.1037
    -1.0782  -1.0271  -1.0118  -1.0016  -0.9947  -0.8490  -0.8335  -0.8061
    -0.7406  -0.6318  -0.6211  -0.5720  -0.4630  -0.4202  -0.2818  -0.2142
     0.1727   0.1849   0.2286   0.2477   0.2552   0.2817   0.3000   0.3121
     0.3308   0.3355   0.3624   0.3705   0.3737   0.3806   0.3919   0.3980
     0.4036   0.4066   0.4211   0.4238   0.4371   0.4481   0.4589   0.4631
     0.4678   0.4734   0.4807   0.4844   0.4982   0.5069   0.5127   0.5242
     0.5267   0.5352   0.5501   0.5639   0.5687   0.5733   0.5901   0.5971
     0.6031   0.6180   0.6254   0.6321   0.6373   0.6465   0.6546   0.6590
     0.6692   0.6730   0.6947   0.6981   0.7128   0.7170   0.7254   0.7339
     0.7359   0.7527   0.7694   0.7729   0.7845   0.7965   0.8028   0.8141
     0.8175   0.8333   0.8432   0.8517   0.8591   0.8636   0.8687   0.8941
     0.9011   0.9544   0.9745   1.0211   1.0344   1.0522   1.1242   1.1436
     1.6822   1.7565   1.7760   1.8048   1.8182   1.8248   1.8351   1.8682
     1.8786   1.9012   1.9310   1.9567   1.9756   1.9900   2.0054   2.0347
     2.0478   2.0801   2.0827   2.1027   2.1040   2.1327   2.1365   2.1654
     2.1748   2.1920   2.1975   2.2093   2.2264   2.2459   2.2711   2.2799
     2.2915   2.2969   2.3238   2.3444   2.3569   2.3747   2.4371   2.4443
     2.4632   2.4766   2.4937   2.5075   2.5235   2.5334   2.5904   2.5983
     2.6121   2.6515   2.6869   2.7970   2.8203   2.8558   2.8627   3.5534
     3.6007   3.6887   3.7521   3.7816   3.8233   3.8287   3.8450   3.8768
     3.8814   3.9373   3.9460   3.9607   3.9958   3.9996   4.0166   4.0314
     4.0641   4.0789   4.0928   4.1021   4.1357   4.1523   4.1657   4.2013
     4.2078   4.2198   4.2445   4.2629   4.3038   4.6029   4.7009   4.7670
     4.7841   4.8534   4.8950   4.9208   4.9754   4.9886   5.0087   5.0592
     5.0737   5.0988   5.1465   5.1681   5.2083   5.2192   5.3876   6.1796
     6.3515   6.4425   6.5744   6.7058   6.7156   6.7525   6.8510   6.8732
     6.9484   6.9639   7.0098   7.0521   7.2200   7.3001   7.3445   7.3619
     7.3832   7.4233   7.4871   7.5124   7.5719   7.5899   7.7084   7.7150
     7.8263   7.8409   7.8885   7.9204   7.9522   7.9931   8.0167   8.0505
     8.0739   8.1028   8.1115   8.1620   8.1958   8.2061   8.2360   8.2842
     8.3021   8.3383   8.3627   8.3668   8.3854   8.4111   8.4226   8.4423
     8.4560   8.4754   8.5283   8.5603   8.5611   8.5756   8.6108   8.6459
     8.6539

     the Fermi energy is     1.6834 ev

!    total energy              =   -8078.55899137 Ry
     estimated scf accuracy    <       0.00000069 Ry
     smearing contrib. (-TS)   =      -0.02332081 Ry
     internal energy E=F+TS    =   -8078.53567056 Ry

     The total energy is F=E-TS. E is the sum of the following terms:
     one-electron contribution =  -94695.28774486 Ry
     hartree contribution      =   47932.42121369 Ry
     xc contribution           =   -2177.38814744 Ry
     ewald contribution        =   40863.48943292 Ry
     Dispersion Correction     =      -1.77043877 Ry
     electric field correction =       0.00001390 Ry

     total magnetization       =    97.44 Bohr mag/cell
     absolute magnetization    =    98.66 Bohr mag/cell

     convergence has been achieved in 121 iterations

     negative rho (up, down):  1.163E-03 6.259E-04

     Forces acting on atoms (cartesian axes, Ry/au):

     atom    1 type  1   force =     0.02414802   -0.01761786    0.01998503
     atom    2 type  1   force =    -0.00195968    0.00025306   -0.00584549
     atom    3 type  2   force =    -0.03023881   -0.01567662   -0.00859262
     atom    4 type  1   force =     0.00187008   -0.00339621   -0.00479251
     atom    5 type  1   force =    -0.00370506    0.00219648   -0.00206905
     atom    6 type  1   force =     0.00244123    0.00746810   -0.00445325
     atom    7 type  1   force =     0.03198553   -0.01954599    0.01773813
     atom    8 type  2   force =    -0.00185158    0.00024038   -0.00940776
     atom    9 type  2   force =    -0.02889889   -0.01531679   -0.00865143
     atom   10 type  1   force =     0.00198387   -0.00311580   -0.00452654
     atom   11 type  1   force =    -0.00343543    0.00262366   -0.00123133
     atom   12 type  1   force =     0.00373184    0.00691148   -0.00395326
     atom   13 type  3   force =     0.00212712    0.00073299   -0.00760110
     atom   14 type  3   force =    -0.02975619    0.04990918   -0.06594446
     atom   15 type  3   force =     0.03465965    0.03759788   -0.05980209
     atom   16 type  3   force =    -0.00441325    0.00309042   -0.00095834
     atom   17 type  4   force =    -0.00198838    0.00137121    0.00283816
     atom   18 type  4   force =    -0.00160531   -0.00516689    0.02729555
     atom   19 type  4   force =     0.00395452    0.00278017    0.02943217
     atom   20 type  4   force =     0.00004243   -0.00270510   -0.00482996
     atom   21 type  4   force =    -0.00304084   -0.00232032    0.00339597
     atom   22 type  4   force =     0.00473994   -0.00331337    0.03432578
     atom   23 type  4   force =    -0.00598823   -0.00111956    0.03256214
     atom   24 type  4   force =     0.00066887   -0.00099747    0.00008147
     atom   25 type  4   force =    -0.00133703    0.00082385    0.00216513
     atom   26 type  4   force =    -0.01456153   -0.02266429   -0.00179694
     atom   27 type  4   force =     0.00176567   -0.00071007    0.00118301
     atom   28 type  4   force =    -0.01758991    0.00341459    0.00120830
     atom   29 type  4   force =     0.02059691   -0.00457338    0.00829891
     atom   30 type  4   force =     0.01243938   -0.03404178    0.00114334
     atom   31 type  4   force =     0.00052731    0.00092519    0.00230200
     atom   32 type  4   force =    -0.00213164    0.00005050    0.00264471
     atom   33 type  3   force =    -0.00054541   -0.00161857   -0.00507487
     atom   34 type  3   force =    -0.03021873    0.05982109   -0.08313028
     atom   35 type  3   force =     0.03460670    0.03340404   -0.05923550
     atom   36 type  3   force =    -0.00386582    0.00469976   -0.00073142
     atom   37 type  4   force =    -0.00106754    0.00134495    0.00308144
     atom   38 type  4   force =    -0.00304165   -0.00558816    0.03287633
     atom   39 type  4   force =     0.00442245    0.00390329    0.02918646
     atom   40 type  4   force =     0.00020018   -0.00322423   -0.00493999
     atom   41 type  4   force =    -0.00007030    0.00002209    0.00359748
     atom   42 type  4   force =     0.00544824    0.00024976    0.02006329
     atom   43 type  4   force =    -0.00178193    0.00035162    0.03463745
     atom   44 type  4   force =     0.00093431   -0.00088042    0.00009368
     atom   45 type  4   force =    -0.00017867   -0.00266870    0.00126800
     atom   46 type  4   force =    -0.01513691   -0.02032292   -0.00046291
     atom   47 type  4   force =     0.00190319   -0.00059985    0.00126218
     atom   48 type  4   force =    -0.01794837    0.00403464    0.00163402
     atom   49 type  4   force =     0.01642266   -0.00275097    0.00500195
     atom   50 type  4   force =     0.01184112   -0.03672864    0.00438223
     atom   51 type  4   force =     0.00105909    0.00094485    0.00170607
     atom   52 type  4   force =     0.00097843   -0.00224508    0.00361841
     atom   53 type  1   force =     0.00133297    0.00063485   -0.00078531
     atom   54 type  1   force =     0.00040426   -0.00087965    0.00294084
     atom   55 type  2   force =    -0.00007312   -0.00044855   -0.00072831
     atom   56 type  1   force =    -0.00100659    0.00078557   -0.00031549
     atom   57 type  1   force =     0.00026384    0.00014548    0.00029996
     atom   58 type  1   force =     0.00027286   -0.00024044    0.00032563
     atom   59 type  1   force =     0.00055100    0.00086846   -0.00095853
     atom   60 type  2   force =    -0.00090945   -0.00126892    0.00704384
     atom   61 type  2   force =    -0.00030154   -0.00023157   -0.00066972
     atom   62 type  1   force =    -0.00040815    0.00155678    0.00015273
     atom   63 type  1   force =    -0.00036398    0.00032318    0.00033574
     atom   64 type  1   force =    -0.00010776   -0.00042293    0.00010343
     atom   65 type  3   force =    -0.00072440   -0.00174358    0.00312862
     atom   66 type  3   force =     0.00011793   -0.00012007   -0.00159690
     atom   67 type  3   force =     0.00038488    0.00049921   -0.00128421
     atom   68 type  3   force =    -0.00109837   -0.00061090    0.00295268
     atom   69 type  4   force =    -0.00086439    0.00023965   -0.00174924
     atom   70 type  4   force =    -0.00014588    0.00014716    0.00049868
     atom   71 type  4   force =     0.00012659   -0.00018674    0.00037689
     atom   72 type  4   force =     0.00050042   -0.00047020   -0.00113832
     atom   73 type  4   force =     0.00074014    0.00030207   -0.00017280
     atom   74 type  4   force =    -0.00021736   -0.00063125    0.00177526
     atom   75 type  4   force =    -0.00007918   -0.00002900    0.00049803
     atom   76 type  4   force =    -0.00077090   -0.00087105    0.00163078
     atom   77 type  4   force =    -0.00081754    0.00084550   -0.00009821
     atom   78 type  4   force =    -0.00028978   -0.00000153    0.00032982
     atom   79 type  4   force =     0.00007746    0.00090627   -0.00143071
     atom   80 type  4   force =     0.00000025    0.00061650    0.00028057
     atom   81 type  4   force =    -0.00039484   -0.00028902    0.00035493
     atom   82 type  4   force =     0.00008428   -0.00017412    0.00006629
     atom   83 type  4   force =     0.00042044    0.00084676   -0.00013898
     atom   84 type  4   force =    -0.00022712    0.00024426   -0.00099596
     atom   85 type  3   force =     0.00012718   -0.00046253    0.00077171
     atom   86 type  3   force =     0.00063719   -0.00057499   -0.00053018
     atom   87 type  3   force =    -0.00028761   -0.00003665   -0.00100384
     atom   88 type  3   force =    -0.00070439    0.00023510    0.00240697
     atom   89 type  4   force =    -0.00007186    0.00010261   -0.00061098
     atom   90 type  4   force =     0.00005716   -0.00039058    0.00172099
     atom   91 type  4   force =     0.00030467    0.00009349    0.00034222
     atom   92 type  4   force =     0.00068366   -0.00083881   -0.00131076
     atom   93 type  4   force =     0.00132312    0.00005591   -0.00007542
     atom   94 type  4   force =    -0.00031775    0.00009057    0.00133146
     atom   95 type  4   force =     0.00026384    0.00016288    0.00052376
     atom   96 type  4   force =    -0.00153119   -0.00000005    0.00045625
     atom   97 type  4   force =     0.00075443   -0.00032953   -0.00147033
     atom   98 type  4   force =    -0.00050301   -0.00020525    0.00031689
     atom   99 type  4   force =     0.00056693    0.00106415   -0.00130129
     atom  100 type  4   force =     0.00050479    0.00038788    0.00049058
     atom  101 type  4   force =    -0.00028802   -0.00015365    0.00044452
     atom  102 type  4   force =     0.00089912   -0.00043336    0.00043988
     atom  103 type  4   force =     0.00092564   -0.00014292    0.00008570
     atom  104 type  4   force =    -0.00021031   -0.00102103   -0.00029590
     atom  105 type  1   force =     0.00002696    0.00010700    0.00008228
     atom  106 type  1   force =    -0.00005858    0.00035292    0.00014163
     atom  107 type  2   force =     0.00008610   -0.00027657    0.00028887
     atom  108 type  1   force =    -0.00061440   -0.00088154   -0.00032580
     atom  109 type  1   force =     0.00022820    0.00025421   -0.00001584
     atom  110 type  1   force =    -0.00034007    0.00009815    0.00003354
     atom  111 type  1   force =     0.00015414    0.00020005    0.00026223
     atom  112 type  2   force =    -0.00005576    0.00039541   -0.00008565
     atom  113 type  2   force =     0.00008709   -0.00007237    0.00019874
     atom  114 type  1   force =     0.00019320    0.00058511    0.00040990
     atom  115 type  1   force =     0.00009713    0.00006998    0.00001957
     atom  116 type  1   force =    -0.00015333   -0.00027903    0.00032998
     atom  117 type  3   force =    -0.00023411   -0.00050774    0.00044539
     atom  118 type  3   force =    -0.00005530   -0.00008146   -0.00030073
     atom  119 type  3   force =    -0.00020987    0.00007571    0.00023597
     atom  120 type  3   force =     0.00010993   -0.00000681    0.00001307
     atom  121 type  4   force =     0.00010828    0.00005110   -0.00026731
     atom  122 type  4   force =     0.00013893   -0.00006451    0.00042817
     atom  123 type  4   force =     0.00012893    0.00008900    0.00025961
     atom  124 type  4   force =    -0.00022655   -0.00028202    0.00040355
     atom  125 type  4   force =     0.00056151    0.00003869    0.00003317
     atom  126 type  4   force =    -0.00057873    0.00028645    0.00002594
     atom  127 type  4   force =     0.00002594    0.00010603    0.00001184
     atom  128 type  4   force =     0.00010493   -0.00048894   -0.00012699
     atom  129 type  4   force =    -0.00026827   -0.00010343    0.00018405
     atom  130 type  4   force =    -0.00002845   -0.00000320    0.00011457
     atom  131 type  4   force =     0.00052748    0.00020408    0.00008894
     atom  132 type  4   force =     0.00031559    0.00031018   -0.00011881
     atom  133 type  4   force =    -0.00009121    0.00001428   -0.00006992
     atom  134 type  4   force =     0.00018183    0.00010535    0.00022407
     atom  135 type  4   force =     0.00043251    0.00026667    0.00013969
     atom  136 type  4   force =     0.00018055   -0.00004980   -0.00005527
     atom  137 type  3   force =     0.00009547    0.00023185   -0.00013892
     atom  138 type  3   force =     0.00009735   -0.00018083   -0.00006641
     atom  139 type  3   force =     0.00038500    0.00024300    0.00001416
     atom  140 type  3   force =     0.00021716   -0.00049219   -0.00048211
     atom  141 type  4   force =    -0.00038122   -0.00008674    0.00036355
     atom  142 type  4   force =     0.00008441    0.00005459   -0.00009906
     atom  143 type  4   force =    -0.00022241    0.00041307    0.00011926
     atom  144 type  4   force =    -0.00035957   -0.00024002    0.00087263
     atom  145 type  4   force =     0.00030827    0.00022286    0.00008650
     atom  146 type  4   force =    -0.00023811   -0.00018352   -0.00000449
     atom  147 type  4   force =     0.00015860    0.00010837    0.00010149
     atom  148 type  4   force =    -0.00027840   -0.00023767   -0.00019454
     atom  149 type  4   force =     0.00006369    0.00054437    0.00012403
     atom  150 type  4   force =    -0.00006919    0.00032879   -0.00000889
     atom  151 type  4   force =     0.00002064   -0.00010548    0.00014581
     atom  152 type  4   force =    -0.00024501   -0.00005678    0.00006630
     atom  153 type  4   force =     0.00005175    0.00024452    0.00007898
     atom  154 type  4   force =     0.00008134   -0.00038593   -0.00013357
     atom  155 type  4   force =    -0.00004610    0.00019273    0.00012577
     atom  156 type  4   force =     0.00011369    0.00006873    0.00056415
     atom  157 type  4   force =    -0.00303242    0.00289062    0.00265882
     atom  158 type  5   force =     0.00366820   -0.00228891   -0.00194392

     Total force =     0.225394     Total SCF correction =     0.004139
 
     init_run     :      8.16s CPU      8.85s WALL (       1 calls)
     electrons    :   1460.99s CPU   1528.57s WALL (       1 calls)
     forces       :      3.95s CPU      4.27s WALL (       1 calls)
     force_london :      0.08s CPU      0.08s WALL (       1 calls)

     Called by init_run:
     wfcinit      :      4.56s CPU      4.73s WALL (       1 calls)
     potinit      :      0.84s CPU      1.05s WALL (       1 calls)
     hinit0       :      1.50s CPU      1.63s WALL (       1 calls)

     Called by electrons:
     c_bands      :   1122.77s CPU   1155.64s WALL (     121 calls)
     sum_band     :    213.68s CPU    230.61s WALL (     121 calls)
     v_of_rho     :     28.17s CPU     32.33s WALL (     122 calls)
     newd         :     67.03s CPU     80.40s WALL (     122 calls)
     mix_rho      :     27.80s CPU     28.24s WALL (     121 calls)
     energy_londo :      0.09s CPU      0.09s WALL (       1 calls)

     Called by c_bands:
     init_us_2    :      2.76s CPU      2.81s WALL (     488 calls)
     init_us_2:cp :      2.75s CPU      2.81s WALL (     488 calls)
     regterg      :   1098.66s CPU   1131.31s WALL (     244 calls)

     Called by *egterg:
     rdiaghg      :    252.25s CPU    268.09s WALL (     776 calls)
     h_psi        :    440.95s CPU    449.13s WALL (     778 calls)
     s_psi        :     69.76s CPU     69.80s WALL (     778 calls)
     g_psi        :      0.52s CPU      0.53s WALL (     532 calls)

     Called by h_psi:
     h_psi:calbec :    118.79s CPU    125.27s WALL (     778 calls)
     vloc_psi     :    249.24s CPU    250.10s WALL (     778 calls)
     add_vuspsi   :     72.07s CPU     72.87s WALL (     778 calls)

     General routines
     calbec       :    177.12s CPU    186.63s WALL (    1028 calls)
     fft          :     44.76s CPU     49.75s WALL (    2209 calls)
     ffts         :     17.94s CPU     17.99s WALL (   15125 calls)
     fftw         :    287.25s CPU    288.21s WALL (  413006 calls)
     interpolate  :      2.25s CPU      2.34s WALL (     244 calls)
 
     Parallel routines
 
     PWSCF        :  24m35.43s CPU  25m44.32s WALL

 
   This run was terminated on:  21:43:50  17Nov2025            

=------------------------------------------------------------------------------=
   JOB DONE.
=------------------------------------------------------------------------------=
