
     Program PWSCF v.7.2 starts on 17Nov2025 at 19:56:17 

     This program is part of the open-source Quantum ESPRESSO suite
     for quantum simulation of materials; please cite
         "P. Giannozzi et al., J. Phys.:Condens. Matter 21 395502 (2009);
         "P. Giannozzi et al., J. Phys.:Condens. Matter 29 465901 (2017);
         "P. Giannozzi et al., J. Chem. Phys. 152 154105 (2020);
          URL http://www.quantum-espresso.org", 
     in publications or presentations arising from this work. More details at
     http://www.quantum-espresso.org/quote

     Parallel version (MPI), running on    64 processors

     MPI processes distributed on     4 nodes
     465497 MiB available memory on the printing compute node when the environment starts
 
     Reading input from PWINPUT_atm158_xp

     Current dimensions of program PWSCF are:
     Max number of different atomic species (ntypx) = 10
     Max number of k-points (npk) =  40000
     Max angular momentum in pseudopotentials (lmaxx) =  4
     Presently no symmetry can be used with electric field

     file Ni.pbe-n-rrkjus_psl.1.0.0.UPF: wavefunction(s)  3D renormalized
     file Mn.pbe-spn-rrkjus_psl.0.3.1.UPF: wavefunction(s)  3D renormalized
     file O.pbe-rrkjus.UPF: wavefunction(s)  2S renormalized
     file H.pbe-rrkjus.UPF: wavefunction(s)  1S renormalized

     gamma-point specific algorithms are used
 
     R & G space division:  proc/nbgrp/npool/nimage =      64
     Subspace diagonalization in iterative solution of the eigenvalue problem:
     one sub-group per band group will be used
     custom distributed-memory algorithm (size of sub-group:  7*  7 procs)

 
     Parallelization info
     --------------------
     sticks:   dense  smooth     PW     G-vecs:    dense   smooth      PW
     Min         214      85     20                61830    15614    1928
     Max         216      86     22                61864    15658    1982
     Sum       13727    5503   1375              3958051  1001255  125211
 
     Using Slab Decomposition
 


     bravais-lattice index     =            0
     lattice parameter (alat)  =      17.8532  a.u.
     unit-cell volume          =   20962.6682 (a.u.)^3
     number of atoms/cell      =          158
     number of atomic types    =            5
     number of electrons       =      1108.00
     number of Kohn-Sham states=          665
     kinetic-energy cutoff     =      50.0000  Ry
     charge density cutoff     =     500.0000  Ry
     scf convergence threshold =      1.0E-06
     mixing beta               =       0.1000
     number of iterations used =            8  local-TF  mixing
     Exchange-correlation=  SLA  PW   PBE  PBE
                           (   1   4   3   4   0   0   0)

     celldm(1)=  17.853155  celldm(2)=   0.000000  celldm(3)=   0.000000
     celldm(4)=   0.000000  celldm(5)=   0.000000  celldm(6)=   0.000000

     crystal axes: (cart. coord. in units of alat)
               a(1) = (   1.000000   0.000000   0.000000 )  
               a(2) = (   0.003237   1.081997   0.000000 )  
               a(3) = (   0.000000   0.000000   3.404673 )  

     reciprocal axes: (cart. coord. in units 2 pi/alat)
               b(1) = (  1.000000 -0.002992  0.000000 )  
               b(2) = (  0.000000  0.924217  0.000000 )  
               b(3) = (  0.000000  0.000000  0.293714 )  


     PseudoPot. # 1 for Ni read from file:
     ~/PSEUDO/Ni.pbe-n-rrkjus_psl.1.0.0.UPF
     MD5 check sum: Not computed, couldn't open file
     Pseudo is Ultrasoft + core correction, Zval = 10.0
     Generated using "atomic" code by A. Dal Corso  v.5.1.2
     Using radial grid of 1195 points,  6 beta functions with: 
                l(1) =   0
                l(2) =   0
                l(3) =   1
                l(4) =   1
                l(5) =   2
                l(6) =   2
     Q(r) pseudized with 0 coefficients 


     PseudoPot. # 2 for Mn read from file:
     ~/PSEUDO/Mn.pbe-spn-rrkjus_psl.0.3.1.UPF
     MD5 check sum: Not computed, couldn't open file
     Pseudo is Ultrasoft + core correction, Zval = 15.0
     Generated using &quot;atomic&quot; code by A. Dal Corso  v.6.2.2
     Using radial grid of 1187 points,  6 beta functions with: 
                l(1) =   0
                l(2) =   0
                l(3) =   1
                l(4) =   1
                l(5) =   2
                l(6) =   2
     Q(r) pseudized with 0 coefficients 


     PseudoPot. # 3 for P  read from file:
     ~/PSEUDO/P.pbe-n-rrkjus_psl.1.0.0.UPF
     MD5 check sum: Not computed, couldn't open file
     Pseudo is Ultrasoft + core correction, Zval =  5.0
     Generated using "atomic" code by A. Dal Corso  v.5.1
     Using radial grid of 1147 points,  6 beta functions with: 
                l(1) =   0
                l(2) =   0
                l(3) =   1
                l(4) =   1
                l(5) =   2
                l(6) =   2
     Q(r) pseudized with 0 coefficients 


     PseudoPot. # 4 for O  read from file:
     ~/PSEUDO/O.pbe-rrkjus.UPF
     MD5 check sum: Not computed, couldn't open file
     Pseudo is Ultrasoft, Zval =  6.0
     Generated by new atomic code, or converted to UPF format
     Using radial grid of 1269 points,  4 beta functions with: 
                l(1) =   0
                l(2) =   0
                l(3) =   1
                l(4) =   1
     Q(r) pseudized with 0 coefficients 


     PseudoPot. # 5 for H  read from file:
     ~/PSEUDO/H.pbe-rrkjus.UPF
     MD5 check sum: Not computed, couldn't open file
     Pseudo is Ultrasoft, Zval =  1.0
     Generated by new atomic code, or converted to UPF format
     Using radial grid of 1061 points,  2 beta functions with: 
                l(1) =   0
                l(2) =   0
     Q(r) pseudized with 0 coefficients 


     atomic species   valence    mass     pseudopotential
     Ni               10.00    58.69300     Ni( 1.00)
     Mn               15.00    54.93800     Mn( 1.00)
     P                 5.00    30.97300     P ( 1.00)
     O                 6.00    15.99900     O ( 1.00)
     H                 1.00     1.00790     H ( 1.00)

     Starting magnetic structure 
     atomic species   magnetization
     Ni              1.000
     Mn              1.000
     P               1.000
     O               1.000
     H               0.000

     No symmetry found



   Cartesian axes

     site n.     atom                  positions (alat units)
         1        Ni     tau(   1) = (   0.2448189   0.8359134   0.1216996  )
         2        Ni     tau(   2) = (   0.4920952   0.7731948   0.4438949  )
         3        Mn     tau(   3) = (   0.0113021   0.2918949   0.1160512  )
         4        Ni     tau(   4) = (   0.2586115   0.2268566   0.4417628  )
         5        Ni     tau(   5) = (   1.0019827   1.0705803   0.2835623  )
         6        Ni     tau(   6) = (   0.2518099   0.5339061   0.2823483  )
         7        Ni     tau(   7) = (   0.7400999   0.8349186   0.1225624  )
         8        Mn     tau(   8) = (   0.9886961   0.7700845   0.4492175  )
         9        Mn     tau(   9) = (   0.5113421   0.2944667   0.1158892  )
        10        Ni     tau(  10) = (   0.7560857   0.2263843   0.4422798  )
        11        Ni     tau(  11) = (   0.5009386   1.0712238   0.2822610  )
        12        Ni     tau(  12) = (   0.7496978   0.5336600   0.2834396  )
        13        P      tau(  13) = (   0.2147792   0.9686896   0.4382665  )
        14        P      tau(  14) = (   0.4607377   0.6441916   0.1265334  )
        15        P      tau(  15) = (   0.2883218   0.0913464   0.1265752  )
        16        P      tau(  16) = (   0.0408981   0.4221836   0.4354960  )
        17        O      tau(  17) = (   0.1380864   0.9007819   0.3023220  )
        18        O      tau(  18) = (   0.3817439   0.7113683   0.2624610  )
        19        O      tau(  19) = (   0.3638364   0.1608547   0.2624417  )
        20        O      tau(  20) = (   0.1207568   0.3545755   0.3021219  )
        21        O      tau(  21) = (   0.1552194   0.8797563   0.5625160  )
        22        O      tau(  22) = (   0.4022820   0.7317969   0.0010585  )
        23        O      tau(  23) = (   0.3454844   0.1823965   0.0026336  )
        24        O      tau(  24) = (   0.1017019   0.3344979   0.5594858  )
        25        O      tau(  25) = (   0.0970074   0.5770714   0.4346455  )
        26        O      tau(  26) = (   0.3534166   1.0203677   0.1270707  )
        27        O      tau(  27) = (   0.3778024   0.4172402   0.4261028  )
        28        O      tau(  28) = (   0.1256171   0.0954063   0.1372153  )
        29        O      tau(  29) = (   0.1232168   0.6482422   0.1385172  )
        30        O      tau(  30) = (   0.4028533   0.4897833   0.1289718  )
        31        O      tau(  31) = (   0.1511050   0.0405554   0.4369979  )
        32        O      tau(  32) = (   0.3776556   0.9624293   0.4288159  )
        33        P      tau(  33) = (   0.7084770   0.9682119   0.4394551  )
        34        P      tau(  34) = (   0.9603154   0.6409658   0.1292469  )
        35        P      tau(  35) = (   0.7875734   0.0899770   0.1274098  )
        36        P      tau(  36) = (   0.5405152   0.4272620   0.4364455  )
        37        O      tau(  37) = (   0.6323583   0.8977630   0.3036670  )
        38        O      tau(  38) = (   0.8809646   0.7091921   0.2627111  )
        39        O      tau(  39) = (   0.8631054   0.1587239   0.2636487  )
        40        O      tau(  40) = (   0.6202581   0.3578380   0.3034239  )
        41        O      tau(  41) = (   0.6499160   0.8772596   0.5630912  )
        42        O      tau(  42) = (   0.8990171   0.7283464   0.0054426  )
        43        O      tau(  43) = (   0.8448361   0.1806154   0.0030658  )
        44        O      tau(  44) = (   0.6023096   0.3392612   0.5600469  )
        45        O      tau(  45) = (   0.5960222   0.5826131   0.4346340  )
        46        O      tau(  46) = (   0.8515023   1.0184215   0.1281632  )
        47        O      tau(  47) = (   0.8779640   0.4148900   0.4260983  )
        48        O      tau(  48) = (   0.6251159   0.0957170   0.1376895  )
        49        O      tau(  49) = (   0.6237654   0.6481585   0.1378370  )
        50        O      tau(  50) = (   0.9038046   0.4863338   0.1307354  )
        51        O      tau(  51) = (   0.6458737   0.0402574   0.4377979  )
        52        O      tau(  52) = (   0.8712434   0.9635255   0.4285638  )
        53        Ni     tau(  53) = (   0.2420320   0.8169913   0.7491577  )
        54        Ni     tau(  54) = (   0.4893084   0.7542727   1.0713530  )
        55        Mn     tau(  55) = (   0.0085152   0.2729728   0.7435093  )
        56        Ni     tau(  56) = (   0.2558246   0.2079345   1.0692209  )
        57        Ni     tau(  57) = (   0.9991959   1.0516583   0.9110204  )
        58        Ni     tau(  58) = (   0.2490231   0.5149840   0.9098064  )
        59        Ni     tau(  59) = (   0.7373131   0.8159965   0.7500205  )
        60        Mn     tau(  60) = (   0.9859093   0.7511625   1.0766756  )
        61        Mn     tau(  61) = (   0.5085552   0.2755447   0.7433473  )
        62        Ni     tau(  62) = (   0.7532989   0.2074622   1.0697379  )
        63        Ni     tau(  63) = (   0.4981517   1.0523018   0.9097191  )
        64        Ni     tau(  64) = (   0.7469109   0.5147379   0.9108977  )
        65        P      tau(  65) = (   0.2119924   0.9497675   1.0657246  )
        66        P      tau(  66) = (   0.4579509   0.6252695   0.7539915  )
        67        P      tau(  67) = (   0.2855349   0.0724244   0.7540333  )
        68        P      tau(  68) = (   0.0381112   0.4032615   1.0629541  )
        69        O      tau(  69) = (   0.1352995   0.8818598   0.9297801  )
        70        O      tau(  70) = (   0.3789570   0.6924463   0.8899191  )
        71        O      tau(  71) = (   0.3610496   0.1419327   0.8898998  )
        72        O      tau(  72) = (   0.1179700   0.3356534   0.9295800  )
        73        O      tau(  73) = (   0.1524325   0.8608343   1.1899741  )
        74        O      tau(  74) = (   0.3994952   0.7128748   0.6285166  )
        75        O      tau(  75) = (   0.3426976   0.1634744   0.6300917  )
        76        O      tau(  76) = (   0.0989151   0.3155758   1.1869439  )
        77        O      tau(  77) = (   0.0942206   0.5581494   1.0621036  )
        78        O      tau(  78) = (   0.3506297   1.0014456   0.7545288  )
        79        O      tau(  79) = (   0.3750155   0.3983181   1.0535609  )
        80        O      tau(  80) = (   0.1228303   0.0764842   0.7646734  )
        81        O      tau(  81) = (   0.1204299   0.6293201   0.7659753  )
        82        O      tau(  82) = (   0.4000664   0.4708612   0.7564299  )
        83        O      tau(  83) = (   0.1483182   0.0216333   1.0644560  )
        84        O      tau(  84) = (   0.3748687   0.9435072   1.0562740  )
        85        P      tau(  85) = (   0.7056901   0.9492898   1.0669132  )
        86        P      tau(  86) = (   0.9575286   0.6220438   0.7567050  )
        87        P      tau(  87) = (   0.7847866   0.0710549   0.7548679  )
        88        P      tau(  88) = (   0.5377283   0.4083400   1.0639036  )
        89        O      tau(  89) = (   0.6295714   0.8788409   0.9311251  )
        90        O      tau(  90) = (   0.8781778   0.6902700   0.8901692  )
        91        O      tau(  91) = (   0.8603186   0.1398018   0.8911068  )
        92        O      tau(  92) = (   0.6174712   0.3389159   0.9308820  )
        93        O      tau(  93) = (   0.6471291   0.8583376   1.1905493  )
        94        O      tau(  94) = (   0.8962302   0.7094244   0.6329007  )
        95        O      tau(  95) = (   0.8420493   0.1616933   0.6305239  )
        96        O      tau(  96) = (   0.5995227   0.3203391   1.1875050  )
        97        O      tau(  97) = (   0.5932354   0.5636910   1.0620921  )
        98        O      tau(  98) = (   0.8487155   0.9994995   0.7556213  )
        99        O      tau(  99) = (   0.8751772   0.3959680   1.0535564  )
       100        O      tau( 100) = (   0.6223291   0.0767949   0.7651476  )
       101        O      tau( 101) = (   0.6209785   0.6292365   0.7652951  )
       102        O      tau( 102) = (   0.9010178   0.4674118   0.7581935  )
       103        O      tau( 103) = (   0.6430869   0.0213354   1.0652560  )
       104        O      tau( 104) = (   0.8684566   0.9446034   1.0560219  )
       105        Ni     tau( 105) = (   0.2418877   0.7990605   1.3774994  )
       106        Ni     tau( 106) = (   0.4859924   0.7291101   1.7127883  )
       107        Mn     tau( 107) = (   0.0074091   0.2584581   1.3749705  )
       108        Ni     tau( 108) = (   0.2425157   0.1970216   1.6824860  )
       109        Ni     tau( 109) = (   0.9982898   1.0343952   1.5373768  )
       110        Ni     tau( 110) = (   0.2455541   0.5002357   1.5473962  )
       111        Ni     tau( 111) = (   0.7364741   0.7981604   1.3766198  )
       112        Mn     tau( 112) = (   0.9933806   0.7362827   1.7012765  )
       113        Mn     tau( 113) = (   0.5061773   0.2597092   1.3733878  )
       114        Ni     tau( 114) = (   0.7390624   0.1911087   1.6822626  )
       115        Ni     tau( 115) = (   0.4977171   1.0337782   1.5386589  )
       116        Ni     tau( 116) = (   0.7401814   0.4951798   1.5429972  )
       117        P      tau( 117) = (   0.2103734   0.9343735   1.6940579  )
       118        P      tau( 118) = (   0.4554029   0.6062738   1.3832147  )
       119        P      tau( 119) = (   0.2849489   0.0556490   1.3793979  )
       120        P      tau( 120) = (   0.0290749   0.3809918   1.7035602  )
       121        O      tau( 121) = (   0.1355154   0.8685926   1.5530534  )
       122        O      tau( 122) = (   0.3774347   0.6768570   1.5167281  )
       123        O      tau( 123) = (   0.3598942   0.1250008   1.5151379  )
       124        O      tau( 124) = (   0.1107954   0.3275508   1.5594841  )
       125        O      tau( 125) = (   0.1459723   0.8429241   1.8126700  )
       126        O      tau( 126) = (   0.3976183   0.6919918   1.2555103  )
       127        O      tau( 127) = (   0.3429937   0.1462538   1.2552325  )
       128        O      tau( 128) = (   0.0910722   0.2838530   1.8157905  )
       129        O      tau( 129) = (   0.0790378   0.5396957   1.7066292  )
       130        O      tau( 130) = (   0.3490860   0.9846372   1.3803291  )
       131        O      tau( 131) = (   0.3685320   0.3757119   1.6809527  )
       132        O      tau( 132) = (   0.1220401   0.0632085   1.3908914  )
       133        O      tau( 133) = (   0.1180502   0.6108095   1.4007634  )
       134        O      tau( 134) = (   0.3961976   0.4519943   1.3871462  )
       135        O      tau( 135) = (   0.1486504   0.0072842   1.6926096  )
       136        O      tau( 136) = (   0.3735002   0.9279144   1.6865291  )
       137        P      tau( 137) = (   0.7062277   0.9249542   1.6906995  )
       138        P      tau( 138) = (   0.9553712   0.6030053   1.3890406  )
       139        P      tau( 139) = (   0.7840082   0.0540629   1.3791216  )
       140        P      tau( 140) = (   0.5317123   0.3818426   1.7010624  )
       141        O      tau( 141) = (   0.6319685   0.8674441   1.5474648  )
       142        O      tau( 142) = (   0.8763482   0.6697573   1.5237027  )
       143        O      tau( 143) = (   0.8595380   0.1221826   1.5157410  )
       144        O      tau( 144) = (   0.6117506   0.3206324   1.5574399  )
       145        O      tau( 145) = (   0.6505933   0.8256672   1.8056400  )
       146        O      tau( 146) = (   0.8964847   0.6918028   1.2646706  )
       147        O      tau( 147) = (   0.8420613   0.1459611   1.2558217  )
       148        O      tau( 148) = (   0.5904161   0.2827938   1.8138958  )
       149        O      tau( 149) = (   0.5904972   0.5368025   1.6958113  )
       150        O      tau( 150) = (   0.8484323   0.9829177   1.3785021  )
       151        O      tau( 151) = (   0.8659078   0.3735192   1.6844181  )
       152        O      tau( 152) = (   0.6215468   0.0617340   1.3908597  )
       153        O      tau( 153) = (   0.6186538   0.6093341   1.3943007  )
       154        O      tau( 154) = (   0.8974697   0.4488583   1.3875570  )
       155        O      tau( 155) = (   0.6478825  -0.0004503   1.6955159  )
       156        O      tau( 156) = (   0.8711649   0.9215713   1.6818757  )
       157        O      tau( 157) = (   0.3651639   0.6449523   1.8366945  )
       158        H      tau( 158) = (   0.2901703   0.7091622   1.8682131  )

     -------------------------------------------------
     Parameters for Dispersion (Grimme-D2) Correction:
     -------------------------------------------------
       atom      VdW radius       C_6     

        Ni         2.952        374.666
        Mn         2.952        374.666
        P          3.222        271.980
        O          2.536         24.284
        H          1.892          4.857

     number of k points=     1  Gaussian smearing, width (Ry)=  0.0100
                       cart. coord. in units 2pi/alat
        k(    1) = (   0.0000000   0.0000000   0.0000000), wk =   1.0000000

     Dense  grid:  1979026 G-vectors     FFT dimensions: ( 128, 144, 450)

     Smooth grid:   500628 G-vectors     FFT dimensions: (  81,  90, 288)

     Estimated max dynamical RAM per process >     333.40 MB

     Estimated total dynamical RAM >      20.84 GB

     Check: negative core charge=   -0.000002
     Generating pointlists ...
     new r_m :   0.0794 (alat units)  1.4172 (a.u.) for type    1
     new r_m :   0.0884 (alat units)  1.5790 (a.u.) for type    2
     new r_m :   0.0664 (alat units)  1.1846 (a.u.) for type    3
     new r_m :   0.0427 (alat units)  0.7632 (a.u.) for type    4
     new r_m :   0.0427 (alat units)  0.7632 (a.u.) for type    5

     Initial potential from superposition of free atoms

     starting charge    1107.8886, renormalised to    1108.0000

     negative rho (up, down):  1.527E-03 4.669E-04
 
     Adding external electric field

     Computed dipole along edir(3) : 
        Dipole                1.6366 Ry au,          4.1597 Debye
        Dipole field          0.0010 Ry au, 
 
        Potential amp.       -0.1073 Ry
        Total length         54.7057 bohr
 
 
     Adding external electric field

     Computed dipole along edir(3) : 
        Dipole                1.6366 Ry au,          4.1597 Debye
        Dipole field          0.0010 Ry au, 
 
        Potential amp.       -0.1073 Ry
        Total length         54.7057 bohr
 
     Starting wfcs are  818 randomized atomic wfcs

     total cpu time spent up to now is       10.9 secs

     Self-consistent Calculation

     iteration #  1     ecut=    50.00 Ry     beta= 0.10
     Davidson diagonalization with overlap
     ethr =  1.00E-02,  avg # of iterations =  5.5

     negative rho (up, down):  4.340E-01 4.632E-07
 
     Adding external electric field

     Computed dipole along edir(3) : 
        Dipole               -3.7511 Ry au,         -9.5345 Debye
        Dipole field         -0.0022 Ry au, 
 
        Potential amp.        0.2460 Ry
        Total length         54.7057 bohr
 
 
     Adding external electric field

     Computed dipole along edir(3) : 
        Dipole               -3.7511 Ry au,         -9.5345 Debye
        Dipole field         -0.0022 Ry au, 
 
        Potential amp.        0.2460 Ry
        Total length         54.7057 bohr
 

     total cpu time spent up to now is       39.9 secs

     total energy              =   -7857.01591789 Ry
     estimated scf accuracy    <     725.59724025 Ry

     total magnetization       =   222.00 Bohr mag/cell
     absolute magnetization    =   319.90 Bohr mag/cell

     iteration #  2     ecut=    50.00 Ry     beta= 0.10
     Davidson diagonalization with overlap
     ethr =  1.00E-02,  avg # of iterations =  2.0

     negative rho (up, down):  4.106E-01 2.685E-07
 
     Adding external electric field

     Computed dipole along edir(3) : 
        Dipole               -2.5075 Ry au,         -6.3734 Debye
        Dipole field         -0.0015 Ry au, 
 
        Potential amp.        0.1645 Ry
        Total length         54.7057 bohr
 
 
     Adding external electric field

     Computed dipole along edir(3) : 
        Dipole               -2.5075 Ry au,         -6.3734 Debye
        Dipole field         -0.0015 Ry au, 
 
        Potential amp.        0.1645 Ry
        Total length         54.7057 bohr
 

     total cpu time spent up to now is       57.2 secs

     total energy              =   -7938.95480070 Ry
     estimated scf accuracy    <     215.49442974 Ry

     total magnetization       =   167.68 Bohr mag/cell
     absolute magnetization    =   214.28 Bohr mag/cell

     iteration #  3     ecut=    50.00 Ry     beta= 0.10
     Davidson diagonalization with overlap
     ethr =  1.00E-02,  avg # of iterations =  1.5

     negative rho (up, down):  3.678E-01 2.038E-07
 
     Adding external electric field

     Computed dipole along edir(3) : 
        Dipole               -2.1767 Ry au,         -5.5327 Debye
        Dipole field         -0.0013 Ry au, 
 
        Potential amp.        0.1428 Ry
        Total length         54.7057 bohr
 
 
     Adding external electric field

     Computed dipole along edir(3) : 
        Dipole               -2.1767 Ry au,         -5.5327 Debye
        Dipole field         -0.0013 Ry au, 
 
        Potential amp.        0.1428 Ry
        Total length         54.7057 bohr
 

     total cpu time spent up to now is       71.1 secs

     total energy              =   -7967.84463686 Ry
     estimated scf accuracy    <     104.64457578 Ry

     total magnetization       =   144.04 Bohr mag/cell
     absolute magnetization    =   193.03 Bohr mag/cell

     iteration #  4     ecut=    50.00 Ry     beta= 0.10
     Davidson diagonalization with overlap
     ethr =  9.44E-03,  avg # of iterations =  1.0

     negative rho (up, down):  2.931E-01 2.530E-08
 
     Adding external electric field

     Computed dipole along edir(3) : 
        Dipole               -1.9683 Ry au,         -5.0028 Debye
        Dipole field         -0.0012 Ry au, 
 
        Potential amp.        0.1291 Ry
        Total length         54.7057 bohr
 
 
     Adding external electric field

     Computed dipole along edir(3) : 
        Dipole               -1.9683 Ry au,         -5.0028 Debye
        Dipole field         -0.0012 Ry au, 
 
        Potential amp.        0.1291 Ry
        Total length         54.7057 bohr
 

     total cpu time spent up to now is       83.8 secs

     total energy              =   -8000.17033788 Ry
     estimated scf accuracy    <      85.56993176 Ry

     total magnetization       =   128.85 Bohr mag/cell
     absolute magnetization    =   179.23 Bohr mag/cell

     iteration #  5     ecut=    50.00 Ry     beta= 0.10
     Davidson diagonalization with overlap
     ethr =  7.72E-03,  avg # of iterations =  1.0

     negative rho (up, down):  6.591E-02 6.832E-10
 
     Adding external electric field

     Computed dipole along edir(3) : 
        Dipole               -1.5511 Ry au,         -3.9425 Debye
        Dipole field         -0.0009 Ry au, 
 
        Potential amp.        0.1017 Ry
        Total length         54.7057 bohr
 
 
     Adding external electric field

     Computed dipole along edir(3) : 
        Dipole               -1.5511 Ry au,         -3.9425 Debye
        Dipole field         -0.0009 Ry au, 
 
        Potential amp.        0.1017 Ry
        Total length         54.7057 bohr
 

     total cpu time spent up to now is       97.0 secs

     total energy              =   -8058.61323594 Ry
     estimated scf accuracy    <      69.39254722 Ry

     total magnetization       =   106.56 Bohr mag/cell
     absolute magnetization    =   160.56 Bohr mag/cell

     iteration #  6     ecut=    50.00 Ry     beta= 0.10
     Davidson diagonalization with overlap
     ethr =  6.26E-03,  avg # of iterations =  1.0

     negative rho (up, down):  1.064E-03 1.868E-03
 
     Adding external electric field

     Computed dipole along edir(3) : 
        Dipole               -1.1342 Ry au,         -2.8829 Debye
        Dipole field         -0.0007 Ry au, 
 
        Potential amp.        0.0744 Ry
        Total length         54.7057 bohr
 
 
     Adding external electric field

     Computed dipole along edir(3) : 
        Dipole               -1.1342 Ry au,         -2.8829 Debye
        Dipole field         -0.0007 Ry au, 
 
        Potential amp.        0.0744 Ry
        Total length         54.7057 bohr
 

     total cpu time spent up to now is      110.0 secs

     total energy              =   -8075.97930074 Ry
     estimated scf accuracy    <      19.50151930 Ry

     total magnetization       =   100.00 Bohr mag/cell
     absolute magnetization    =   135.34 Bohr mag/cell

     iteration #  7     ecut=    50.00 Ry     beta= 0.10
     Davidson diagonalization with overlap
     ethr =  1.76E-03,  avg # of iterations =  6.0

     negative rho (up, down):  1.070E-03 1.877E-03
 
     Adding external electric field

     Computed dipole along edir(3) : 
        Dipole               -1.1309 Ry au,         -2.8744 Debye
        Dipole field         -0.0007 Ry au, 
 
        Potential amp.        0.0742 Ry
        Total length         54.7057 bohr
 
 
     Adding external electric field

     Computed dipole along edir(3) : 
        Dipole               -1.1309 Ry au,         -2.8744 Debye
        Dipole field         -0.0007 Ry au, 
 
        Potential amp.        0.0742 Ry
        Total length         54.7057 bohr
 

     total cpu time spent up to now is      131.9 secs

     total energy              =   -8078.77541751 Ry
     estimated scf accuracy    <      28.79155672 Ry

     total magnetization       =    69.84 Bohr mag/cell
     absolute magnetization    =    87.59 Bohr mag/cell

     iteration #  8     ecut=    50.00 Ry     beta= 0.10
     Davidson diagonalization with overlap
     ethr =  1.76E-03,  avg # of iterations =  1.0

     negative rho (up, down):  9.596E-04 1.880E-03
 
     Adding external electric field

     Computed dipole along edir(3) : 
        Dipole               -1.1229 Ry au,         -2.8542 Debye
        Dipole field         -0.0007 Ry au, 
 
        Potential amp.        0.0737 Ry
        Total length         54.7057 bohr
 
 
     Adding external electric field

     Computed dipole along edir(3) : 
        Dipole               -1.1229 Ry au,         -2.8542 Debye
        Dipole field         -0.0007 Ry au, 
 
        Potential amp.        0.0737 Ry
        Total length         54.7057 bohr
 

     total cpu time spent up to now is      145.5 secs

     total energy              =   -8079.04201888 Ry
     estimated scf accuracy    <      28.73746377 Ry

     total magnetization       =    69.89 Bohr mag/cell
     absolute magnetization    =    87.16 Bohr mag/cell

     iteration #  9     ecut=    50.00 Ry     beta= 0.10
     Davidson diagonalization with overlap
     ethr =  1.76E-03,  avg # of iterations =  1.0

     negative rho (up, down):  9.792E-04 1.912E-03
 
     Adding external electric field

     Computed dipole along edir(3) : 
        Dipole               -1.1200 Ry au,         -2.8469 Debye
        Dipole field         -0.0007 Ry au, 
 
        Potential amp.        0.0735 Ry
        Total length         54.7057 bohr
 
 
     Adding external electric field

     Computed dipole along edir(3) : 
        Dipole               -1.1200 Ry au,         -2.8469 Debye
        Dipole field         -0.0007 Ry au, 
 
        Potential amp.        0.0735 Ry
        Total length         54.7057 bohr
 

     total cpu time spent up to now is      159.4 secs

     total energy              =   -8078.93272719 Ry
     estimated scf accuracy    <      32.68808472 Ry

     total magnetization       =    68.06 Bohr mag/cell
     absolute magnetization    =    85.16 Bohr mag/cell

     iteration # 10     ecut=    50.00 Ry     beta= 0.10
     Davidson diagonalization with overlap
     ethr =  1.76E-03,  avg # of iterations =  1.0

     negative rho (up, down):  7.532E-04 1.415E-03
 
     Adding external electric field

     Computed dipole along edir(3) : 
        Dipole               -1.1382 Ry au,         -2.8931 Debye
        Dipole field         -0.0007 Ry au, 
 
        Potential amp.        0.0747 Ry
        Total length         54.7057 bohr
 
 
     Adding external electric field

     Computed dipole along edir(3) : 
        Dipole               -1.1382 Ry au,         -2.8931 Debye
        Dipole field         -0.0007 Ry au, 
 
        Potential amp.        0.0747 Ry
        Total length         54.7057 bohr
 

     total cpu time spent up to now is      172.6 secs

     total energy              =   -8078.74996856 Ry
     estimated scf accuracy    <      28.90580495 Ry

     total magnetization       =    69.62 Bohr mag/cell
     absolute magnetization    =    86.09 Bohr mag/cell

     iteration # 11     ecut=    50.00 Ry     beta= 0.10
     Davidson diagonalization with overlap
     ethr =  1.76E-03,  avg # of iterations =  1.0

     negative rho (up, down):  7.819E-04 1.313E-03
 
     Adding external electric field

     Computed dipole along edir(3) : 
        Dipole               -1.2043 Ry au,         -3.0611 Debye
        Dipole field         -0.0007 Ry au, 
 
        Potential amp.        0.0790 Ry
        Total length         54.7057 bohr
 
 
     Adding external electric field

     Computed dipole along edir(3) : 
        Dipole               -1.2043 Ry au,         -3.0611 Debye
        Dipole field         -0.0007 Ry au, 
 
        Potential amp.        0.0790 Ry
        Total length         54.7057 bohr
 

     total cpu time spent up to now is      186.4 secs

     total energy              =   -8078.22099629 Ry
     estimated scf accuracy    <      24.41983430 Ry

     total magnetization       =    70.75 Bohr mag/cell
     absolute magnetization    =    86.02 Bohr mag/cell

     iteration # 12     ecut=    50.00 Ry     beta= 0.10
     Davidson diagonalization with overlap
     ethr =  1.76E-03,  avg # of iterations =  1.0

     negative rho (up, down):  1.128E-03 2.142E-03
 
     Adding external electric field

     Computed dipole along edir(3) : 
        Dipole               -1.1504 Ry au,         -2.9240 Debye
        Dipole field         -0.0007 Ry au, 
 
        Potential amp.        0.0755 Ry
        Total length         54.7057 bohr
 
 
     Adding external electric field

     Computed dipole along edir(3) : 
        Dipole               -1.1504 Ry au,         -2.9240 Debye
        Dipole field         -0.0007 Ry au, 
 
        Potential amp.        0.0755 Ry
        Total length         54.7057 bohr
 

     total cpu time spent up to now is      200.1 secs

     total energy              =   -8078.34543860 Ry
     estimated scf accuracy    <      14.19643546 Ry

     total magnetization       =    83.82 Bohr mag/cell
     absolute magnetization    =    95.18 Bohr mag/cell

     iteration # 13     ecut=    50.00 Ry     beta= 0.10
     Davidson diagonalization with overlap
     ethr =  1.28E-03,  avg # of iterations =  1.0

     negative rho (up, down):  1.673E-03 3.709E-03
 
     Adding external electric field

     Computed dipole along edir(3) : 
        Dipole               -1.0905 Ry au,         -2.7719 Debye
        Dipole field         -0.0007 Ry au, 
 
        Potential amp.        0.0715 Ry
        Total length         54.7057 bohr
 
 
     Adding external electric field

     Computed dipole along edir(3) : 
        Dipole               -1.0905 Ry au,         -2.7719 Debye
        Dipole field         -0.0007 Ry au, 
 
        Potential amp.        0.0715 Ry
        Total length         54.7057 bohr
 

     total cpu time spent up to now is      212.9 secs

     total energy              =   -8078.22595245 Ry
     estimated scf accuracy    <      11.37141001 Ry

     total magnetization       =    84.56 Bohr mag/cell
     absolute magnetization    =    95.22 Bohr mag/cell

     iteration # 14     ecut=    50.00 Ry     beta= 0.10
     Davidson diagonalization with overlap
     ethr =  1.03E-03,  avg # of iterations =  1.0

     negative rho (up, down):  1.965E-03 3.495E-03
 
     Adding external electric field

     Computed dipole along edir(3) : 
        Dipole               -1.1214 Ry au,         -2.8502 Debye
        Dipole field         -0.0007 Ry au, 
 
        Potential amp.        0.0735 Ry
        Total length         54.7057 bohr
 
 
     Adding external electric field

     Computed dipole along edir(3) : 
        Dipole               -1.1214 Ry au,         -2.8502 Debye
        Dipole field         -0.0007 Ry au, 
 
        Potential amp.        0.0735 Ry
        Total length         54.7057 bohr
 

     total cpu time spent up to now is      226.3 secs

     total energy              =   -8078.38280633 Ry
     estimated scf accuracy    <       4.97206404 Ry

     total magnetization       =    90.10 Bohr mag/cell
     absolute magnetization    =    98.94 Bohr mag/cell

     iteration # 15     ecut=    50.00 Ry     beta= 0.10
     Davidson diagonalization with overlap
     ethr =  4.49E-04,  avg # of iterations =  1.5

     negative rho (up, down):  1.790E-03 2.399E-03
 
     Adding external electric field

     Computed dipole along edir(3) : 
        Dipole               -1.1552 Ry au,         -2.9362 Debye
        Dipole field         -0.0007 Ry au, 
 
        Potential amp.        0.0758 Ry
        Total length         54.7057 bohr
 
 
     Adding external electric field

     Computed dipole along edir(3) : 
        Dipole               -1.1552 Ry au,         -2.9362 Debye
        Dipole field         -0.0007 Ry au, 
 
        Potential amp.        0.0758 Ry
        Total length         54.7057 bohr
 

     total cpu time spent up to now is      240.3 secs

     total energy              =   -8078.45085341 Ry
     estimated scf accuracy    <       3.69638111 Ry

     total magnetization       =    93.90 Bohr mag/cell
     absolute magnetization    =   101.12 Bohr mag/cell

     iteration # 16     ecut=    50.00 Ry     beta= 0.10
     Davidson diagonalization with overlap
     ethr =  3.34E-04,  avg # of iterations =  1.0

     negative rho (up, down):  1.653E-03 1.936E-03
 
     Adding external electric field

     Computed dipole along edir(3) : 
        Dipole               -1.1722 Ry au,         -2.9795 Debye
        Dipole field         -0.0007 Ry au, 
 
        Potential amp.        0.0769 Ry
        Total length         54.7057 bohr
 
 
     Adding external electric field

     Computed dipole along edir(3) : 
        Dipole               -1.1722 Ry au,         -2.9795 Debye
        Dipole field         -0.0007 Ry au, 
 
        Potential amp.        0.0769 Ry
        Total length         54.7057 bohr
 

     total cpu time spent up to now is      253.5 secs

     total energy              =   -8078.47518525 Ry
     estimated scf accuracy    <       3.54815917 Ry

     total magnetization       =    93.59 Bohr mag/cell
     absolute magnetization    =   101.24 Bohr mag/cell

     iteration # 17     ecut=    50.00 Ry     beta= 0.10
     Davidson diagonalization with overlap
     ethr =  3.20E-04,  avg # of iterations =  1.5

     negative rho (up, down):  1.657E-03 2.007E-03
 
     Adding external electric field

     Computed dipole along edir(3) : 
        Dipole               -1.1675 Ry au,         -2.9675 Debye
        Dipole field         -0.0007 Ry au, 
 
        Potential amp.        0.0766 Ry
        Total length         54.7057 bohr
 
 
     Adding external electric field

     Computed dipole along edir(3) : 
        Dipole               -1.1675 Ry au,         -2.9675 Debye
        Dipole field         -0.0007 Ry au, 
 
        Potential amp.        0.0766 Ry
        Total length         54.7057 bohr
 

     total cpu time spent up to now is      267.6 secs

     total energy              =   -8078.43003864 Ry
     estimated scf accuracy    <       4.00492935 Ry

     total magnetization       =    92.83 Bohr mag/cell
     absolute magnetization    =   100.59 Bohr mag/cell

     iteration # 18     ecut=    50.00 Ry     beta= 0.10
     Davidson diagonalization with overlap
     ethr =  3.20E-04,  avg # of iterations =  1.5

     negative rho (up, down):  1.938E-03 2.309E-03
 
     Adding external electric field

     Computed dipole along edir(3) : 
        Dipole               -1.1581 Ry au,         -2.9436 Debye
        Dipole field         -0.0007 Ry au, 
 
        Potential amp.        0.0760 Ry
        Total length         54.7057 bohr
 
 
     Adding external electric field

     Computed dipole along edir(3) : 
        Dipole               -1.1581 Ry au,         -2.9436 Debye
        Dipole field         -0.0007 Ry au, 
 
        Potential amp.        0.0760 Ry
        Total length         54.7057 bohr
 

     total cpu time spent up to now is      281.7 secs

     total energy              =   -8078.15280559 Ry
     estimated scf accuracy    <       3.61474406 Ry

     total magnetization       =    93.32 Bohr mag/cell
     absolute magnetization    =   101.26 Bohr mag/cell

     iteration # 19     ecut=    50.00 Ry     beta= 0.10
     Davidson diagonalization with overlap
     ethr =  3.20E-04,  avg # of iterations =  1.5

     negative rho (up, down):  1.445E-03 2.516E-03
 
     Adding external electric field

     Computed dipole along edir(3) : 
        Dipole               -1.0856 Ry au,         -2.7592 Debye
        Dipole field         -0.0007 Ry au, 
 
        Potential amp.        0.0712 Ry
        Total length         54.7057 bohr
 
 
     Adding external electric field

     Computed dipole along edir(3) : 
        Dipole               -1.0856 Ry au,         -2.7592 Debye
        Dipole field         -0.0007 Ry au, 
 
        Potential amp.        0.0712 Ry
        Total length         54.7057 bohr
 

     total cpu time spent up to now is      296.2 secs

     total energy              =   -8078.25632698 Ry
     estimated scf accuracy    <       1.52109886 Ry

     total magnetization       =    95.83 Bohr mag/cell
     absolute magnetization    =   104.98 Bohr mag/cell

     iteration # 20     ecut=    50.00 Ry     beta= 0.10
     Davidson diagonalization with overlap
     ethr =  1.37E-04,  avg # of iterations =  1.5

     negative rho (up, down):  9.848E-04 2.122E-03
 
     Adding external electric field

     Computed dipole along edir(3) : 
        Dipole               -1.0128 Ry au,         -2.5742 Debye
        Dipole field         -0.0006 Ry au, 
 
        Potential amp.        0.0664 Ry
        Total length         54.7057 bohr
 
 
     Adding external electric field

     Computed dipole along edir(3) : 
        Dipole               -1.0128 Ry au,         -2.5742 Debye
        Dipole field         -0.0006 Ry au, 
 
        Potential amp.        0.0664 Ry
        Total length         54.7057 bohr
 

     total cpu time spent up to now is      310.2 secs

     total energy              =   -8078.33834968 Ry
     estimated scf accuracy    <       0.94492294 Ry

     total magnetization       =    95.84 Bohr mag/cell
     absolute magnetization    =   103.91 Bohr mag/cell

     iteration # 21     ecut=    50.00 Ry     beta= 0.10
     Davidson diagonalization with overlap
     c_bands:  2 eigenvalues not converged
     ethr =  8.53E-05,  avg # of iterations = 10.5

     negative rho (up, down):  7.209E-04 1.883E-03
 
     Adding external electric field

     Computed dipole along edir(3) : 
        Dipole               -0.9407 Ry au,         -2.3909 Debye
        Dipole field         -0.0006 Ry au, 
 
        Potential amp.        0.0617 Ry
        Total length         54.7057 bohr
 
 
     Adding external electric field

     Computed dipole along edir(3) : 
        Dipole               -0.9407 Ry au,         -2.3909 Debye
        Dipole field         -0.0006 Ry au, 
 
        Potential amp.        0.0617 Ry
        Total length         54.7057 bohr
 

     total cpu time spent up to now is      331.3 secs

     total energy              =   -8078.38711372 Ry
     estimated scf accuracy    <       0.78019610 Ry

     total magnetization       =    97.39 Bohr mag/cell
     absolute magnetization    =   103.36 Bohr mag/cell

     iteration # 22     ecut=    50.00 Ry     beta= 0.10
     Davidson diagonalization with overlap
     ethr =  7.04E-05,  avg # of iterations =  1.5

     negative rho (up, down):  6.933E-04 1.844E-03
 
     Adding external electric field

     Computed dipole along edir(3) : 
        Dipole               -0.9612 Ry au,         -2.4430 Debye
        Dipole field         -0.0006 Ry au, 
 
        Potential amp.        0.0630 Ry
        Total length         54.7057 bohr
 
 
     Adding external electric field

     Computed dipole along edir(3) : 
        Dipole               -0.9612 Ry au,         -2.4430 Debye
        Dipole field         -0.0006 Ry au, 
 
        Potential amp.        0.0630 Ry
        Total length         54.7057 bohr
 

     total cpu time spent up to now is      345.2 secs

     total energy              =   -8078.38030906 Ry
     estimated scf accuracy    <       1.37277522 Ry

     total magnetization       =    95.96 Bohr mag/cell
     absolute magnetization    =   100.75 Bohr mag/cell

     iteration # 23     ecut=    50.00 Ry     beta= 0.10
     Davidson diagonalization with overlap
     ethr =  7.04E-05,  avg # of iterations =  1.0

     negative rho (up, down):  5.581E-04 1.198E-03
 
     Adding external electric field

     Computed dipole along edir(3) : 
        Dipole               -1.0081 Ry au,         -2.5624 Debye
        Dipole field         -0.0006 Ry au, 
 
        Potential amp.        0.0661 Ry
        Total length         54.7057 bohr
 
 
     Adding external electric field

     Computed dipole along edir(3) : 
        Dipole               -1.0081 Ry au,         -2.5624 Debye
        Dipole field         -0.0006 Ry au, 
 
        Potential amp.        0.0661 Ry
        Total length         54.7057 bohr
 

     total cpu time spent up to now is      358.9 secs

     total energy              =   -8078.43888946 Ry
     estimated scf accuracy    <       1.25072241 Ry

     total magnetization       =    95.52 Bohr mag/cell
     absolute magnetization    =   100.54 Bohr mag/cell

     iteration # 24     ecut=    50.00 Ry     beta= 0.10
     Davidson diagonalization with overlap
     ethr =  7.04E-05,  avg # of iterations =  1.5

     negative rho (up, down):  5.219E-04 1.347E-03
 
     Adding external electric field

     Computed dipole along edir(3) : 
        Dipole               -0.9943 Ry au,         -2.5273 Debye
        Dipole field         -0.0006 Ry au, 
 
        Potential amp.        0.0652 Ry
        Total length         54.7057 bohr
 
 
     Adding external electric field

     Computed dipole along edir(3) : 
        Dipole               -0.9943 Ry au,         -2.5273 Debye
        Dipole field         -0.0006 Ry au, 
 
        Potential amp.        0.0652 Ry
        Total length         54.7057 bohr
 

     total cpu time spent up to now is      372.9 secs

     total energy              =   -8078.42007438 Ry
     estimated scf accuracy    <       2.14782177 Ry

     total magnetization       =    95.84 Bohr mag/cell
     absolute magnetization    =   100.62 Bohr mag/cell

     iteration # 25     ecut=    50.00 Ry     beta= 0.10
     Davidson diagonalization with overlap
     ethr =  7.04E-05,  avg # of iterations =  1.0

     negative rho (up, down):  6.845E-04 1.684E-03
 
     Adding external electric field

     Computed dipole along edir(3) : 
        Dipole               -1.0230 Ry au,         -2.6001 Debye
        Dipole field         -0.0006 Ry au, 
 
        Potential amp.        0.0671 Ry
        Total length         54.7057 bohr
 
 
     Adding external electric field

     Computed dipole along edir(3) : 
        Dipole               -1.0230 Ry au,         -2.6001 Debye
        Dipole field         -0.0006 Ry au, 
 
        Potential amp.        0.0671 Ry
        Total length         54.7057 bohr
 

     total cpu time spent up to now is      386.5 secs

     total energy              =   -8078.39105957 Ry
     estimated scf accuracy    <       1.67706529 Ry

     total magnetization       =    96.12 Bohr mag/cell
     absolute magnetization    =   100.80 Bohr mag/cell

     iteration # 26     ecut=    50.00 Ry     beta= 0.10
     Davidson diagonalization with overlap
     ethr =  7.04E-05,  avg # of iterations =  1.0

     negative rho (up, down):  5.331E-04 1.070E-03
 
     Adding external electric field

     Computed dipole along edir(3) : 
        Dipole               -0.9546 Ry au,         -2.4264 Debye
        Dipole field         -0.0006 Ry au, 
 
        Potential amp.        0.0626 Ry
        Total length         54.7057 bohr
 
 
     Adding external electric field

     Computed dipole along edir(3) : 
        Dipole               -0.9546 Ry au,         -2.4264 Debye
        Dipole field         -0.0006 Ry au, 
 
        Potential amp.        0.0626 Ry
        Total length         54.7057 bohr
 

     total cpu time spent up to now is      398.2 secs

     total energy              =   -8078.39364798 Ry
     estimated scf accuracy    <       1.22905051 Ry

     total magnetization       =    96.59 Bohr mag/cell
     absolute magnetization    =   101.58 Bohr mag/cell

     iteration # 27     ecut=    50.00 Ry     beta= 0.10
     Davidson diagonalization with overlap
     ethr =  7.04E-05,  avg # of iterations =  1.0

     negative rho (up, down):  2.106E-04 3.123E-04
 
     Adding external electric field

     Computed dipole along edir(3) : 
        Dipole               -0.9088 Ry au,         -2.3099 Debye
        Dipole field         -0.0005 Ry au, 
 
        Potential amp.        0.0596 Ry
        Total length         54.7057 bohr
 
 
     Adding external electric field

     Computed dipole along edir(3) : 
        Dipole               -0.9088 Ry au,         -2.3099 Debye
        Dipole field         -0.0005 Ry au, 
 
        Potential amp.        0.0596 Ry
        Total length         54.7057 bohr
 

     total cpu time spent up to now is      410.1 secs

     total energy              =   -8078.46839223 Ry
     estimated scf accuracy    <       0.55982210 Ry

     total magnetization       =    96.63 Bohr mag/cell
     absolute magnetization    =   101.93 Bohr mag/cell

     iteration # 28     ecut=    50.00 Ry     beta= 0.10
     Davidson diagonalization with overlap
     ethr =  5.05E-05,  avg # of iterations =  1.0

     negative rho (up, down):  1.937E-05 6.870E-06
 
     Adding external electric field

     Computed dipole along edir(3) : 
        Dipole               -0.8364 Ry au,         -2.1260 Debye
        Dipole field         -0.0005 Ry au, 
 
        Potential amp.        0.0549 Ry
        Total length         54.7057 bohr
 
 
     Adding external electric field

     Computed dipole along edir(3) : 
        Dipole               -0.8364 Ry au,         -2.1260 Debye
        Dipole field         -0.0005 Ry au, 
 
        Potential amp.        0.0549 Ry
        Total length         54.7057 bohr
 

     total cpu time spent up to now is      422.1 secs

     total energy              =   -8078.50802448 Ry
     estimated scf accuracy    <       0.62315713 Ry

     total magnetization       =    97.07 Bohr mag/cell
     absolute magnetization    =   101.66 Bohr mag/cell

     iteration # 29     ecut=    50.00 Ry     beta= 0.10
     Davidson diagonalization with overlap
     ethr =  5.05E-05,  avg # of iterations =  1.5

     negative rho (up, down):  8.402E-05 8.268E-05
 
     Adding external electric field

     Computed dipole along edir(3) : 
        Dipole               -0.8145 Ry au,         -2.0702 Debye
        Dipole field         -0.0005 Ry au, 
 
        Potential amp.        0.0534 Ry
        Total length         54.7057 bohr
 
 
     Adding external electric field

     Computed dipole along edir(3) : 
        Dipole               -0.8145 Ry au,         -2.0702 Debye
        Dipole field         -0.0005 Ry au, 
 
        Potential amp.        0.0534 Ry
        Total length         54.7057 bohr
 

     total cpu time spent up to now is      434.7 secs

     total energy              =   -8078.54751465 Ry
     estimated scf accuracy    <       0.49457769 Ry

     total magnetization       =    97.13 Bohr mag/cell
     absolute magnetization    =   100.53 Bohr mag/cell

     iteration # 30     ecut=    50.00 Ry     beta= 0.10
     Davidson diagonalization with overlap
     ethr =  4.46E-05,  avg # of iterations =  1.5

     negative rho (up, down):  2.091E-04 1.753E-04
 
     Adding external electric field

     Computed dipole along edir(3) : 
        Dipole               -0.7935 Ry au,         -2.0169 Debye
        Dipole field         -0.0005 Ry au, 
 
        Potential amp.        0.0520 Ry
        Total length         54.7057 bohr
 
 
     Adding external electric field

     Computed dipole along edir(3) : 
        Dipole               -0.7935 Ry au,         -2.0169 Debye
        Dipole field         -0.0005 Ry au, 
 
        Potential amp.        0.0520 Ry
        Total length         54.7057 bohr
 

     total cpu time spent up to now is      448.0 secs

     total energy              =   -8078.56349491 Ry
     estimated scf accuracy    <       0.22709379 Ry

     total magnetization       =    98.08 Bohr mag/cell
     absolute magnetization    =    99.81 Bohr mag/cell

     iteration # 31     ecut=    50.00 Ry     beta= 0.10
     Davidson diagonalization with overlap
     ethr =  2.05E-05,  avg # of iterations = 12.0

     negative rho (up, down):  2.083E-04 1.638E-04
 
     Adding external electric field

     Computed dipole along edir(3) : 
        Dipole               -0.8027 Ry au,         -2.0402 Debye
        Dipole field         -0.0005 Ry au, 
 
        Potential amp.        0.0526 Ry
        Total length         54.7057 bohr
 
 
     Adding external electric field

     Computed dipole along edir(3) : 
        Dipole               -0.8027 Ry au,         -2.0402 Debye
        Dipole field         -0.0005 Ry au, 
 
        Potential amp.        0.0526 Ry
        Total length         54.7057 bohr
 

     total cpu time spent up to now is      472.6 secs

     total energy              =   -8078.56486245 Ry
     estimated scf accuracy    <       0.17564849 Ry

     total magnetization       =    98.03 Bohr mag/cell
     absolute magnetization    =    99.33 Bohr mag/cell

     iteration # 32     ecut=    50.00 Ry     beta= 0.10
     Davidson diagonalization with overlap
     ethr =  1.59E-05,  avg # of iterations =  2.0

     negative rho (up, down):  3.186E-04 2.525E-04
 
     Adding external electric field

     Computed dipole along edir(3) : 
        Dipole               -0.8135 Ry au,         -2.0677 Debye
        Dipole field         -0.0005 Ry au, 
 
        Potential amp.        0.0534 Ry
        Total length         54.7057 bohr
 
 
     Adding external electric field

     Computed dipole along edir(3) : 
        Dipole               -0.8135 Ry au,         -2.0677 Debye
        Dipole field         -0.0005 Ry au, 
 
        Potential amp.        0.0534 Ry
        Total length         54.7057 bohr
 

     total cpu time spent up to now is      487.1 secs

     total energy              =   -8078.56437619 Ry
     estimated scf accuracy    <       0.11583963 Ry

     total magnetization       =    97.93 Bohr mag/cell
     absolute magnetization    =    99.14 Bohr mag/cell

     iteration # 33     ecut=    50.00 Ry     beta= 0.10
     Davidson diagonalization with overlap
     ethr =  1.05E-05,  avg # of iterations = 19.0

     negative rho (up, down):  4.133E-04 4.342E-04
 
     Adding external electric field

     Computed dipole along edir(3) : 
        Dipole               -0.8205 Ry au,         -2.0855 Debye
        Dipole field         -0.0005 Ry au, 
 
        Potential amp.        0.0538 Ry
        Total length         54.7057 bohr
 
 
     Adding external electric field

     Computed dipole along edir(3) : 
        Dipole               -0.8205 Ry au,         -2.0855 Debye
        Dipole field         -0.0005 Ry au, 
 
        Potential amp.        0.0538 Ry
        Total length         54.7057 bohr
 

     total cpu time spent up to now is      516.7 secs

     total energy              =   -8078.56668770 Ry
     estimated scf accuracy    <       0.08223594 Ry

     total magnetization       =    97.67 Bohr mag/cell
     absolute magnetization    =    98.85 Bohr mag/cell

     iteration # 34     ecut=    50.00 Ry     beta= 0.10
     Davidson diagonalization with overlap
     c_bands:  5 eigenvalues not converged
     ethr =  7.42E-06,  avg # of iterations = 11.0

     negative rho (up, down):  4.110E-04 4.788E-04
 
     Adding external electric field

     Computed dipole along edir(3) : 
        Dipole               -0.8281 Ry au,         -2.1049 Debye
        Dipole field         -0.0005 Ry au, 
 
        Potential amp.        0.0543 Ry
        Total length         54.7057 bohr
 
 
     Adding external electric field

     Computed dipole along edir(3) : 
        Dipole               -0.8281 Ry au,         -2.1049 Debye
        Dipole field         -0.0005 Ry au, 
 
        Potential amp.        0.0543 Ry
        Total length         54.7057 bohr
 

     total cpu time spent up to now is      536.6 secs

     total energy              =   -8078.56677137 Ry
     estimated scf accuracy    <       0.07347750 Ry

     total magnetization       =    97.34 Bohr mag/cell
     absolute magnetization    =    98.48 Bohr mag/cell

     iteration # 35     ecut=    50.00 Ry     beta= 0.10
     Davidson diagonalization with overlap
     ethr =  6.63E-06,  avg # of iterations =  2.0

     negative rho (up, down):  3.083E-04 2.900E-04
 
     Adding external electric field

     Computed dipole along edir(3) : 
        Dipole               -0.8100 Ry au,         -2.0587 Debye
        Dipole field         -0.0005 Ry au, 
 
        Potential amp.        0.0531 Ry
        Total length         54.7057 bohr
 
 
     Adding external electric field

     Computed dipole along edir(3) : 
        Dipole               -0.8100 Ry au,         -2.0587 Debye
        Dipole field         -0.0005 Ry au, 
 
        Potential amp.        0.0531 Ry
        Total length         54.7057 bohr
 

     total cpu time spent up to now is      550.3 secs

     total energy              =   -8078.56809160 Ry
     estimated scf accuracy    <       0.07680414 Ry

     total magnetization       =    97.38 Bohr mag/cell
     absolute magnetization    =    98.51 Bohr mag/cell

     iteration # 36     ecut=    50.00 Ry     beta= 0.10
     Davidson diagonalization with overlap
     ethr =  6.63E-06,  avg # of iterations =  2.0

     negative rho (up, down):  1.028E-05 1.072E-05
 
     Adding external electric field

     Computed dipole along edir(3) : 
        Dipole               -0.7781 Ry au,         -1.9779 Debye
        Dipole field         -0.0005 Ry au, 
 
        Potential amp.        0.0510 Ry
        Total length         54.7057 bohr
 
 
     Adding external electric field

     Computed dipole along edir(3) : 
        Dipole               -0.7781 Ry au,         -1.9779 Debye
        Dipole field         -0.0005 Ry au, 
 
        Potential amp.        0.0510 Ry
        Total length         54.7057 bohr
 

     total cpu time spent up to now is      564.7 secs

     total energy              =   -8078.56873918 Ry
     estimated scf accuracy    <       0.06872421 Ry

     total magnetization       =    97.32 Bohr mag/cell
     absolute magnetization    =    98.50 Bohr mag/cell

     iteration # 37     ecut=    50.00 Ry     beta= 0.10
     Davidson diagonalization with overlap
     ethr =  6.20E-06,  avg # of iterations =  1.5

     negative rho (up, down):  2.024E-04 1.902E-04
 
     Adding external electric field

     Computed dipole along edir(3) : 
        Dipole               -0.8006 Ry au,         -2.0350 Debye
        Dipole field         -0.0005 Ry au, 
 
        Potential amp.        0.0525 Ry
        Total length         54.7057 bohr
 
 
     Adding external electric field

     Computed dipole along edir(3) : 
        Dipole               -0.8006 Ry au,         -2.0350 Debye
        Dipole field         -0.0005 Ry au, 
 
        Potential amp.        0.0525 Ry
        Total length         54.7057 bohr
 

     total cpu time spent up to now is      578.1 secs

     total energy              =   -8078.56760040 Ry
     estimated scf accuracy    <       0.07297421 Ry

     total magnetization       =    97.37 Bohr mag/cell
     absolute magnetization    =    98.62 Bohr mag/cell

     iteration # 38     ecut=    50.00 Ry     beta= 0.10
     Davidson diagonalization with overlap
     ethr =  6.20E-06,  avg # of iterations =  1.5

     negative rho (up, down):  2.793E-04 2.511E-04
 
     Adding external electric field

     Computed dipole along edir(3) : 
        Dipole               -0.7968 Ry au,         -2.0253 Debye
        Dipole field         -0.0005 Ry au, 
 
        Potential amp.        0.0523 Ry
        Total length         54.7057 bohr
 
 
     Adding external electric field

     Computed dipole along edir(3) : 
        Dipole               -0.7968 Ry au,         -2.0253 Debye
        Dipole field         -0.0005 Ry au, 
 
        Potential amp.        0.0523 Ry
        Total length         54.7057 bohr
 

     total cpu time spent up to now is      591.4 secs

     total energy              =   -8078.56543486 Ry
     estimated scf accuracy    <       0.06770540 Ry

     total magnetization       =    97.33 Bohr mag/cell
     absolute magnetization    =    98.53 Bohr mag/cell

     iteration # 39     ecut=    50.00 Ry     beta= 0.10
     Davidson diagonalization with overlap
     ethr =  6.11E-06,  avg # of iterations =  2.0

     negative rho (up, down):  5.897E-04 5.230E-04
 
     Adding external electric field

     Computed dipole along edir(3) : 
        Dipole               -0.7824 Ry au,         -1.9887 Debye
        Dipole field         -0.0005 Ry au, 
 
        Potential amp.        0.0513 Ry
        Total length         54.7057 bohr
 
 
     Adding external electric field

     Computed dipole along edir(3) : 
        Dipole               -0.7824 Ry au,         -1.9887 Debye
        Dipole field         -0.0005 Ry au, 
 
        Potential amp.        0.0513 Ry
        Total length         54.7057 bohr
 

     total cpu time spent up to now is      605.7 secs

     total energy              =   -8078.56522680 Ry
     estimated scf accuracy    <       0.07446156 Ry

     total magnetization       =    97.36 Bohr mag/cell
     absolute magnetization    =    98.62 Bohr mag/cell

     iteration # 40     ecut=    50.00 Ry     beta= 0.10
     Davidson diagonalization with overlap
     ethr =  6.11E-06,  avg # of iterations =  1.5

     negative rho (up, down):  8.035E-04 7.021E-04
 
     Adding external electric field

     Computed dipole along edir(3) : 
        Dipole               -0.7547 Ry au,         -1.9184 Debye
        Dipole field         -0.0005 Ry au, 
 
        Potential amp.        0.0495 Ry
        Total length         54.7057 bohr
 
 
     Adding external electric field

     Computed dipole along edir(3) : 
        Dipole               -0.7547 Ry au,         -1.9184 Debye
        Dipole field         -0.0005 Ry au, 
 
        Potential amp.        0.0495 Ry
        Total length         54.7057 bohr
 

     total cpu time spent up to now is      619.3 secs

     total energy              =   -8078.56443358 Ry
     estimated scf accuracy    <       0.06477018 Ry

     total magnetization       =    97.32 Bohr mag/cell
     absolute magnetization    =    98.57 Bohr mag/cell

     iteration # 41     ecut=    50.00 Ry     beta= 0.10
     Davidson diagonalization with overlap
     ethr =  5.85E-06,  avg # of iterations =  2.0

     negative rho (up, down):  9.789E-04 8.419E-04
 
     Adding external electric field

     Computed dipole along edir(3) : 
        Dipole               -0.7552 Ry au,         -1.9196 Debye
        Dipole field         -0.0005 Ry au, 
 
        Potential amp.        0.0495 Ry
        Total length         54.7057 bohr
 
 
     Adding external electric field

     Computed dipole along edir(3) : 
        Dipole               -0.7552 Ry au,         -1.9196 Debye
        Dipole field         -0.0005 Ry au, 
 
        Potential amp.        0.0495 Ry
        Total length         54.7057 bohr
 

     total cpu time spent up to now is      633.6 secs

     total energy              =   -8078.56428674 Ry
     estimated scf accuracy    <       0.07084190 Ry

     total magnetization       =    97.38 Bohr mag/cell
     absolute magnetization    =    98.63 Bohr mag/cell

     iteration # 42     ecut=    50.00 Ry     beta= 0.10
     Davidson diagonalization with overlap
     ethr =  5.85E-06,  avg # of iterations =  1.5

     negative rho (up, down):  9.066E-04 6.164E-04
 
     Adding external electric field

     Computed dipole along edir(3) : 
        Dipole               -0.7128 Ry au,         -1.8116 Debye
        Dipole field         -0.0004 Ry au, 
 
        Potential amp.        0.0467 Ry
        Total length         54.7057 bohr
 
 
     Adding external electric field

     Computed dipole along edir(3) : 
        Dipole               -0.7128 Ry au,         -1.8116 Debye
        Dipole field         -0.0004 Ry au, 
 
        Potential amp.        0.0467 Ry
        Total length         54.7057 bohr
 

     total cpu time spent up to now is      647.0 secs

     total energy              =   -8078.56188958 Ry
     estimated scf accuracy    <       0.06713207 Ry

     total magnetization       =    97.36 Bohr mag/cell
     absolute magnetization    =    98.62 Bohr mag/cell

     iteration # 43     ecut=    50.00 Ry     beta= 0.10
     Davidson diagonalization with overlap
     ethr =  5.85E-06,  avg # of iterations =  2.0

     negative rho (up, down):  1.463E-03 1.208E-03
 
     Adding external electric field

     Computed dipole along edir(3) : 
        Dipole               -0.7344 Ry au,         -1.8665 Debye
        Dipole field         -0.0004 Ry au, 
 
        Potential amp.        0.0482 Ry
        Total length         54.7057 bohr
 
 
     Adding external electric field

     Computed dipole along edir(3) : 
        Dipole               -0.7344 Ry au,         -1.8665 Debye
        Dipole field         -0.0004 Ry au, 
 
        Potential amp.        0.0482 Ry
        Total length         54.7057 bohr
 

     total cpu time spent up to now is      661.5 secs

     total energy              =   -8078.56331456 Ry
     estimated scf accuracy    <       0.06736421 Ry

     total magnetization       =    97.43 Bohr mag/cell
     absolute magnetization    =    98.70 Bohr mag/cell

     iteration # 44     ecut=    50.00 Ry     beta= 0.10
     Davidson diagonalization with overlap
     ethr =  5.85E-06,  avg # of iterations =  1.5

     negative rho (up, down):  1.089E-03 8.455E-04
 
     Adding external electric field

     Computed dipole along edir(3) : 
        Dipole               -0.7711 Ry au,         -1.9598 Debye
        Dipole field         -0.0005 Ry au, 
 
        Potential amp.        0.0506 Ry
        Total length         54.7057 bohr
 
 
     Adding external electric field

     Computed dipole along edir(3) : 
        Dipole               -0.7711 Ry au,         -1.9598 Debye
        Dipole field         -0.0005 Ry au, 
 
        Potential amp.        0.0506 Ry
        Total length         54.7057 bohr
 

     total cpu time spent up to now is      674.7 secs

     total energy              =   -8078.56371502 Ry
     estimated scf accuracy    <       0.06412734 Ry

     total magnetization       =    97.31 Bohr mag/cell
     absolute magnetization    =    98.58 Bohr mag/cell

     iteration # 45     ecut=    50.00 Ry     beta= 0.10
     Davidson diagonalization with overlap
     ethr =  5.79E-06,  avg # of iterations =  1.5

     negative rho (up, down):  8.879E-04 7.202E-04
 
     Adding external electric field

     Computed dipole along edir(3) : 
        Dipole               -0.7502 Ry au,         -1.9067 Debye
        Dipole field         -0.0004 Ry au, 
 
        Potential amp.        0.0492 Ry
        Total length         54.7057 bohr
 
 
     Adding external electric field

     Computed dipole along edir(3) : 
        Dipole               -0.7502 Ry au,         -1.9067 Debye
        Dipole field         -0.0004 Ry au, 
 
        Potential amp.        0.0492 Ry
        Total length         54.7057 bohr
 

     total cpu time spent up to now is      688.5 secs

     total energy              =   -8078.56339857 Ry
     estimated scf accuracy    <       0.06396332 Ry

     total magnetization       =    97.37 Bohr mag/cell
     absolute magnetization    =    98.64 Bohr mag/cell

     iteration # 46     ecut=    50.00 Ry     beta= 0.10
     Davidson diagonalization with overlap
     ethr =  5.77E-06,  avg # of iterations =  1.5

     negative rho (up, down):  9.845E-04 8.259E-04
 
     Adding external electric field

     Computed dipole along edir(3) : 
        Dipole               -0.7544 Ry au,         -1.9174 Debye
        Dipole field         -0.0005 Ry au, 
 
        Potential amp.        0.0495 Ry
        Total length         54.7057 bohr
 
 
     Adding external electric field

     Computed dipole along edir(3) : 
        Dipole               -0.7544 Ry au,         -1.9174 Debye
        Dipole field         -0.0005 Ry au, 
 
        Potential amp.        0.0495 Ry
        Total length         54.7057 bohr
 

     total cpu time spent up to now is      701.7 secs

     total energy              =   -8078.56326741 Ry
     estimated scf accuracy    <       0.06202345 Ry

     total magnetization       =    97.30 Bohr mag/cell
     absolute magnetization    =    98.63 Bohr mag/cell

     iteration # 47     ecut=    50.00 Ry     beta= 0.10
     Davidson diagonalization with overlap
     ethr =  5.60E-06,  avg # of iterations =  1.5

     negative rho (up, down):  1.204E-03 9.880E-04
 
     Adding external electric field

     Computed dipole along edir(3) : 
        Dipole               -0.7512 Ry au,         -1.9092 Debye
        Dipole field         -0.0005 Ry au, 
 
        Potential amp.        0.0493 Ry
        Total length         54.7057 bohr
 
 
     Adding external electric field

     Computed dipole along edir(3) : 
        Dipole               -0.7512 Ry au,         -1.9092 Debye
        Dipole field         -0.0005 Ry au, 
 
        Potential amp.        0.0493 Ry
        Total length         54.7057 bohr
 

     total cpu time spent up to now is      719.7 secs

     total energy              =   -8078.56277878 Ry
     estimated scf accuracy    <       0.06069198 Ry

     total magnetization       =    97.28 Bohr mag/cell
     absolute magnetization    =    98.65 Bohr mag/cell

     iteration # 48     ecut=    50.00 Ry     beta= 0.10
     Davidson diagonalization with overlap
     ethr =  5.48E-06,  avg # of iterations =  1.5

     negative rho (up, down):  1.159E-03 1.090E-03
 
     Adding external electric field

     Computed dipole along edir(3) : 
        Dipole               -0.7810 Ry au,         -1.9850 Debye
        Dipole field         -0.0005 Ry au, 
 
        Potential amp.        0.0512 Ry
        Total length         54.7057 bohr
 
 
     Adding external electric field

     Computed dipole along edir(3) : 
        Dipole               -0.7810 Ry au,         -1.9850 Debye
        Dipole field         -0.0005 Ry au, 
 
        Potential amp.        0.0512 Ry
        Total length         54.7057 bohr
 

     total cpu time spent up to now is      732.6 secs

     total energy              =   -8078.56399602 Ry
     estimated scf accuracy    <       0.06181017 Ry

     total magnetization       =    97.27 Bohr mag/cell
     absolute magnetization    =    98.64 Bohr mag/cell

     iteration # 49     ecut=    50.00 Ry     beta= 0.10
     Davidson diagonalization with overlap
     ethr =  5.48E-06,  avg # of iterations =  1.5

     negative rho (up, down):  1.441E-03 1.400E-03
 
     Adding external electric field

     Computed dipole along edir(3) : 
        Dipole               -0.7823 Ry au,         -1.9884 Debye
        Dipole field         -0.0005 Ry au, 
 
        Potential amp.        0.0513 Ry
        Total length         54.7057 bohr
 
 
     Adding external electric field

     Computed dipole along edir(3) : 
        Dipole               -0.7823 Ry au,         -1.9884 Debye
        Dipole field         -0.0005 Ry au, 
 
        Potential amp.        0.0513 Ry
        Total length         54.7057 bohr
 

     total cpu time spent up to now is      745.6 secs

     total energy              =   -8078.56385961 Ry
     estimated scf accuracy    <       0.05849919 Ry

     total magnetization       =    97.26 Bohr mag/cell
     absolute magnetization    =    98.61 Bohr mag/cell

     iteration # 50     ecut=    50.00 Ry     beta= 0.10
     Davidson diagonalization with overlap
     ethr =  5.28E-06,  avg # of iterations =  1.0

     negative rho (up, down):  1.528E-03 1.550E-03
 
     Adding external electric field

     Computed dipole along edir(3) : 
        Dipole               -0.7689 Ry au,         -1.9543 Debye
        Dipole field         -0.0005 Ry au, 
 
        Potential amp.        0.0504 Ry
        Total length         54.7057 bohr
 
 
     Adding external electric field

     Computed dipole along edir(3) : 
        Dipole               -0.7689 Ry au,         -1.9543 Debye
        Dipole field         -0.0005 Ry au, 
 
        Potential amp.        0.0504 Ry
        Total length         54.7057 bohr
 

     total cpu time spent up to now is      757.9 secs

     total energy              =   -8078.56335706 Ry
     estimated scf accuracy    <       0.05813840 Ry

     total magnetization       =    97.26 Bohr mag/cell
     absolute magnetization    =    98.61 Bohr mag/cell

     iteration # 51     ecut=    50.00 Ry     beta= 0.10
     Davidson diagonalization with overlap
     ethr =  5.25E-06,  avg # of iterations =  1.5

     negative rho (up, down):  6.153E-04 7.957E-04
 
     Adding external electric field

     Computed dipole along edir(3) : 
        Dipole               -0.7635 Ry au,         -1.9405 Debye
        Dipole field         -0.0005 Ry au, 
 
        Potential amp.        0.0501 Ry
        Total length         54.7057 bohr
 
 
     Adding external electric field

     Computed dipole along edir(3) : 
        Dipole               -0.7635 Ry au,         -1.9405 Debye
        Dipole field         -0.0005 Ry au, 
 
        Potential amp.        0.0501 Ry
        Total length         54.7057 bohr
 

     total cpu time spent up to now is      770.7 secs

     total energy              =   -8078.56208449 Ry
     estimated scf accuracy    <       0.05749678 Ry

     total magnetization       =    97.27 Bohr mag/cell
     absolute magnetization    =    98.64 Bohr mag/cell

     iteration # 52     ecut=    50.00 Ry     beta= 0.10
     Davidson diagonalization with overlap
     ethr =  5.19E-06,  avg # of iterations =  1.0

     negative rho (up, down):  8.133E-04 9.253E-04
 
     Adding external electric field

     Computed dipole along edir(3) : 
        Dipole               -0.7511 Ry au,         -1.9092 Debye
        Dipole field         -0.0005 Ry au, 
 
        Potential amp.        0.0493 Ry
        Total length         54.7057 bohr
 
 
     Adding external electric field

     Computed dipole along edir(3) : 
        Dipole               -0.7511 Ry au,         -1.9092 Debye
        Dipole field         -0.0005 Ry au, 
 
        Potential amp.        0.0493 Ry
        Total length         54.7057 bohr
 

     total cpu time spent up to now is      783.1 secs

     total energy              =   -8078.56285234 Ry
     estimated scf accuracy    <       0.05803612 Ry

     total magnetization       =    97.21 Bohr mag/cell
     absolute magnetization    =    98.58 Bohr mag/cell

     iteration # 53     ecut=    50.00 Ry     beta= 0.10
     Davidson diagonalization with overlap
     ethr =  5.19E-06,  avg # of iterations =  1.5

     negative rho (up, down):  6.118E-04 7.277E-04
 
     Adding external electric field

     Computed dipole along edir(3) : 
        Dipole               -0.7549 Ry au,         -1.9188 Debye
        Dipole field         -0.0005 Ry au, 
 
        Potential amp.        0.0495 Ry
        Total length         54.7057 bohr
 
 
     Adding external electric field

     Computed dipole along edir(3) : 
        Dipole               -0.7549 Ry au,         -1.9188 Debye
        Dipole field         -0.0005 Ry au, 
 
        Potential amp.        0.0495 Ry
        Total length         54.7057 bohr
 

     total cpu time spent up to now is      795.9 secs

     total energy              =   -8078.56254097 Ry
     estimated scf accuracy    <       0.05900902 Ry

     total magnetization       =    97.27 Bohr mag/cell
     absolute magnetization    =    98.64 Bohr mag/cell

     iteration # 54     ecut=    50.00 Ry     beta= 0.10
     Davidson diagonalization with overlap
     ethr =  5.19E-06,  avg # of iterations =  1.0

     negative rho (up, down):  5.311E-04 6.375E-04
 
     Adding external electric field

     Computed dipole along edir(3) : 
        Dipole               -0.7534 Ry au,         -1.9150 Debye
        Dipole field         -0.0005 Ry au, 
 
        Potential amp.        0.0494 Ry
        Total length         54.7057 bohr
 
 
     Adding external electric field

     Computed dipole along edir(3) : 
        Dipole               -0.7534 Ry au,         -1.9150 Debye
        Dipole field         -0.0005 Ry au, 
 
        Potential amp.        0.0494 Ry
        Total length         54.7057 bohr
 

     total cpu time spent up to now is      808.1 secs

     total energy              =   -8078.56229149 Ry
     estimated scf accuracy    <       0.05781846 Ry

     total magnetization       =    97.24 Bohr mag/cell
     absolute magnetization    =    98.64 Bohr mag/cell

     iteration # 55     ecut=    50.00 Ry     beta= 0.10
     Davidson diagonalization with overlap
     ethr =  5.19E-06,  avg # of iterations =  1.5

     negative rho (up, down):  4.740E-04 6.641E-04
 
     Adding external electric field

     Computed dipole along edir(3) : 
        Dipole               -0.6832 Ry au,         -1.7366 Debye
        Dipole field         -0.0004 Ry au, 
 
        Potential amp.        0.0448 Ry
        Total length         54.7057 bohr
 
 
     Adding external electric field

     Computed dipole along edir(3) : 
        Dipole               -0.6832 Ry au,         -1.7366 Debye
        Dipole field         -0.0004 Ry au, 
 
        Potential amp.        0.0448 Ry
        Total length         54.7057 bohr
 

     total cpu time spent up to now is      821.2 secs

     total energy              =   -8078.55671062 Ry
     estimated scf accuracy    <       0.05700432 Ry

     total magnetization       =    97.24 Bohr mag/cell
     absolute magnetization    =    98.67 Bohr mag/cell

     iteration # 56     ecut=    50.00 Ry     beta= 0.10
     Davidson diagonalization with overlap
     ethr =  5.14E-06,  avg # of iterations =  2.0

     negative rho (up, down):  1.501E-03 1.926E-03
 
     Adding external electric field

     Computed dipole along edir(3) : 
        Dipole               -0.6129 Ry au,         -1.5578 Debye
        Dipole field         -0.0004 Ry au, 
 
        Potential amp.        0.0402 Ry
        Total length         54.7057 bohr
 
 
     Adding external electric field

     Computed dipole along edir(3) : 
        Dipole               -0.6129 Ry au,         -1.5578 Debye
        Dipole field         -0.0004 Ry au, 
 
        Potential amp.        0.0402 Ry
        Total length         54.7057 bohr
 

     total cpu time spent up to now is      835.4 secs

     total energy              =   -8078.55593614 Ry
     estimated scf accuracy    <       0.04995208 Ry

     total magnetization       =    97.28 Bohr mag/cell
     absolute magnetization    =    98.85 Bohr mag/cell

     iteration # 57     ecut=    50.00 Ry     beta= 0.10
     Davidson diagonalization with overlap
     ethr =  4.51E-06,  avg # of iterations =  2.0

     negative rho (up, down):  3.460E-03 3.834E-03
 
     Adding external electric field

     Computed dipole along edir(3) : 
        Dipole               -0.5039 Ry au,         -1.2807 Debye
        Dipole field         -0.0003 Ry au, 
 
        Potential amp.        0.0330 Ry
        Total length         54.7057 bohr
 
 
     Adding external electric field

     Computed dipole along edir(3) : 
        Dipole               -0.5039 Ry au,         -1.2807 Debye
        Dipole field         -0.0003 Ry au, 
 
        Potential amp.        0.0330 Ry
        Total length         54.7057 bohr
 

     total cpu time spent up to now is      849.0 secs

     total energy              =   -8078.55666789 Ry
     estimated scf accuracy    <       0.04284611 Ry

     total magnetization       =    97.31 Bohr mag/cell
     absolute magnetization    =    98.91 Bohr mag/cell

     iteration # 58     ecut=    50.00 Ry     beta= 0.10
     Davidson diagonalization with overlap
     ethr =  3.87E-06,  avg # of iterations = 12.5

     negative rho (up, down):  4.729E-03 5.267E-03
 
     Adding external electric field

     Computed dipole along edir(3) : 
        Dipole               -0.4706 Ry au,         -1.1962 Debye
        Dipole field         -0.0003 Ry au, 
 
        Potential amp.        0.0309 Ry
[...]
    -5.9999  -5.9844  -5.9627  -5.9443  -5.9000  -5.8878  -5.8752  -5.8546
    -5.8472  -5.8352  -5.8080  -5.7805  -5.7725  -5.7317  -5.7066  -5.6845
    -5.6803  -5.6355  -5.6191  -5.6085  -5.5960  -5.5885  -5.5705  -5.5497
    -5.5358  -5.5134  -5.5059  -5.4829  -5.4814  -5.4779  -5.4433  -5.3748
    -5.3520  -5.3098  -5.2727  -5.2599  -5.2582  -5.2512  -5.2396  -5.1704
    -5.1255  -5.1152  -5.0850  -5.0561  -5.0319  -5.0018  -4.9297  -4.9073
    -4.8796  -4.8272  -4.8210  -4.7989  -4.7932  -4.7545  -4.7414  -4.7051
    -4.6704  -4.6344  -4.5960  -4.5733  -4.5497  -4.4564  -4.4186  -4.3993
    -4.3952  -4.3817  -4.3635  -4.2990  -4.2697  -4.2329  -4.2280  -4.2114
    -4.1862  -4.1685  -4.1183  -4.0603  -4.0414  -3.9966  -3.9912  -3.9661
    -3.9036  -3.8676  -3.8437  -3.8377  -3.8190  -3.7538  -3.7456  -3.7413
    -3.7259  -3.7024  -3.6821  -3.6436  -3.6295  -3.6096  -3.6053  -3.5827
    -3.5457  -3.5343  -3.5276  -3.5130  -3.5026  -3.4896  -3.4555  -3.4324
    -3.4145  -3.3880  -3.3843  -3.3806  -3.3705  -3.3634  -3.3321  -3.3177
    -3.2933  -3.2866  -3.2772  -3.2413  -3.2220  -3.1992  -3.1701  -3.1515
    -3.1433  -3.0915  -3.0843  -3.0686  -3.0474  -3.0409  -3.0235  -3.0100
    -2.9822  -2.9549  -2.9280  -2.9027  -2.8742  -2.8604  -2.8501  -2.8282
    -2.8074  -2.7892  -2.7293  -2.7172  -2.7118  -2.6991  -2.6956  -2.6830
    -2.6706  -2.6568  -2.6537  -2.6305  -2.6114  -2.5994  -2.5826  -2.5782
    -2.5579  -2.5453  -2.5311  -2.5126  -2.5084  -2.5049  -2.4831  -2.4689
    -2.4380  -2.4221  -2.4050  -2.3906  -2.3807  -2.3429  -2.3410  -2.3196
    -2.3004  -2.2831  -2.2740  -2.2524  -2.2241  -2.2028  -2.1971  -2.1899
    -2.1595  -2.1459  -2.1318  -2.0994  -2.0821  -2.0592  -2.0450  -2.0323
    -2.0138  -1.9964  -1.9804  -1.9740  -1.9577  -1.9189  -1.8933  -1.8875
    -1.8783  -1.8644  -1.8601  -1.8411  -1.8359  -1.8208  -1.8068  -1.8002
    -1.7294  -1.6999  -1.6859  -1.6543  -1.6416  -1.6351  -1.6175  -1.5948
    -1.5936  -1.5873  -1.5727  -1.5402  -1.5325  -1.5246  -1.4817  -1.4505
    -1.4317  -1.4235  -1.3823  -1.3710  -1.3570  -1.3417  -1.3284  -1.3208
    -1.3069  -1.2882  -1.2554  -1.2284  -1.1882  -1.1719  -1.1505  -1.1049
    -1.0793  -1.0278  -1.0136  -1.0032  -0.9957  -0.8506  -0.8413  -0.8080
    -0.7417  -0.6372  -0.6228  -0.5731  -0.4647  -0.4220  -0.2837  -0.2181
     0.1712   0.1834   0.2271   0.2462   0.2538   0.2803   0.2982   0.3105
     0.3295   0.3342   0.3608   0.3692   0.3722   0.3791   0.3905   0.3966
     0.4021   0.4050   0.4197   0.4225   0.4357   0.4468   0.4575   0.4617
     0.4663   0.4718   0.4791   0.4830   0.4967   0.5053   0.5111   0.5228
     0.5252   0.5337   0.5485   0.5626   0.5672   0.5719   0.5887   0.5955
     0.6017   0.6167   0.6241   0.6306   0.6358   0.6450   0.6532   0.6575
     0.6677   0.6717   0.6933   0.6967   0.7113   0.7154   0.7238   0.7323
     0.7344   0.7513   0.7680   0.7714   0.7832   0.7949   0.8012   0.8125
     0.8159   0.8316   0.8416   0.8503   0.8572   0.8620   0.8671   0.8924
     0.8994   0.9530   0.9728   1.0194   1.0329   1.0505   1.1225   1.1418
     1.6799   1.7547   1.7743   1.8033   1.8166   1.8232   1.8336   1.8667
     1.8771   1.8997   1.9295   1.9552   1.9741   1.9884   2.0041   2.0333
     2.0464   2.0786   2.0812   2.1013   2.1026   2.1314   2.1352   2.1639
     2.1736   2.1905   2.1959   2.2079   2.2250   2.2446   2.2697   2.2784
     2.2901   2.2953   2.3226   2.3431   2.3555   2.3734   2.4357   2.4430
     2.4618   2.4753   2.4922   2.5060   2.5223   2.5320   2.5891   2.5966
     2.6105   2.6501   2.6869   2.7953   2.8195   2.8541   2.8616   3.5514
     3.5988   3.6865   3.7500   3.7796   3.8215   3.8268   3.8430   3.8748
     3.8794   3.9352   3.9439   3.9586   3.9937   3.9975   4.0145   4.0294
     4.0621   4.0768   4.0907   4.1000   4.1336   4.1502   4.1637   4.1993
     4.2058   4.2178   4.2425   4.2608   4.3016   4.6015   4.6986   4.7649
     4.7819   4.8513   4.8932   4.9190   4.9733   4.9865   5.0065   5.0570
     5.0715   5.0966   5.1441   5.1659   5.2061   5.2172   5.3864   6.1785
     6.3496   6.4412   6.5726   6.7046   6.7144   6.7516   6.8495   6.8728
     6.9469   6.9626   7.0085   7.0524   7.2189   7.2987   7.3431   7.3605
     7.3816   7.4226   7.4860   7.5134   7.5707   7.5885   7.7071   7.7138
     7.8257   7.8413   7.8873   7.9194   7.9508   7.9918   8.0156   8.0492
     8.0729   8.1020   8.1102   8.1608   8.1943   8.2088   8.2350   8.2831
     8.3009   8.3370   8.3615   8.3659   8.3847   8.4100   8.4232   8.4416
     8.4556   8.4752   8.5279   8.5596   8.5669   8.5772   8.6135   8.6441
     8.6700

     the Fermi energy is     1.6817 ev

!    total energy              =   -8078.55890456 Ry
     estimated scf accuracy    <       0.00000077 Ry
     smearing contrib. (-TS)   =      -0.02331452 Ry
     internal energy E=F+TS    =   -8078.53559004 Ry

     The total energy is F=E-TS. E is the sum of the following terms:
     one-electron contribution =  -94695.71360405 Ry
     hartree contribution      =   47932.48247378 Ry
     xc contribution           =   -2177.39457664 Ry
     ewald contribution        =   40863.86052139 Ry
     Dispersion Correction     =      -1.77041867 Ry
     electric field correction =       0.00001414 Ry

     total magnetization       =    97.44 Bohr mag/cell
     absolute magnetization    =    98.65 Bohr mag/cell

     convergence has been achieved in  89 iterations

     negative rho (up, down):  1.163E-03 6.260E-04

     Forces acting on atoms (cartesian axes, Ry/au):

     atom    1 type  1   force =     0.02408828   -0.01759895    0.02016283
     atom    2 type  1   force =    -0.00195038    0.00027882   -0.00549736
     atom    3 type  2   force =    -0.03024887   -0.01569184   -0.00829440
     atom    4 type  1   force =     0.00182255   -0.00339106   -0.00454911
     atom    5 type  1   force =    -0.00372772    0.00230811   -0.00172125
     atom    6 type  1   force =     0.00240362    0.00732323   -0.00412862
     atom    7 type  1   force =     0.03196037   -0.01948611    0.01792641
     atom    8 type  2   force =    -0.00180548    0.00026104   -0.00894802
     atom    9 type  2   force =    -0.02888485   -0.01536770   -0.00834356
     atom   10 type  1   force =     0.00206352   -0.00310703   -0.00430512
     atom   11 type  1   force =    -0.00344254    0.00274800   -0.00091327
     atom   12 type  1   force =     0.00372232    0.00673435   -0.00363925
     atom   13 type  3   force =     0.00212880    0.00073490   -0.00762667
     atom   14 type  3   force =    -0.02976321    0.04990997   -0.06595800
     atom   15 type  3   force =     0.03465901    0.03760022   -0.05982200
     atom   16 type  3   force =    -0.00441519    0.00308981   -0.00098302
     atom   17 type  4   force =    -0.00202218    0.00135516    0.00283440
     atom   18 type  4   force =    -0.00162557   -0.00513748    0.02741324
     atom   19 type  4   force =     0.00396760    0.00280998    0.02948871
     atom   20 type  4   force =     0.00006538   -0.00272876   -0.00480773
     atom   21 type  4   force =    -0.00301180   -0.00228058    0.00338912
     atom   22 type  4   force =     0.00470977   -0.00323948    0.03411276
     atom   23 type  4   force =    -0.00596208   -0.00105488    0.03242833
     atom   24 type  4   force =     0.00062854   -0.00095754    0.00003317
     atom   25 type  4   force =    -0.00133320    0.00078397    0.00220141
     atom   26 type  4   force =    -0.01449067   -0.02273722   -0.00181141
     atom   27 type  4   force =     0.00179426   -0.00071828    0.00121365
     atom   28 type  4   force =    -0.01766634    0.00340877    0.00121737
     atom   29 type  4   force =     0.02070798   -0.00460427    0.00829816
     atom   30 type  4   force =     0.01239682   -0.03414632    0.00113344
     atom   31 type  4   force =     0.00054367    0.00089776    0.00232960
     atom   32 type  4   force =    -0.00213829    0.00007293    0.00268257
     atom   33 type  3   force =    -0.00054098   -0.00161637   -0.00510528
     atom   34 type  3   force =    -0.03022958    0.05982048   -0.08314363
     atom   35 type  3   force =     0.03460440    0.03340611   -0.05925678
     atom   36 type  3   force =    -0.00387073    0.00469856   -0.00076237
     atom   37 type  4   force =    -0.00110004    0.00132560    0.00307582
     atom   38 type  4   force =    -0.00307670   -0.00555116    0.03298048
     atom   39 type  4   force =     0.00443038    0.00392665    0.02924736
     atom   40 type  4   force =     0.00021626   -0.00324556   -0.00492610
     atom   41 type  4   force =    -0.00004577    0.00006033    0.00359853
     atom   42 type  4   force =     0.00540922    0.00032856    0.01985403
     atom   43 type  4   force =    -0.00176632    0.00041532    0.03449557
     atom   44 type  4   force =     0.00091057   -0.00085100    0.00006187
     atom   45 type  4   force =    -0.00017708   -0.00269531    0.00130208
     atom   46 type  4   force =    -0.01508087   -0.02038910   -0.00047155
     atom   47 type  4   force =     0.00193715   -0.00061026    0.00129333
     atom   48 type  4   force =    -0.01802349    0.00404053    0.00164123
     atom   49 type  4   force =     0.01652869   -0.00278838    0.00500445
     atom   50 type  4   force =     0.01178814   -0.03682653    0.00437407
     atom   51 type  4   force =     0.00106883    0.00092449    0.00173400
     atom   52 type  4   force =     0.00096269   -0.00221508    0.00365413
     atom   53 type  1   force =     0.00129038    0.00066876   -0.00048563
     atom   54 type  1   force =     0.00041020   -0.00072290    0.00298353
     atom   55 type  2   force =    -0.00009276   -0.00047616   -0.00047340
     atom   56 type  1   force =    -0.00110203    0.00071779   -0.00025047
     atom   57 type  1   force =     0.00026648    0.00010526    0.00057458
     atom   58 type  1   force =     0.00021359   -0.00021500    0.00049068
     atom   59 type  1   force =     0.00059962    0.00093505   -0.00066679
     atom   60 type  2   force =    -0.00088903   -0.00114199    0.00709896
     atom   61 type  2   force =    -0.00030703   -0.00030253   -0.00035065
     atom   62 type  1   force =    -0.00036518    0.00147949    0.00018758
     atom   63 type  1   force =    -0.00033405    0.00028287    0.00057889
     atom   64 type  1   force =    -0.00001694   -0.00041699    0.00030469
     atom   65 type  3   force =    -0.00072266   -0.00174459    0.00311093
     atom   66 type  3   force =     0.00011909   -0.00011786   -0.00162265
     atom   67 type  3   force =     0.00037875    0.00049878   -0.00131221
     atom   68 type  3   force =    -0.00110761   -0.00060923    0.00292895
     atom   69 type  4   force =    -0.00080144    0.00033282   -0.00159805
     atom   70 type  4   force =    -0.00008984    0.00008026    0.00040714
     atom   71 type  4   force =     0.00005757   -0.00026529    0.00029777
     atom   72 type  4   force =     0.00043759   -0.00039720   -0.00100822
     atom   73 type  4   force =     0.00083050    0.00041520   -0.00038150
     atom   74 type  4   force =    -0.00018973   -0.00067271    0.00186785
     atom   75 type  4   force =    -0.00011997   -0.00007090    0.00057632
     atom   76 type  4   force =    -0.00087553   -0.00077513    0.00145130
     atom   77 type  4   force =    -0.00090530    0.00066756   -0.00013576
     atom   78 type  4   force =    -0.00035673    0.00012130    0.00038181
     atom   79 type  4   force =     0.00026415    0.00090407   -0.00145106
     atom   80 type  4   force =     0.00014295    0.00061735    0.00031741
     atom   81 type  4   force =    -0.00053853   -0.00029255    0.00039406
     atom   82 type  4   force =     0.00013209   -0.00005876    0.00010692
     atom   83 type  4   force =     0.00052662    0.00063352   -0.00018509
     atom   84 type  4   force =    -0.00045546    0.00023259   -0.00102554
     atom   85 type  3   force =     0.00013079   -0.00046109    0.00075125
     atom   86 type  3   force =     0.00064446   -0.00057956   -0.00055766
     atom   87 type  3   force =    -0.00028593   -0.00003743   -0.00103153
     atom   88 type  3   force =    -0.00071117    0.00023870    0.00238797
     atom   89 type  4   force =    -0.00000735    0.00018553   -0.00047602
     atom   90 type  4   force =     0.00011959   -0.00046767    0.00163087
     atom   91 type  4   force =     0.00023379    0.00000585    0.00023821
     atom   92 type  4   force =     0.00063787   -0.00076774   -0.00118465
     atom   93 type  4   force =     0.00141794    0.00016329   -0.00026897
     atom   94 type  4   force =    -0.00028764    0.00004969    0.00143012
     atom   95 type  4   force =     0.00022706    0.00011661    0.00061873
     atom   96 type  4   force =    -0.00162598    0.00008434    0.00028096
     atom   97 type  4   force =     0.00068561   -0.00050503   -0.00151252
     atom   98 type  4   force =    -0.00057816   -0.00006563    0.00037116
     atom   99 type  4   force =     0.00077689    0.00106221   -0.00132503
     atom  100 type  4   force =     0.00065951    0.00039303    0.00052643
     atom  101 type  4   force =    -0.00040685   -0.00015283    0.00048388
     atom  102 type  4   force =     0.00094892   -0.00030960    0.00048594
     atom  103 type  4   force =     0.00103685   -0.00035276    0.00003915
     atom  104 type  4   force =    -0.00043433   -0.00103975   -0.00031751
     atom  105 type  1   force =    -0.00007393    0.00010393   -0.00015261
     atom  106 type  1   force =     0.00039156    0.00005195   -0.00055927
     atom  107 type  2   force =     0.00006867   -0.00027202    0.00001611
     atom  108 type  1   force =    -0.00066214   -0.00088903   -0.00066585
     atom  109 type  1   force =     0.00026396    0.00018585   -0.00040636
     atom  110 type  1   force =    -0.00038718    0.00021547   -0.00028629
     atom  111 type  1   force =     0.00028571    0.00019150   -0.00005228
     atom  112 type  2   force =     0.00017829    0.00040228   -0.00035214
     atom  113 type  2   force =     0.00011911   -0.00007944   -0.00011824
     atom  114 type  1   force =     0.00027929    0.00057266   -0.00000271
     atom  115 type  1   force =     0.00009238    0.00007047   -0.00042617
     atom  116 type  1   force =    -0.00003674   -0.00022403   -0.00007470
     atom  117 type  3   force =    -0.00053442   -0.00057120    0.00065368
     atom  118 type  3   force =    -0.00006479   -0.00006970   -0.00028030
     atom  119 type  3   force =    -0.00021031    0.00007200    0.00023776
     atom  120 type  3   force =     0.00012447    0.00004313    0.00006669
     atom  121 type  4   force =     0.00014301    0.00007822   -0.00034580
     atom  122 type  4   force =     0.00016811   -0.00014423    0.00026981
     atom  123 type  4   force =     0.00008822    0.00004075    0.00012380
     atom  124 type  4   force =    -0.00025681   -0.00027016    0.00038793
     atom  125 type  4   force =     0.00063750    0.00014827   -0.00045522
     atom  126 type  4   force =    -0.00050105    0.00020211    0.00013877
     atom  127 type  4   force =    -0.00006067    0.00001165    0.00013679
     atom  128 type  4   force =     0.00010453   -0.00050716   -0.00018133
     atom  129 type  4   force =    -0.00033204   -0.00012738    0.00006139
     atom  130 type  4   force =    -0.00011778    0.00014906    0.00010413
     atom  131 type  4   force =     0.00056485    0.00018996    0.00001809
     atom  132 type  4   force =     0.00048097    0.00033838   -0.00015890
     atom  133 type  4   force =    -0.00029844    0.00001526   -0.00009624
     atom  134 type  4   force =     0.00026254    0.00023679    0.00020040
     atom  135 type  4   force =     0.00047076    0.00031555    0.00003034
     atom  136 type  4   force =     0.00017274   -0.00008313   -0.00010770
     atom  137 type  3   force =     0.00008961    0.00020360   -0.00010765
     atom  138 type  3   force =     0.00014011   -0.00018260   -0.00007965
     atom  139 type  3   force =     0.00038940    0.00023705    0.00001579
     atom  140 type  3   force =     0.00018933   -0.00043066   -0.00045908
     atom  141 type  4   force =    -0.00036105   -0.00005542    0.00038256
     atom  142 type  4   force =     0.00017233    0.00001095   -0.00018636
     atom  143 type  4   force =    -0.00026466    0.00037004   -0.00002095
     atom  144 type  4   force =    -0.00037327   -0.00023611    0.00084227
     atom  145 type  4   force =     0.00029896    0.00022760    0.00003103
     atom  146 type  4   force =    -0.00014727   -0.00027986    0.00013666
     atom  147 type  4   force =     0.00007415    0.00001084    0.00023088
     atom  148 type  4   force =    -0.00026133   -0.00027068   -0.00020850
     atom  149 type  4   force =     0.00008295    0.00049071    0.00002964
     atom  150 type  4   force =    -0.00015616    0.00049199   -0.00002190
     atom  151 type  4   force =     0.00004352   -0.00011384    0.00007329
     atom  152 type  4   force =    -0.00007693   -0.00003529    0.00002843
     atom  153 type  4   force =    -0.00008901    0.00025191    0.00004477
     atom  154 type  4   force =     0.00017989   -0.00023795   -0.00014281
     atom  155 type  4   force =    -0.00002795    0.00018531    0.00005880
     atom  156 type  4   force =     0.00009811    0.00002253    0.00049881
     atom  157 type  4   force =     0.01020281   -0.00756673   -0.00347671
     atom  158 type  5   force =    -0.01026443    0.00830845    0.00475640

     Total force =     0.226088     Total SCF correction =     0.003593
 
     init_run     :      8.07s CPU      8.76s WALL (       1 calls)
     electrons    :   1241.58s CPU   1294.47s WALL (       1 calls)
     forces       :      4.13s CPU      4.47s WALL (       1 calls)
     force_london :      0.08s CPU      0.08s WALL (       1 calls)

     Called by init_run:
     wfcinit      :      4.70s CPU      4.85s WALL (       1 calls)
     potinit      :      0.55s CPU      0.74s WALL (       1 calls)
     hinit0       :      1.44s CPU      1.59s WALL (       1 calls)

     Called by electrons:
     c_bands      :    962.60s CPU    990.46s WALL (      89 calls)
     sum_band     :    174.32s CPU    187.95s WALL (      89 calls)
     v_of_rho     :     23.48s CPU     24.60s WALL (      90 calls)
     newd         :     55.57s CPU     65.75s WALL (      90 calls)
     mix_rho      :     24.39s CPU     24.49s WALL (      89 calls)
     energy_londo :      0.08s CPU      0.08s WALL (       1 calls)

     Called by c_bands:
     init_us_2    :      2.47s CPU      2.51s WALL (     360 calls)
     init_us_2:cp :      2.46s CPU      2.51s WALL (     360 calls)
     regterg      :    942.99s CPU    970.61s WALL (     181 calls)

     Called by *egterg:
     rdiaghg      :    222.27s CPU    235.38s WALL (     645 calls)
     h_psi        :    372.41s CPU    379.40s WALL (     647 calls)
     s_psi        :     58.64s CPU     58.70s WALL (     647 calls)
     g_psi        :      0.43s CPU      0.43s WALL (     464 calls)

     Called by h_psi:
     h_psi:calbec :     95.79s CPU    101.43s WALL (     647 calls)
     vloc_psi     :    216.28s CPU    217.05s WALL (     647 calls)
     add_vuspsi   :     59.58s CPU     60.15s WALL (     647 calls)

     General routines
     calbec       :    142.21s CPU    150.66s WALL (     833 calls)
     fft          :     39.18s CPU     40.75s WALL (    1633 calls)
     ffts         :     14.73s CPU     14.75s WALL (   11093 calls)
     fftw         :    246.75s CPU    247.57s WALL (  307298 calls)
     interpolate  :      1.72s CPU      1.96s WALL (     180 calls)
 
     Parallel routines
 
     PWSCF        :  20m55.71s CPU  21m50.02s WALL

 
   This run was terminated on:  20:18: 7  17Nov2025            

=------------------------------------------------------------------------------=
   JOB DONE.
=------------------------------------------------------------------------------=
