
     Program PWSCF v.7.2 starts on 17Nov2025 at 16:48:48 

     This program is part of the open-source Quantum ESPRESSO suite
     for quantum simulation of materials; please cite
         "P. Giannozzi et al., J. Phys.:Condens. Matter 21 395502 (2009);
         "P. Giannozzi et al., J. Phys.:Condens. Matter 29 465901 (2017);
         "P. Giannozzi et al., J. Chem. Phys. 152 154105 (2020);
          URL http://www.quantum-espresso.org", 
     in publications or presentations arising from this work. More details at
     http://www.quantum-espresso.org/quote

     Parallel version (MPI), running on    64 processors

     MPI processes distributed on     4 nodes
     465501 MiB available memory on the printing compute node when the environment starts
 
     Reading input from PWINPUT_atm157_xp

     Current dimensions of program PWSCF are:
     Max number of different atomic species (ntypx) = 10
     Max number of k-points (npk) =  40000
     Max angular momentum in pseudopotentials (lmaxx) =  4
     Presently no symmetry can be used with electric field

     file Ni.pbe-n-rrkjus_psl.1.0.0.UPF: wavefunction(s)  3D renormalized
     file Mn.pbe-spn-rrkjus_psl.0.3.1.UPF: wavefunction(s)  3D renormalized
     file O.pbe-rrkjus.UPF: wavefunction(s)  2S renormalized
     file H.pbe-rrkjus.UPF: wavefunction(s)  1S renormalized

     gamma-point specific algorithms are used
 
     R & G space division:  proc/nbgrp/npool/nimage =      64
     Subspace diagonalization in iterative solution of the eigenvalue problem:
     one sub-group per band group will be used
     custom distributed-memory algorithm (size of sub-group:  7*  7 procs)

 
     Parallelization info
     --------------------
     sticks:   dense  smooth     PW     G-vecs:    dense   smooth      PW
     Min         214      85     20                61830    15614    1928
     Max         216      86     22                61864    15658    1982
     Sum       13727    5503   1375              3958051  1001255  125211
 
     Using Slab Decomposition
 


     bravais-lattice index     =            0
     lattice parameter (alat)  =      17.8532  a.u.
     unit-cell volume          =   20962.6682 (a.u.)^3
     number of atoms/cell      =          158
     number of atomic types    =            5
     number of electrons       =      1108.00
     number of Kohn-Sham states=          665
     kinetic-energy cutoff     =      50.0000  Ry
     charge density cutoff     =     500.0000  Ry
     scf convergence threshold =      1.0E-06
     mixing beta               =       0.1000
     number of iterations used =            8  local-TF  mixing
     Exchange-correlation=  SLA  PW   PBE  PBE
                           (   1   4   3   4   0   0   0)

     celldm(1)=  17.853155  celldm(2)=   0.000000  celldm(3)=   0.000000
     celldm(4)=   0.000000  celldm(5)=   0.000000  celldm(6)=   0.000000

     crystal axes: (cart. coord. in units of alat)
               a(1) = (   1.000000   0.000000   0.000000 )  
               a(2) = (   0.003237   1.081997   0.000000 )  
               a(3) = (   0.000000   0.000000   3.404673 )  

     reciprocal axes: (cart. coord. in units 2 pi/alat)
               b(1) = (  1.000000 -0.002992  0.000000 )  
               b(2) = (  0.000000  0.924217  0.000000 )  
               b(3) = (  0.000000  0.000000  0.293714 )  


     PseudoPot. # 1 for Ni read from file:
     ~/PSEUDO/Ni.pbe-n-rrkjus_psl.1.0.0.UPF
     MD5 check sum: Not computed, couldn't open file
     Pseudo is Ultrasoft + core correction, Zval = 10.0
     Generated using "atomic" code by A. Dal Corso  v.5.1.2
     Using radial grid of 1195 points,  6 beta functions with: 
                l(1) =   0
                l(2) =   0
                l(3) =   1
                l(4) =   1
                l(5) =   2
                l(6) =   2
     Q(r) pseudized with 0 coefficients 


     PseudoPot. # 2 for Mn read from file:
     ~/PSEUDO/Mn.pbe-spn-rrkjus_psl.0.3.1.UPF
     MD5 check sum: Not computed, couldn't open file
     Pseudo is Ultrasoft + core correction, Zval = 15.0
     Generated using &quot;atomic&quot; code by A. Dal Corso  v.6.2.2
     Using radial grid of 1187 points,  6 beta functions with: 
                l(1) =   0
                l(2) =   0
                l(3) =   1
                l(4) =   1
                l(5) =   2
                l(6) =   2
     Q(r) pseudized with 0 coefficients 


     PseudoPot. # 3 for P  read from file:
     ~/PSEUDO/P.pbe-n-rrkjus_psl.1.0.0.UPF
     MD5 check sum: Not computed, couldn't open file
     Pseudo is Ultrasoft + core correction, Zval =  5.0
     Generated using "atomic" code by A. Dal Corso  v.5.1
     Using radial grid of 1147 points,  6 beta functions with: 
                l(1) =   0
                l(2) =   0
                l(3) =   1
                l(4) =   1
                l(5) =   2
                l(6) =   2
     Q(r) pseudized with 0 coefficients 


     PseudoPot. # 4 for O  read from file:
     ~/PSEUDO/O.pbe-rrkjus.UPF
     MD5 check sum: Not computed, couldn't open file
     Pseudo is Ultrasoft, Zval =  6.0
     Generated by new atomic code, or converted to UPF format
     Using radial grid of 1269 points,  4 beta functions with: 
                l(1) =   0
                l(2) =   0
                l(3) =   1
                l(4) =   1
     Q(r) pseudized with 0 coefficients 


     PseudoPot. # 5 for H  read from file:
     ~/PSEUDO/H.pbe-rrkjus.UPF
     MD5 check sum: Not computed, couldn't open file
     Pseudo is Ultrasoft, Zval =  1.0
     Generated by new atomic code, or converted to UPF format
     Using radial grid of 1061 points,  2 beta functions with: 
                l(1) =   0
                l(2) =   0
     Q(r) pseudized with 0 coefficients 


     atomic species   valence    mass     pseudopotential
     Ni               10.00    58.69300     Ni( 1.00)
     Mn               15.00    54.93800     Mn( 1.00)
     P                 5.00    30.97300     P ( 1.00)
     O                 6.00    15.99900     O ( 1.00)
     H                 1.00     1.00790     H ( 1.00)

     Starting magnetic structure 
     atomic species   magnetization
     Ni              1.000
     Mn              1.000
     P               1.000
     O               1.000
     H               0.000

     No symmetry found



   Cartesian axes

     site n.     atom                  positions (alat units)
         1        Ni     tau(   1) = (   0.2448189   0.8359134   0.1216996  )
         2        Ni     tau(   2) = (   0.4920952   0.7731948   0.4438949  )
         3        Mn     tau(   3) = (   0.0113021   0.2918949   0.1160512  )
         4        Ni     tau(   4) = (   0.2586115   0.2268566   0.4417628  )
         5        Ni     tau(   5) = (   1.0019827   1.0705803   0.2835623  )
         6        Ni     tau(   6) = (   0.2518099   0.5339061   0.2823483  )
         7        Ni     tau(   7) = (   0.7400999   0.8349186   0.1225624  )
         8        Mn     tau(   8) = (   0.9886961   0.7700845   0.4492175  )
         9        Mn     tau(   9) = (   0.5113421   0.2944667   0.1158892  )
        10        Ni     tau(  10) = (   0.7560857   0.2263843   0.4422798  )
        11        Ni     tau(  11) = (   0.5009386   1.0712238   0.2822610  )
        12        Ni     tau(  12) = (   0.7496978   0.5336600   0.2834396  )
        13        P      tau(  13) = (   0.2147792   0.9686896   0.4382665  )
        14        P      tau(  14) = (   0.4607377   0.6441916   0.1265334  )
        15        P      tau(  15) = (   0.2883218   0.0913464   0.1265752  )
        16        P      tau(  16) = (   0.0408981   0.4221836   0.4354960  )
        17        O      tau(  17) = (   0.1380864   0.9007819   0.3023220  )
        18        O      tau(  18) = (   0.3817439   0.7113683   0.2624610  )
        19        O      tau(  19) = (   0.3638364   0.1608547   0.2624417  )
        20        O      tau(  20) = (   0.1207568   0.3545755   0.3021219  )
        21        O      tau(  21) = (   0.1552194   0.8797563   0.5625160  )
        22        O      tau(  22) = (   0.4022820   0.7317969   0.0010585  )
        23        O      tau(  23) = (   0.3454844   0.1823965   0.0026336  )
        24        O      tau(  24) = (   0.1017019   0.3344979   0.5594858  )
        25        O      tau(  25) = (   0.0970074   0.5770714   0.4346455  )
        26        O      tau(  26) = (   0.3534166   1.0203677   0.1270707  )
        27        O      tau(  27) = (   0.3778024   0.4172402   0.4261028  )
        28        O      tau(  28) = (   0.1256171   0.0954063   0.1372153  )
        29        O      tau(  29) = (   0.1232168   0.6482422   0.1385172  )
        30        O      tau(  30) = (   0.4028533   0.4897833   0.1289718  )
        31        O      tau(  31) = (   0.1511050   0.0405554   0.4369979  )
        32        O      tau(  32) = (   0.3776556   0.9624293   0.4288159  )
        33        P      tau(  33) = (   0.7084770   0.9682119   0.4394551  )
        34        P      tau(  34) = (   0.9603154   0.6409658   0.1292469  )
        35        P      tau(  35) = (   0.7875734   0.0899770   0.1274098  )
        36        P      tau(  36) = (   0.5405152   0.4272620   0.4364455  )
        37        O      tau(  37) = (   0.6323583   0.8977630   0.3036670  )
        38        O      tau(  38) = (   0.8809646   0.7091921   0.2627111  )
        39        O      tau(  39) = (   0.8631054   0.1587239   0.2636487  )
        40        O      tau(  40) = (   0.6202581   0.3578380   0.3034239  )
        41        O      tau(  41) = (   0.6499160   0.8772596   0.5630912  )
        42        O      tau(  42) = (   0.8990171   0.7283464   0.0054426  )
        43        O      tau(  43) = (   0.8448361   0.1806154   0.0030658  )
        44        O      tau(  44) = (   0.6023096   0.3392612   0.5600469  )
        45        O      tau(  45) = (   0.5960222   0.5826131   0.4346340  )
        46        O      tau(  46) = (   0.8515023   1.0184215   0.1281632  )
        47        O      tau(  47) = (   0.8779640   0.4148900   0.4260983  )
        48        O      tau(  48) = (   0.6251159   0.0957170   0.1376895  )
        49        O      tau(  49) = (   0.6237654   0.6481585   0.1378370  )
        50        O      tau(  50) = (   0.9038046   0.4863338   0.1307354  )
        51        O      tau(  51) = (   0.6458737   0.0402574   0.4377979  )
        52        O      tau(  52) = (   0.8712434   0.9635255   0.4285638  )
        53        Ni     tau(  53) = (   0.2420320   0.8169913   0.7491577  )
        54        Ni     tau(  54) = (   0.4893084   0.7542727   1.0713530  )
        55        Mn     tau(  55) = (   0.0085152   0.2729728   0.7435093  )
        56        Ni     tau(  56) = (   0.2558246   0.2079345   1.0692209  )
        57        Ni     tau(  57) = (   0.9991959   1.0516583   0.9110204  )
        58        Ni     tau(  58) = (   0.2490231   0.5149840   0.9098064  )
        59        Ni     tau(  59) = (   0.7373131   0.8159965   0.7500205  )
        60        Mn     tau(  60) = (   0.9859093   0.7511625   1.0766756  )
        61        Mn     tau(  61) = (   0.5085552   0.2755447   0.7433473  )
        62        Ni     tau(  62) = (   0.7532989   0.2074622   1.0697379  )
        63        Ni     tau(  63) = (   0.4981517   1.0523018   0.9097191  )
        64        Ni     tau(  64) = (   0.7469109   0.5147379   0.9108977  )
        65        P      tau(  65) = (   0.2119924   0.9497675   1.0657246  )
        66        P      tau(  66) = (   0.4579509   0.6252695   0.7539915  )
        67        P      tau(  67) = (   0.2855349   0.0724244   0.7540333  )
        68        P      tau(  68) = (   0.0381112   0.4032615   1.0629541  )
        69        O      tau(  69) = (   0.1352995   0.8818598   0.9297801  )
        70        O      tau(  70) = (   0.3789570   0.6924463   0.8899191  )
        71        O      tau(  71) = (   0.3610496   0.1419327   0.8898998  )
        72        O      tau(  72) = (   0.1179700   0.3356534   0.9295800  )
        73        O      tau(  73) = (   0.1524325   0.8608343   1.1899741  )
        74        O      tau(  74) = (   0.3994952   0.7128748   0.6285166  )
        75        O      tau(  75) = (   0.3426976   0.1634744   0.6300917  )
        76        O      tau(  76) = (   0.0989151   0.3155758   1.1869439  )
        77        O      tau(  77) = (   0.0942206   0.5581494   1.0621036  )
        78        O      tau(  78) = (   0.3506297   1.0014456   0.7545288  )
        79        O      tau(  79) = (   0.3750155   0.3983181   1.0535609  )
        80        O      tau(  80) = (   0.1228303   0.0764842   0.7646734  )
        81        O      tau(  81) = (   0.1204299   0.6293201   0.7659753  )
        82        O      tau(  82) = (   0.4000664   0.4708612   0.7564299  )
        83        O      tau(  83) = (   0.1483182   0.0216333   1.0644560  )
        84        O      tau(  84) = (   0.3748687   0.9435072   1.0562740  )
        85        P      tau(  85) = (   0.7056901   0.9492898   1.0669132  )
        86        P      tau(  86) = (   0.9575286   0.6220438   0.7567050  )
        87        P      tau(  87) = (   0.7847866   0.0710549   0.7548679  )
        88        P      tau(  88) = (   0.5377283   0.4083400   1.0639036  )
        89        O      tau(  89) = (   0.6295714   0.8788409   0.9311251  )
        90        O      tau(  90) = (   0.8781778   0.6902700   0.8901692  )
        91        O      tau(  91) = (   0.8603186   0.1398018   0.8911068  )
        92        O      tau(  92) = (   0.6174712   0.3389159   0.9308820  )
        93        O      tau(  93) = (   0.6471291   0.8583376   1.1905493  )
        94        O      tau(  94) = (   0.8962302   0.7094244   0.6329007  )
        95        O      tau(  95) = (   0.8420493   0.1616933   0.6305239  )
        96        O      tau(  96) = (   0.5995227   0.3203391   1.1875050  )
        97        O      tau(  97) = (   0.5932354   0.5636910   1.0620921  )
        98        O      tau(  98) = (   0.8487155   0.9994995   0.7556213  )
        99        O      tau(  99) = (   0.8751772   0.3959680   1.0535564  )
       100        O      tau( 100) = (   0.6223291   0.0767949   0.7651476  )
       101        O      tau( 101) = (   0.6209785   0.6292365   0.7652951  )
       102        O      tau( 102) = (   0.9010178   0.4674118   0.7581935  )
       103        O      tau( 103) = (   0.6430869   0.0213354   1.0652560  )
       104        O      tau( 104) = (   0.8684566   0.9446034   1.0560219  )
       105        Ni     tau( 105) = (   0.2418877   0.7990605   1.3774994  )
       106        Ni     tau( 106) = (   0.4859924   0.7291101   1.7127883  )
       107        Mn     tau( 107) = (   0.0074091   0.2584581   1.3749705  )
       108        Ni     tau( 108) = (   0.2425157   0.1970216   1.6824860  )
       109        Ni     tau( 109) = (   0.9982898   1.0343952   1.5373768  )
       110        Ni     tau( 110) = (   0.2455541   0.5002357   1.5473962  )
       111        Ni     tau( 111) = (   0.7364741   0.7981604   1.3766198  )
       112        Mn     tau( 112) = (   0.9933806   0.7362827   1.7012765  )
       113        Mn     tau( 113) = (   0.5061773   0.2597092   1.3733878  )
       114        Ni     tau( 114) = (   0.7390624   0.1911087   1.6822626  )
       115        Ni     tau( 115) = (   0.4977171   1.0337782   1.5386589  )
       116        Ni     tau( 116) = (   0.7401814   0.4951798   1.5429972  )
       117        P      tau( 117) = (   0.2103734   0.9343735   1.6940579  )
       118        P      tau( 118) = (   0.4554029   0.6062738   1.3832147  )
       119        P      tau( 119) = (   0.2849489   0.0556490   1.3793979  )
       120        P      tau( 120) = (   0.0290749   0.3809918   1.7035602  )
       121        O      tau( 121) = (   0.1355154   0.8685926   1.5530534  )
       122        O      tau( 122) = (   0.3774347   0.6768570   1.5167281  )
       123        O      tau( 123) = (   0.3598942   0.1250008   1.5151379  )
       124        O      tau( 124) = (   0.1107954   0.3275508   1.5594841  )
       125        O      tau( 125) = (   0.1459723   0.8429241   1.8126700  )
       126        O      tau( 126) = (   0.3976183   0.6919918   1.2555103  )
       127        O      tau( 127) = (   0.3429937   0.1462538   1.2552325  )
       128        O      tau( 128) = (   0.0910722   0.2838530   1.8157905  )
       129        O      tau( 129) = (   0.0790378   0.5396957   1.7066292  )
       130        O      tau( 130) = (   0.3490860   0.9846372   1.3803291  )
       131        O      tau( 131) = (   0.3685320   0.3757119   1.6809527  )
       132        O      tau( 132) = (   0.1220401   0.0632085   1.3908914  )
       133        O      tau( 133) = (   0.1180502   0.6108095   1.4007634  )
       134        O      tau( 134) = (   0.3961976   0.4519943   1.3871462  )
       135        O      tau( 135) = (   0.1486504   0.0072842   1.6926096  )
       136        O      tau( 136) = (   0.3735002   0.9279144   1.6865291  )
       137        P      tau( 137) = (   0.7062277   0.9249542   1.6906995  )
       138        P      tau( 138) = (   0.9553712   0.6030053   1.3890406  )
       139        P      tau( 139) = (   0.7840082   0.0540629   1.3791216  )
       140        P      tau( 140) = (   0.5317123   0.3818426   1.7010624  )
       141        O      tau( 141) = (   0.6319685   0.8674441   1.5474648  )
       142        O      tau( 142) = (   0.8763482   0.6697573   1.5237027  )
       143        O      tau( 143) = (   0.8595380   0.1221826   1.5157410  )
       144        O      tau( 144) = (   0.6117506   0.3206324   1.5574399  )
       145        O      tau( 145) = (   0.6505933   0.8256672   1.8056400  )
       146        O      tau( 146) = (   0.8964847   0.6918028   1.2646706  )
       147        O      tau( 147) = (   0.8420613   0.1459611   1.2558217  )
       148        O      tau( 148) = (   0.5904161   0.2827938   1.8138958  )
       149        O      tau( 149) = (   0.5904972   0.5368025   1.6958113  )
       150        O      tau( 150) = (   0.8484323   0.9829177   1.3785021  )
       151        O      tau( 151) = (   0.8659078   0.3735192   1.6844181  )
       152        O      tau( 152) = (   0.6215468   0.0617340   1.3908597  )
       153        O      tau( 153) = (   0.6186538   0.6093341   1.3943007  )
       154        O      tau( 154) = (   0.8974697   0.4488583   1.3875570  )
       155        O      tau( 155) = (   0.6478825  -0.0004503   1.6955159  )
       156        O      tau( 156) = (   0.8711649   0.9215713   1.6818757  )
       157        O      tau( 157) = (   0.3662224   0.6449523   1.8366945  )
       158        H      tau( 158) = (   0.2891119   0.7091622   1.8682131  )

     -------------------------------------------------
     Parameters for Dispersion (Grimme-D2) Correction:
     -------------------------------------------------
       atom      VdW radius       C_6     

        Ni         2.952        374.666
        Mn         2.952        374.666
        P          3.222        271.980
        O          2.536         24.284
        H          1.892          4.857

     number of k points=     1  Gaussian smearing, width (Ry)=  0.0100
                       cart. coord. in units 2pi/alat
        k(    1) = (   0.0000000   0.0000000   0.0000000), wk =   1.0000000

     Dense  grid:  1979026 G-vectors     FFT dimensions: ( 128, 144, 450)

     Smooth grid:   500628 G-vectors     FFT dimensions: (  81,  90, 288)

     Estimated max dynamical RAM per process >     333.40 MB

     Estimated total dynamical RAM >      20.84 GB

     Check: negative core charge=   -0.000002
     Generating pointlists ...
     new r_m :   0.0791 (alat units)  1.4124 (a.u.) for type    1
     new r_m :   0.0884 (alat units)  1.5790 (a.u.) for type    2
     new r_m :   0.0664 (alat units)  1.1846 (a.u.) for type    3
     new r_m :   0.0434 (alat units)  0.7746 (a.u.) for type    4
     new r_m :   0.0434 (alat units)  0.7746 (a.u.) for type    5

     Initial potential from superposition of free atoms

     starting charge    1107.8886, renormalised to    1108.0000

     negative rho (up, down):  1.527E-03 4.660E-04
 
     Adding external electric field

     Computed dipole along edir(3) : 
        Dipole                1.6366 Ry au,          4.1597 Debye
        Dipole field          0.0010 Ry au, 
 
        Potential amp.       -0.1073 Ry
        Total length         54.7057 bohr
 
 
     Adding external electric field

     Computed dipole along edir(3) : 
        Dipole                1.6366 Ry au,          4.1597 Debye
        Dipole field          0.0010 Ry au, 
 
        Potential amp.       -0.1073 Ry
        Total length         54.7057 bohr
 
     Starting wfcs are  818 randomized atomic wfcs

     total cpu time spent up to now is       11.0 secs

     Self-consistent Calculation

     iteration #  1     ecut=    50.00 Ry     beta= 0.10
     Davidson diagonalization with overlap
     ethr =  1.00E-02,  avg # of iterations =  6.0

     negative rho (up, down):  4.341E-01 4.989E-07
 
     Adding external electric field

     Computed dipole along edir(3) : 
        Dipole               -3.7476 Ry au,         -9.5254 Debye
        Dipole field         -0.0022 Ry au, 
 
        Potential amp.        0.2458 Ry
        Total length         54.7057 bohr
 
 
     Adding external electric field

     Computed dipole along edir(3) : 
        Dipole               -3.7476 Ry au,         -9.5254 Debye
        Dipole field         -0.0022 Ry au, 
 
        Potential amp.        0.2458 Ry
        Total length         54.7057 bohr
 

     total cpu time spent up to now is       39.6 secs

     total energy              =   -7856.96325305 Ry
     estimated scf accuracy    <     726.00210061 Ry

     total magnetization       =   222.00 Bohr mag/cell
     absolute magnetization    =   319.93 Bohr mag/cell

     iteration #  2     ecut=    50.00 Ry     beta= 0.10
     Davidson diagonalization with overlap
     ethr =  1.00E-02,  avg # of iterations =  2.0

     negative rho (up, down):  4.106E-01 2.763E-07
 
     Adding external electric field

     Computed dipole along edir(3) : 
        Dipole               -2.4961 Ry au,         -6.3445 Debye
        Dipole field         -0.0015 Ry au, 
 
        Potential amp.        0.1637 Ry
        Total length         54.7057 bohr
 
 
     Adding external electric field

     Computed dipole along edir(3) : 
        Dipole               -2.4961 Ry au,         -6.3445 Debye
        Dipole field         -0.0015 Ry au, 
 
        Potential amp.        0.1637 Ry
        Total length         54.7057 bohr
 

     total cpu time spent up to now is       57.4 secs

     total energy              =   -7938.96887307 Ry
     estimated scf accuracy    <     216.23074927 Ry

     total magnetization       =   167.80 Bohr mag/cell
     absolute magnetization    =   214.34 Bohr mag/cell

     iteration #  3     ecut=    50.00 Ry     beta= 0.10
     Davidson diagonalization with overlap
     ethr =  1.00E-02,  avg # of iterations =  1.0

     negative rho (up, down):  3.680E-01 2.393E-07
 
     Adding external electric field

     Computed dipole along edir(3) : 
        Dipole               -2.1718 Ry au,         -5.5202 Debye
        Dipole field         -0.0013 Ry au, 
 
        Potential amp.        0.1424 Ry
        Total length         54.7057 bohr
 
 
     Adding external electric field

     Computed dipole along edir(3) : 
        Dipole               -2.1718 Ry au,         -5.5202 Debye
        Dipole field         -0.0013 Ry au, 
 
        Potential amp.        0.1424 Ry
        Total length         54.7057 bohr
 

     total cpu time spent up to now is       70.8 secs

     total energy              =   -7967.73113343 Ry
     estimated scf accuracy    <     104.65975326 Ry

     total magnetization       =   144.11 Bohr mag/cell
     absolute magnetization    =   193.04 Bohr mag/cell

     iteration #  4     ecut=    50.00 Ry     beta= 0.10
     Davidson diagonalization with overlap
     ethr =  9.45E-03,  avg # of iterations =  1.0

     negative rho (up, down):  2.939E-01 4.215E-08
 
     Adding external electric field

     Computed dipole along edir(3) : 
        Dipole               -1.9549 Ry au,         -4.9687 Debye
        Dipole field         -0.0012 Ry au, 
 
        Potential amp.        0.1282 Ry
        Total length         54.7057 bohr
 
 
     Adding external electric field

     Computed dipole along edir(3) : 
        Dipole               -1.9549 Ry au,         -4.9687 Debye
        Dipole field         -0.0012 Ry au, 
 
        Potential amp.        0.1282 Ry
        Total length         54.7057 bohr
 

     total cpu time spent up to now is       83.9 secs

     total energy              =   -7999.95228738 Ry
     estimated scf accuracy    <      85.64574485 Ry

     total magnetization       =   128.94 Bohr mag/cell
     absolute magnetization    =   179.29 Bohr mag/cell

     iteration #  5     ecut=    50.00 Ry     beta= 0.10
     Davidson diagonalization with overlap
     ethr =  7.73E-03,  avg # of iterations =  1.0

     negative rho (up, down):  6.756E-02 6.166E-10
 
     Adding external electric field

     Computed dipole along edir(3) : 
        Dipole               -1.5069 Ry au,         -3.8302 Debye
        Dipole field         -0.0009 Ry au, 
 
        Potential amp.        0.0988 Ry
        Total length         54.7057 bohr
 
 
     Adding external electric field

     Computed dipole along edir(3) : 
        Dipole               -1.5069 Ry au,         -3.8302 Debye
        Dipole field         -0.0009 Ry au, 
 
        Potential amp.        0.0988 Ry
        Total length         54.7057 bohr
 

     total cpu time spent up to now is       97.1 secs

     total energy              =   -8058.37199601 Ry
     estimated scf accuracy    <      69.51974011 Ry

     total magnetization       =   106.61 Bohr mag/cell
     absolute magnetization    =   160.61 Bohr mag/cell

     iteration #  6     ecut=    50.00 Ry     beta= 0.10
     Davidson diagonalization with overlap
     ethr =  6.27E-03,  avg # of iterations =  1.0

     negative rho (up, down):  1.152E-03 2.056E-03
 
     Adding external electric field

     Computed dipole along edir(3) : 
        Dipole               -1.0532 Ry au,         -2.6769 Debye
        Dipole field         -0.0006 Ry au, 
 
        Potential amp.        0.0691 Ry
        Total length         54.7057 bohr
 
 
     Adding external electric field

     Computed dipole along edir(3) : 
        Dipole               -1.0532 Ry au,         -2.6769 Debye
        Dipole field         -0.0006 Ry au, 
 
        Potential amp.        0.0691 Ry
        Total length         54.7057 bohr
 

     total cpu time spent up to now is      110.2 secs

     total energy              =   -8075.97463544 Ry
     estimated scf accuracy    <      19.62756324 Ry

     total magnetization       =   100.00 Bohr mag/cell
     absolute magnetization    =   135.42 Bohr mag/cell

     iteration #  7     ecut=    50.00 Ry     beta= 0.10
     Davidson diagonalization with overlap
     ethr =  1.77E-03,  avg # of iterations =  6.0

     negative rho (up, down):  1.108E-03 1.996E-03
 
     Adding external electric field

     Computed dipole along edir(3) : 
        Dipole               -1.0646 Ry au,         -2.7058 Debye
        Dipole field         -0.0006 Ry au, 
 
        Potential amp.        0.0698 Ry
        Total length         54.7057 bohr
 
 
     Adding external electric field

     Computed dipole along edir(3) : 
        Dipole               -1.0646 Ry au,         -2.7058 Debye
        Dipole field         -0.0006 Ry au, 
 
        Potential amp.        0.0698 Ry
        Total length         54.7057 bohr
 

     total cpu time spent up to now is      131.7 secs

     total energy              =   -8078.75154081 Ry
     estimated scf accuracy    <      28.34878808 Ry

     total magnetization       =    69.91 Bohr mag/cell
     absolute magnetization    =    87.69 Bohr mag/cell

     iteration #  8     ecut=    50.00 Ry     beta= 0.10
     Davidson diagonalization with overlap
     ethr =  1.77E-03,  avg # of iterations =  1.0

     negative rho (up, down):  1.183E-03 2.113E-03
 
     Adding external electric field

     Computed dipole along edir(3) : 
        Dipole               -1.0447 Ry au,         -2.6553 Debye
        Dipole field         -0.0006 Ry au, 
 
        Potential amp.        0.0685 Ry
        Total length         54.7057 bohr
 
 
     Adding external electric field

     Computed dipole along edir(3) : 
        Dipole               -1.0447 Ry au,         -2.6553 Debye
        Dipole field         -0.0006 Ry au, 
 
        Potential amp.        0.0685 Ry
        Total length         54.7057 bohr
 

     total cpu time spent up to now is      144.9 secs

     total energy              =   -8078.87930581 Ry
     estimated scf accuracy    <      28.43782376 Ry

     total magnetization       =    69.93 Bohr mag/cell
     absolute magnetization    =    87.20 Bohr mag/cell

     iteration #  9     ecut=    50.00 Ry     beta= 0.10
     Davidson diagonalization with overlap
     ethr =  1.77E-03,  avg # of iterations =  1.0

     negative rho (up, down):  1.152E-03 2.620E-03
 
     Adding external electric field

     Computed dipole along edir(3) : 
        Dipole               -1.4203 Ry au,         -3.6101 Debye
        Dipole field         -0.0009 Ry au, 
 
        Potential amp.        0.0932 Ry
        Total length         54.7057 bohr
 
 
     Adding external electric field

     Computed dipole along edir(3) : 
        Dipole               -1.4203 Ry au,         -3.6101 Debye
        Dipole field         -0.0009 Ry au, 
 
        Potential amp.        0.0932 Ry
        Total length         54.7057 bohr
 

     total cpu time spent up to now is      158.0 secs

     total energy              =   -8078.45749468 Ry
     estimated scf accuracy    <      28.67322459 Ry

     total magnetization       =    69.88 Bohr mag/cell
     absolute magnetization    =    86.80 Bohr mag/cell

     iteration # 10     ecut=    50.00 Ry     beta= 0.10
     Davidson diagonalization with overlap
     ethr =  1.77E-03,  avg # of iterations =  1.0

     negative rho (up, down):  3.843E-02 5.239E-02
 
     Adding external electric field

     Computed dipole along edir(3) : 
        Dipole               -2.0490 Ry au,         -5.2080 Debye
        Dipole field         -0.0012 Ry au, 
 
        Potential amp.        0.1344 Ry
        Total length         54.7057 bohr
 
 
     Adding external electric field

     Computed dipole along edir(3) : 
        Dipole               -2.0490 Ry au,         -5.2080 Debye
        Dipole field         -0.0012 Ry au, 
 
        Potential amp.        0.1344 Ry
        Total length         54.7057 bohr
 

     total cpu time spent up to now is      170.2 secs

     total energy              =   -8077.74594454 Ry
     estimated scf accuracy    <      23.92647056 Ry

     total magnetization       =    71.01 Bohr mag/cell
     absolute magnetization    =    86.50 Bohr mag/cell

     iteration # 11     ecut=    50.00 Ry     beta= 0.10
     Davidson diagonalization with overlap
     ethr =  1.77E-03,  avg # of iterations =  1.5

     negative rho (up, down):  2.167E-02 3.210E-02
 
     Adding external electric field

     Computed dipole along edir(3) : 
        Dipole               -1.9026 Ry au,         -4.8359 Debye
        Dipole field         -0.0011 Ry au, 
 
        Potential amp.        0.1248 Ry
        Total length         54.7057 bohr
 
 
     Adding external electric field

     Computed dipole along edir(3) : 
        Dipole               -1.9026 Ry au,         -4.8359 Debye
        Dipole field         -0.0011 Ry au, 
 
        Potential amp.        0.1248 Ry
        Total length         54.7057 bohr
 

     total cpu time spent up to now is      183.4 secs

     total energy              =   -8078.11758809 Ry
     estimated scf accuracy    <       5.54162429 Ry

     total magnetization       =    88.40 Bohr mag/cell
     absolute magnetization    =    99.26 Bohr mag/cell

     iteration # 12     ecut=    50.00 Ry     beta= 0.10
     Davidson diagonalization with overlap
     ethr =  5.00E-04,  avg # of iterations =  2.0

     negative rho (up, down):  2.143E-02 3.189E-02
 
     Adding external electric field

     Computed dipole along edir(3) : 
        Dipole               -1.9044 Ry au,         -4.8405 Debye
        Dipole field         -0.0011 Ry au, 
 
        Potential amp.        0.1249 Ry
        Total length         54.7057 bohr
 
 
     Adding external electric field

     Computed dipole along edir(3) : 
        Dipole               -1.9044 Ry au,         -4.8405 Debye
        Dipole field         -0.0011 Ry au, 
 
        Potential amp.        0.1249 Ry
        Total length         54.7057 bohr
 

     total cpu time spent up to now is      197.2 secs

     total energy              =   -8078.15071516 Ry
     estimated scf accuracy    <       8.50436455 Ry

     total magnetization       =    83.99 Bohr mag/cell
     absolute magnetization    =    95.64 Bohr mag/cell

     iteration # 13     ecut=    50.00 Ry     beta= 0.10
     Davidson diagonalization with overlap
     ethr =  5.00E-04,  avg # of iterations =  1.0

     negative rho (up, down):  2.780E-02 4.178E-02
 
     Adding external electric field

     Computed dipole along edir(3) : 
        Dipole               -2.0326 Ry au,         -5.1665 Debye
        Dipole field         -0.0012 Ry au, 
 
        Potential amp.        0.1333 Ry
        Total length         54.7057 bohr
 
 
     Adding external electric field

     Computed dipole along edir(3) : 
        Dipole               -2.0326 Ry au,         -5.1665 Debye
        Dipole field         -0.0012 Ry au, 
 
        Potential amp.        0.1333 Ry
        Total length         54.7057 bohr
 

     total cpu time spent up to now is      209.3 secs

     total energy              =   -8078.13253759 Ry
     estimated scf accuracy    <       8.56695597 Ry

     total magnetization       =    83.88 Bohr mag/cell
     absolute magnetization    =    95.53 Bohr mag/cell

     iteration # 14     ecut=    50.00 Ry     beta= 0.10
     Davidson diagonalization with overlap
     ethr =  5.00E-04,  avg # of iterations =  1.5

     negative rho (up, down):  5.787E-02 6.157E-02
 
     Adding external electric field

     Computed dipole along edir(3) : 
        Dipole               -1.8350 Ry au,         -4.6640 Debye
        Dipole field         -0.0011 Ry au, 
 
        Potential amp.        0.1204 Ry
        Total length         54.7057 bohr
 
 
     Adding external electric field

     Computed dipole along edir(3) : 
        Dipole               -1.8350 Ry au,         -4.6640 Debye
        Dipole field         -0.0011 Ry au, 
 
        Potential amp.        0.1204 Ry
        Total length         54.7057 bohr
 

     total cpu time spent up to now is      222.2 secs

     total energy              =   -8077.83423938 Ry
     estimated scf accuracy    <       9.41701609 Ry

     total magnetization       =    83.52 Bohr mag/cell
     absolute magnetization    =    94.89 Bohr mag/cell

     iteration # 15     ecut=    50.00 Ry     beta= 0.10
     Davidson diagonalization with overlap
     ethr =  5.00E-04,  avg # of iterations =  1.5

     negative rho (up, down):  3.198E-02 3.453E-02
 
     Adding external electric field

     Computed dipole along edir(3) : 
        Dipole               -1.5887 Ry au,         -4.0381 Debye
        Dipole field         -0.0010 Ry au, 
 
        Potential amp.        0.1042 Ry
        Total length         54.7057 bohr
 
 
     Adding external electric field

     Computed dipole along edir(3) : 
        Dipole               -1.5887 Ry au,         -4.0381 Debye
        Dipole field         -0.0010 Ry au, 
 
        Potential amp.        0.1042 Ry
        Total length         54.7057 bohr
 

     total cpu time spent up to now is      235.4 secs

     total energy              =   -8078.20194830 Ry
     estimated scf accuracy    <       0.89147799 Ry

     total magnetization       =    98.74 Bohr mag/cell
     absolute magnetization    =   107.21 Bohr mag/cell

     iteration # 16     ecut=    50.00 Ry     beta= 0.10
     Davidson diagonalization with overlap
     ethr =  8.05E-05,  avg # of iterations = 13.0

     negative rho (up, down):  1.894E-02 2.108E-02
 
     Adding external electric field

     Computed dipole along edir(3) : 
        Dipole               -1.4309 Ry au,         -3.6369 Debye
        Dipole field         -0.0009 Ry au, 
 
        Potential amp.        0.0938 Ry
        Total length         54.7057 bohr
 
 
     Adding external electric field

     Computed dipole along edir(3) : 
        Dipole               -1.4309 Ry au,         -3.6369 Debye
        Dipole field         -0.0009 Ry au, 
 
        Potential amp.        0.0938 Ry
        Total length         54.7057 bohr
 

     total cpu time spent up to now is      257.5 secs

     total energy              =   -8078.20834172 Ry
     estimated scf accuracy    <       0.74280070 Ry

     total magnetization       =    97.74 Bohr mag/cell
     absolute magnetization    =   106.23 Bohr mag/cell

     iteration # 17     ecut=    50.00 Ry     beta= 0.10
     Davidson diagonalization with overlap
     ethr =  6.70E-05,  avg # of iterations =  1.5

     negative rho (up, down):  2.150E-02 2.606E-02
 
     Adding external electric field

     Computed dipole along edir(3) : 
        Dipole               -1.4103 Ry au,         -3.5846 Debye
        Dipole field         -0.0008 Ry au, 
 
        Potential amp.        0.0925 Ry
        Total length         54.7057 bohr
 
 
     Adding external electric field

     Computed dipole along edir(3) : 
        Dipole               -1.4103 Ry au,         -3.5846 Debye
        Dipole field         -0.0008 Ry au, 
 
        Potential amp.        0.0925 Ry
        Total length         54.7057 bohr
 

     total cpu time spent up to now is      270.5 secs

     total energy              =   -8078.26365632 Ry
     estimated scf accuracy    <       0.92260100 Ry

     total magnetization       =    95.86 Bohr mag/cell
     absolute magnetization    =   104.45 Bohr mag/cell

     iteration # 18     ecut=    50.00 Ry     beta= 0.10
     Davidson diagonalization with overlap
     ethr =  6.70E-05,  avg # of iterations =  1.5

     negative rho (up, down):  3.443E-02 4.785E-02
 
     Adding external electric field

     Computed dipole along edir(3) : 
        Dipole               -1.4924 Ry au,         -3.7932 Debye
        Dipole field         -0.0009 Ry au, 
 
        Potential amp.        0.0979 Ry
        Total length         54.7057 bohr
 
 
     Adding external electric field

     Computed dipole along edir(3) : 
        Dipole               -1.4924 Ry au,         -3.7932 Debye
        Dipole field         -0.0009 Ry au, 
 
        Potential amp.        0.0979 Ry
        Total length         54.7057 bohr
 

     total cpu time spent up to now is      283.5 secs

     total energy              =   -8078.29161331 Ry
     estimated scf accuracy    <       0.85914193 Ry

     total magnetization       =    96.07 Bohr mag/cell
     absolute magnetization    =   103.84 Bohr mag/cell

     iteration # 19     ecut=    50.00 Ry     beta= 0.10
     Davidson diagonalization with overlap
     ethr =  6.70E-05,  avg # of iterations =  1.0

     negative rho (up, down):  2.990E-02 4.475E-02
 
     Adding external electric field

     Computed dipole along edir(3) : 
        Dipole               -1.3957 Ry au,         -3.5474 Debye
        Dipole field         -0.0008 Ry au, 
 
        Potential amp.        0.0915 Ry
        Total length         54.7057 bohr
 
 
     Adding external electric field

     Computed dipole along edir(3) : 
        Dipole               -1.3957 Ry au,         -3.5474 Debye
        Dipole field         -0.0008 Ry au, 
 
        Potential amp.        0.0915 Ry
        Total length         54.7057 bohr
 

     total cpu time spent up to now is      296.0 secs

     total energy              =   -8078.32898434 Ry
     estimated scf accuracy    <       0.58246754 Ry

     total magnetization       =    96.44 Bohr mag/cell
     absolute magnetization    =   102.27 Bohr mag/cell

     iteration # 20     ecut=    50.00 Ry     beta= 0.10
     Davidson diagonalization with overlap
     ethr =  5.26E-05,  avg # of iterations =  1.5

     negative rho (up, down):  2.719E-02 4.072E-02
 
     Adding external electric field

     Computed dipole along edir(3) : 
        Dipole               -1.3685 Ry au,         -3.4785 Debye
        Dipole field         -0.0008 Ry au, 
 
        Potential amp.        0.0898 Ry
        Total length         54.7057 bohr
 
 
     Adding external electric field

     Computed dipole along edir(3) : 
        Dipole               -1.3685 Ry au,         -3.4785 Debye
        Dipole field         -0.0008 Ry au, 
 
        Potential amp.        0.0898 Ry
        Total length         54.7057 bohr
 

     total cpu time spent up to now is      309.1 secs

     total energy              =   -8078.37917108 Ry
     estimated scf accuracy    <       0.57473042 Ry

     total magnetization       =    96.30 Bohr mag/cell
     absolute magnetization    =   101.00 Bohr mag/cell

     iteration # 21     ecut=    50.00 Ry     beta= 0.10
     Davidson diagonalization with overlap
     ethr =  5.19E-05,  avg # of iterations =  1.5

     negative rho (up, down):  2.023E-02 3.274E-02
 
     Adding external electric field

     Computed dipole along edir(3) : 
        Dipole               -1.3159 Ry au,         -3.3447 Debye
        Dipole field         -0.0008 Ry au, 
 
        Potential amp.        0.0863 Ry
        Total length         54.7057 bohr
 
 
     Adding external electric field

     Computed dipole along edir(3) : 
        Dipole               -1.3159 Ry au,         -3.3447 Debye
        Dipole field         -0.0008 Ry au, 
 
        Potential amp.        0.0863 Ry
        Total length         54.7057 bohr
 

     total cpu time spent up to now is      322.0 secs

     total energy              =   -8078.42375335 Ry
     estimated scf accuracy    <       0.43620221 Ry

     total magnetization       =    97.35 Bohr mag/cell
     absolute magnetization    =   101.35 Bohr mag/cell

     iteration # 22     ecut=    50.00 Ry     beta= 0.10
     Davidson diagonalization with overlap
     ethr =  3.94E-05,  avg # of iterations =  1.5

     negative rho (up, down):  2.364E-02 3.536E-02
 
     Adding external electric field

     Computed dipole along edir(3) : 
        Dipole               -1.3473 Ry au,         -3.4246 Debye
        Dipole field         -0.0008 Ry au, 
 
        Potential amp.        0.0884 Ry
        Total length         54.7057 bohr
 
 
     Adding external electric field

     Computed dipole along edir(3) : 
        Dipole               -1.3473 Ry au,         -3.4246 Debye
        Dipole field         -0.0008 Ry au, 
 
        Potential amp.        0.0884 Ry
        Total length         54.7057 bohr
 

     total cpu time spent up to now is      335.3 secs

     total energy              =   -8078.46225218 Ry
     estimated scf accuracy    <       0.33839121 Ry

     total magnetization       =    96.80 Bohr mag/cell
     absolute magnetization    =    99.82 Bohr mag/cell

     iteration # 23     ecut=    50.00 Ry     beta= 0.10
     Davidson diagonalization with overlap
     ethr =  3.05E-05,  avg # of iterations =  1.5

     negative rho (up, down):  1.642E-02 2.335E-02
 
     Adding external electric field

     Computed dipole along edir(3) : 
        Dipole               -1.2384 Ry au,         -3.1477 Debye
        Dipole field         -0.0007 Ry au, 
 
        Potential amp.        0.0812 Ry
        Total length         54.7057 bohr
 
 
     Adding external electric field

     Computed dipole along edir(3) : 
        Dipole               -1.2384 Ry au,         -3.1477 Debye
        Dipole field         -0.0007 Ry au, 
 
        Potential amp.        0.0812 Ry
        Total length         54.7057 bohr
 

     total cpu time spent up to now is      348.4 secs

     total energy              =   -8078.52160909 Ry
     estimated scf accuracy    <       0.33276271 Ry

     total magnetization       =    97.72 Bohr mag/cell
     absolute magnetization    =   100.38 Bohr mag/cell

     iteration # 24     ecut=    50.00 Ry     beta= 0.10
     Davidson diagonalization with overlap
     ethr =  3.00E-05,  avg # of iterations =  2.0

     negative rho (up, down):  4.192E-03 5.316E-03
 
     Adding external electric field

     Computed dipole along edir(3) : 
        Dipole               -1.0194 Ry au,         -2.5910 Debye
        Dipole field         -0.0006 Ry au, 
 
        Potential amp.        0.0669 Ry
        Total length         54.7057 bohr
 
 
     Adding external electric field

     Computed dipole along edir(3) : 
        Dipole               -1.0194 Ry au,         -2.5910 Debye
        Dipole field         -0.0006 Ry au, 
 
        Potential amp.        0.0669 Ry
        Total length         54.7057 bohr
 

     total cpu time spent up to now is      362.2 secs

     total energy              =   -8078.54628716 Ry
     estimated scf accuracy    <       0.20193247 Ry

     total magnetization       =    98.22 Bohr mag/cell
     absolute magnetization    =    99.96 Bohr mag/cell

     iteration # 25     ecut=    50.00 Ry     beta= 0.10
     Davidson diagonalization with overlap
     c_bands:  2 eigenvalues not converged
     ethr =  1.82E-05,  avg # of iterations = 11.5

     negative rho (up, down):  4.953E-03 5.713E-03
 
     Adding external electric field

     Computed dipole along edir(3) : 
        Dipole               -1.0664 Ry au,         -2.7104 Debye
        Dipole field         -0.0006 Ry au, 
 
        Potential amp.        0.0699 Ry
        Total length         54.7057 bohr
 
 
     Adding external electric field

     Computed dipole along edir(3) : 
        Dipole               -1.0664 Ry au,         -2.7104 Debye
        Dipole field         -0.0006 Ry au, 
 
        Potential amp.        0.0699 Ry
        Total length         54.7057 bohr
 

     total cpu time spent up to now is      385.2 secs

     total energy              =   -8078.54852408 Ry
     estimated scf accuracy    <       0.14807060 Ry

     total magnetization       =    97.22 Bohr mag/cell
     absolute magnetization    =    98.80 Bohr mag/cell

     iteration # 26     ecut=    50.00 Ry     beta= 0.10
     Davidson diagonalization with overlap
     ethr =  1.34E-05,  avg # of iterations =  2.0

     negative rho (up, down):  9.366E-03 1.020E-02
 
     Adding external electric field

     Computed dipole along edir(3) : 
        Dipole               -1.0836 Ry au,         -2.7543 Debye
        Dipole field         -0.0006 Ry au, 
 
        Potential amp.        0.0711 Ry
        Total length         54.7057 bohr
 
 
     Adding external electric field

     Computed dipole along edir(3) : 
        Dipole               -1.0836 Ry au,         -2.7543 Debye
        Dipole field         -0.0006 Ry au, 
 
        Potential amp.        0.0711 Ry
        Total length         54.7057 bohr
 

     total cpu time spent up to now is      398.9 secs

     total energy              =   -8078.55467454 Ry
     estimated scf accuracy    <       0.14120238 Ry

     total magnetization       =    97.58 Bohr mag/cell
     absolute magnetization    =    99.42 Bohr mag/cell

     iteration # 27     ecut=    50.00 Ry     beta= 0.10
     Davidson diagonalization with overlap
     ethr =  1.27E-05,  avg # of iterations =  1.5

     negative rho (up, down):  1.379E-02 1.515E-02
 
     Adding external electric field

     Computed dipole along edir(3) : 
        Dipole               -1.1083 Ry au,         -2.8171 Debye
        Dipole field         -0.0007 Ry au, 
 
        Potential amp.        0.0727 Ry
        Total length         54.7057 bohr
 
 
     Adding external electric field

     Computed dipole along edir(3) : 
        Dipole               -1.1083 Ry au,         -2.8171 Debye
        Dipole field         -0.0007 Ry au, 
 
        Potential amp.        0.0727 Ry
        Total length         54.7057 bohr
 

     total cpu time spent up to now is      412.0 secs

     total energy              =   -8078.55329318 Ry
     estimated scf accuracy    <       0.11886810 Ry

     total magnetization       =    97.72 Bohr mag/cell
     absolute magnetization    =    99.44 Bohr mag/cell

     iteration # 28     ecut=    50.00 Ry     beta= 0.10
     Davidson diagonalization with overlap
     ethr =  1.07E-05,  avg # of iterations =  1.5

     negative rho (up, down):  1.460E-02 1.593E-02
 
     Adding external electric field

     Computed dipole along edir(3) : 
        Dipole               -1.1076 Ry au,         -2.8152 Debye
        Dipole field         -0.0007 Ry au, 
 
        Potential amp.        0.0726 Ry
        Total length         54.7057 bohr
 
 
     Adding external electric field

     Computed dipole along edir(3) : 
        Dipole               -1.1076 Ry au,         -2.8152 Debye
        Dipole field         -0.0007 Ry au, 
 
        Potential amp.        0.0726 Ry
        Total length         54.7057 bohr
 

     total cpu time spent up to now is      425.1 secs

     total energy              =   -8078.55325928 Ry
     estimated scf accuracy    <       0.12820999 Ry

     total magnetization       =    97.70 Bohr mag/cell
     absolute magnetization    =    99.44 Bohr mag/cell

     iteration # 29     ecut=    50.00 Ry     beta= 0.10
     Davidson diagonalization with overlap
     ethr =  1.07E-05,  avg # of iterations =  1.0

     negative rho (up, down):  1.937E-02 2.069E-02
 
     Adding external electric field

     Computed dipole along edir(3) : 
        Dipole               -1.1137 Ry au,         -2.8307 Debye
        Dipole field         -0.0007 Ry au, 
 
        Potential amp.        0.0730 Ry
        Total length         54.7057 bohr
 
 
     Adding external electric field

     Computed dipole along edir(3) : 
        Dipole               -1.1137 Ry au,         -2.8307 Debye
        Dipole field         -0.0007 Ry au, 
 
        Potential amp.        0.0730 Ry
        Total length         54.7057 bohr
 

     total cpu time spent up to now is      437.2 secs

     total energy              =   -8078.54749647 Ry
     estimated scf accuracy    <       0.12908195 Ry

     total magnetization       =    97.67 Bohr mag/cell
     absolute magnetization    =    99.42 Bohr mag/cell

     iteration # 30     ecut=    50.00 Ry     beta= 0.10
     Davidson diagonalization with overlap
     ethr =  1.07E-05,  avg # of iterations =  1.5

     negative rho (up, down):  2.130E-02 2.298E-02
 
     Adding external electric field

     Computed dipole along edir(3) : 
        Dipole               -1.1166 Ry au,         -2.8381 Debye
        Dipole field         -0.0007 Ry au, 
 
        Potential amp.        0.0732 Ry
        Total length         54.7057 bohr
 
 
     Adding external electric field

     Computed dipole along edir(3) : 
        Dipole               -1.1166 Ry au,         -2.8381 Debye
        Dipole field         -0.0007 Ry au, 
 
        Potential amp.        0.0732 Ry
        Total length         54.7057 bohr
 

     total cpu time spent up to now is      450.2 secs

     total energy              =   -8078.54140040 Ry
     estimated scf accuracy    <       0.11811886 Ry

     total magnetization       =    97.70 Bohr mag/cell
     absolute magnetization    =    99.58 Bohr mag/cell

     iteration # 31     ecut=    50.00 Ry     beta= 0.10
     Davidson diagonalization with overlap
     ethr =  1.07E-05,  avg # of iterations =  1.5

     negative rho (up, down):  3.361E-02 3.524E-02
 
     Adding external electric field

     Computed dipole along edir(3) : 
        Dipole               -1.0530 Ry au,         -2.6765 Debye
        Dipole field         -0.0006 Ry au, 
 
        Potential amp.        0.0691 Ry
        Total length         54.7057 bohr
 
 
     Adding external electric field

     Computed dipole along edir(3) : 
        Dipole               -1.0530 Ry au,         -2.6765 Debye
        Dipole field         -0.0006 Ry au, 
 
        Potential amp.        0.0691 Ry
        Total length         54.7057 bohr
 

     total cpu time spent up to now is      463.2 secs

     total energy              =   -8078.54200657 Ry
     estimated scf accuracy    <       0.10647525 Ry

     total magnetization       =    97.66 Bohr mag/cell
     absolute magnetization    =    99.73 Bohr mag/cell

     iteration # 32     ecut=    50.00 Ry     beta= 0.10
     Davidson diagonalization with overlap
     ethr =  9.61E-06,  avg # of iterations =  2.0

     negative rho (up, down):  3.414E-02 3.555E-02
 
     Adding external electric field

     Computed dipole along edir(3) : 
        Dipole               -1.0448 Ry au,         -2.6557 Debye
        Dipole field         -0.0006 Ry au, 
 
        Potential amp.        0.0685 Ry
        Total length         54.7057 bohr
 
 
     Adding external electric field

     Computed dipole along edir(3) : 
        Dipole               -1.0448 Ry au,         -2.6557 Debye
        Dipole field         -0.0006 Ry au, 
 
        Potential amp.        0.0685 Ry
        Total length         54.7057 bohr
 

     total cpu time spent up to now is      477.1 secs

     total energy              =   -8078.54370235 Ry
     estimated scf accuracy    <       0.09355388 Ry

     total magnetization       =    97.71 Bohr mag/cell
     absolute magnetization    =    99.78 Bohr mag/cell

     iteration # 33     ecut=    50.00 Ry     beta= 0.10
     Davidson diagonalization with overlap
     ethr =  8.44E-06,  avg # of iterations =  1.5

     negative rho (up, down):  3.155E-02 3.349E-02
 
     Adding external electric field

     Computed dipole along edir(3) : 
        Dipole               -1.0567 Ry au,         -2.6859 Debye
        Dipole field         -0.0006 Ry au, 
 
        Potential amp.        0.0693 Ry
        Total length         54.7057 bohr
 
 
     Adding external electric field

     Computed dipole along edir(3) : 
        Dipole               -1.0567 Ry au,         -2.6859 Debye
        Dipole field         -0.0006 Ry au, 
 
        Potential amp.        0.0693 Ry
        Total length         54.7057 bohr
 

     total cpu time spent up to now is      490.3 secs

     total energy              =   -8078.54289148 Ry
     estimated scf accuracy    <       0.10096935 Ry

     total magnetization       =    97.74 Bohr mag/cell
     absolute magnetization    =    99.77 Bohr mag/cell

     iteration # 34     ecut=    50.00 Ry     beta= 0.10
     Davidson diagonalization with overlap
     ethr =  8.44E-06,  avg # of iterations = 12.0

     negative rho (up, down):  3.278E-02 3.434E-02
 
     Adding external electric field

     Computed dipole along edir(3) : 
        Dipole               -1.0394 Ry au,         -2.6420 Debye
        Dipole field         -0.0006 Ry au, 
 
        Potential amp.        0.0682 Ry
        Total length         54.7057 bohr
 
 
     Adding external electric field

     Computed dipole along edir(3) : 
        Dipole               -1.0394 Ry au,         -2.6420 Debye
        Dipole field         -0.0006 Ry au, 
 
        Potential amp.        0.0682 Ry
        Total length         54.7057 bohr
 

     total cpu time spent up to now is      515.1 secs

     total energy              =   -8078.54635337 Ry
     estimated scf accuracy    <       0.12266973 Ry

     total magnetization       =    97.60 Bohr mag/cell
     absolute magnetization    =    99.66 Bohr mag/cell

     iteration # 35     ecut=    50.00 Ry     beta= 0.10
     Davidson diagonalization with overlap
     ethr =  8.44E-06,  avg # of iterations =  1.0

     negative rho (up, down):  2.902E-02 3.036E-02
 
     Adding external electric field

     Computed dipole along edir(3) : 
        Dipole               -1.0603 Ry au,         -2.6951 Debye
        Dipole field         -0.0006 Ry au, 
 
        Potential amp.        0.0695 Ry
        Total length         54.7057 bohr
 
 
     Adding external electric field

     Computed dipole along edir(3) : 
        Dipole               -1.0603 Ry au,         -2.6951 Debye
        Dipole field         -0.0006 Ry au, 
 
        Potential amp.        0.0695 Ry
        Total length         54.7057 bohr
 

     total cpu time spent up to now is      527.2 secs

     total energy              =   -8078.54739700 Ry
     estimated scf accuracy    <       0.12820980 Ry

     total magnetization       =    97.73 Bohr mag/cell
     absolute magnetization    =    99.67 Bohr mag/cell

     iteration # 36     ecut=    50.00 Ry     beta= 0.10
     Davidson diagonalization with overlap
     ethr =  8.44E-06,  avg # of iterations =  1.5

     negative rho (up, down):  2.488E-02 2.520E-02
 
     Adding external electric field

     Computed dipole along edir(3) : 
        Dipole               -0.9909 Ry au,         -2.5186 Debye
        Dipole field         -0.0006 Ry au, 
 
        Potential amp.        0.0650 Ry
        Total length         54.7057 bohr
 
 
     Adding external electric field

     Computed dipole along edir(3) : 
        Dipole               -0.9909 Ry au,         -2.5186 Debye
        Dipole field         -0.0006 Ry au, 
 
        Potential amp.        0.0650 Ry
        Total length         54.7057 bohr
 

     total cpu time spent up to now is      540.3 secs

     total energy              =   -8078.55135229 Ry
     estimated scf accuracy    <       0.13741322 Ry

     total magnetization       =    97.76 Bohr mag/cell
     absolute magnetization    =    99.68 Bohr mag/cell

     iteration # 37     ecut=    50.00 Ry     beta= 0.10
     Davidson diagonalization with overlap
     ethr =  8.44E-06,  avg # of iterations =  1.0

     negative rho (up, down):  2.500E-02 2.566E-02
 
     Adding external electric field

     Computed dipole along edir(3) : 
        Dipole               -0.9969 Ry au,         -2.5340 Debye
        Dipole field         -0.0006 Ry au, 
 
        Potential amp.        0.0654 Ry
        Total length         54.7057 bohr
 
 
     Adding external electric field

     Computed dipole along edir(3) : 
        Dipole               -0.9969 Ry au,         -2.5340 Debye
        Dipole field         -0.0006 Ry au, 
 
        Potential amp.        0.0654 Ry
        Total length         54.7057 bohr
 

     total cpu time spent up to now is      552.5 secs

     total energy              =   -8078.55194847 Ry
     estimated scf accuracy    <       0.11330020 Ry

     total magnetization       =    97.63 Bohr mag/cell
     absolute magnetization    =    99.38 Bohr mag/cell

     iteration # 38     ecut=    50.00 Ry     beta= 0.10
     Davidson diagonalization with overlap
     ethr =  8.44E-06,  avg # of iterations =  1.0

     negative rho (up, down):  2.491E-02 2.499E-02
 
     Adding external electric field

     Computed dipole along edir(3) : 
        Dipole               -0.9868 Ry au,         -2.5082 Debye
        Dipole field         -0.0006 Ry au, 
 
        Potential amp.        0.0647 Ry
        Total length         54.7057 bohr
 
 
     Adding external electric field

     Computed dipole along edir(3) : 
        Dipole               -0.9868 Ry au,         -2.5082 Debye
        Dipole field         -0.0006 Ry au, 
 
        Potential amp.        0.0647 Ry
        Total length         54.7057 bohr
 

     total cpu time spent up to now is      564.6 secs

     total energy              =   -8078.55040001 Ry
     estimated scf accuracy    <       0.10973264 Ry

     total magnetization       =    97.63 Bohr mag/cell
     absolute magnetization    =    99.37 Bohr mag/cell

     iteration # 39     ecut=    50.00 Ry     beta= 0.10
     Davidson diagonalization with overlap
     ethr =  8.44E-06,  avg # of iterations =  1.0

     negative rho (up, down):  1.901E-02 2.001E-02
 
     Adding external electric field

     Computed dipole along edir(3) : 
        Dipole               -1.0426 Ry au,         -2.6501 Debye
        Dipole field         -0.0006 Ry au, 
 
        Potential amp.        0.0684 Ry
        Total length         54.7057 bohr
 
 
     Adding external electric field

     Computed dipole along edir(3) : 
        Dipole               -1.0426 Ry au,         -2.6501 Debye
        Dipole field         -0.0006 Ry au, 
 
        Potential amp.        0.0684 Ry
        Total length         54.7057 bohr
 

     total cpu time spent up to now is      576.9 secs

     total energy              =   -8078.54512001 Ry
     estimated scf accuracy    <       0.11076691 Ry

     total magnetization       =    97.65 Bohr mag/cell
     absolute magnetization    =    99.43 Bohr mag/cell

     iteration # 40     ecut=    50.00 Ry     beta= 0.10
     Davidson diagonalization with overlap
     ethr =  8.44E-06,  avg # of iterations =  1.0

     negative rho (up, down):  2.461E-02 2.556E-02
 
     Adding external electric field

     Computed dipole along edir(3) : 
        Dipole               -0.9896 Ry au,         -2.5152 Debye
        Dipole field         -0.0006 Ry au, 
 
        Potential amp.        0.0649 Ry
        Total length         54.7057 bohr
 
 
     Adding external electric field

     Computed dipole along edir(3) : 
        Dipole               -0.9896 Ry au,         -2.5152 Debye
        Dipole field         -0.0006 Ry au, 
 
        Potential amp.        0.0649 Ry
        Total length         54.7057 bohr
 

     total cpu time spent up to now is      588.9 secs

     total energy              =   -8078.55151753 Ry
     estimated scf accuracy    <       0.10991409 Ry

     total magnetization       =    97.63 Bohr mag/cell
     absolute magnetization    =    99.57 Bohr mag/cell

     iteration # 41     ecut=    50.00 Ry     beta= 0.10
     Davidson diagonalization with overlap
     ethr =  8.44E-06,  avg # of iterations =  1.0

     negative rho (up, down):  2.777E-02 2.748E-02
 
     Adding external electric field

     Computed dipole along edir(3) : 
        Dipole               -0.9865 Ry au,         -2.5074 Debye
        Dipole field         -0.0006 Ry au, 
 
        Potential amp.        0.0647 Ry
        Total length         54.7057 bohr
 
 
     Adding external electric field

     Computed dipole along edir(3) : 
        Dipole               -0.9865 Ry au,         -2.5074 Debye
        Dipole field         -0.0006 Ry au, 
 
        Potential amp.        0.0647 Ry
        Total length         54.7057 bohr
 

     total cpu time spent up to now is      601.0 secs

     total energy              =   -8078.54815869 Ry
     estimated scf accuracy    <       0.11814256 Ry

     total magnetization       =    97.66 Bohr mag/cell
     absolute magnetization    =    99.44 Bohr mag/cell

     iteration # 42     ecut=    50.00 Ry     beta= 0.10
     Davidson diagonalization with overlap
     ethr =  8.44E-06,  avg # of iterations =  1.0

     negative rho (up, down):  2.242E-02 2.363E-02
 
     Adding external electric field

     Computed dipole along edir(3) : 
        Dipole               -1.0321 Ry au,         -2.6232 Debye
        Dipole field         -0.0006 Ry au, 
 
        Potential amp.        0.0677 Ry
        Total length         54.7057 bohr
 
 
     Adding external electric field

     Computed dipole along edir(3) : 
        Dipole               -1.0321 Ry au,         -2.6232 Debye
        Dipole field         -0.0006 Ry au, 
 
        Potential amp.        0.0677 Ry
        Total length         54.7057 bohr
 

     total cpu time spent up to now is      613.1 secs

     total energy              =   -8078.54713694 Ry
     estimated scf accuracy    <       0.12182958 Ry

     total magnetization       =    97.84 Bohr mag/cell
     absolute magnetization    =    99.66 Bohr mag/cell

     iteration # 43     ecut=    50.00 Ry     beta= 0.10
     Davidson diagonalization with overlap
     ethr =  8.44E-06,  avg # of iterations =  1.0

     negative rho (up, down):  2.379E-02 2.538E-02
 
     Adding external electric field

     Computed dipole along edir(3) : 
        Dipole               -1.0489 Ry au,         -2.6660 Debye
        Dipole field         -0.0006 Ry au, 
 
        Potential amp.        0.0688 Ry
        Total length         54.7057 bohr
 
 
     Adding external electric field

     Computed dipole along edir(3) : 
        Dipole               -1.0489 Ry au,         -2.6660 Debye
        Dipole field         -0.0006 Ry au, 
 
        Potential amp.        0.0688 Ry
        Total length         54.7057 bohr
 

     total cpu time spent up to now is      625.1 secs

     total energy              =   -8078.54446842 Ry
     estimated scf accuracy    <       0.11178415 Ry

     total magnetization       =    97.48 Bohr mag/cell
     absolute magnetization    =    99.32 Bohr mag/cell

     iteration # 44     ecut=    50.00 Ry     beta= 0.10
     Davidson diagonalization with overlap
     ethr =  8.44E-06,  avg # of iterations =  1.0

     negative rho (up, down):  2.041E-02 2.132E-02
 
     Adding external electric field

     Computed dipole along edir(3) : 
        Dipole               -1.0649 Ry au,         -2.7068 Debye
        Dipole field         -0.0006 Ry au, 
 
        Potential amp.        0.0698 Ry
        Total length         54.7057 bohr
 
 
     Adding external electric field

     Computed dipole along edir(3) : 
        Dipole               -1.0649 Ry au,         -2.7068 Debye
        Dipole field         -0.0006 Ry au, 
 
        Potential amp.        0.0698 Ry
        Total length         54.7057 bohr
 

     total cpu time spent up to now is      637.1 secs

     total energy              =   -8078.54896811 Ry
     estimated scf accuracy    <       0.11366483 Ry

     total magnetization       =    97.43 Bohr mag/cell
     absolute magnetization    =    99.39 Bohr mag/cell

     iteration # 45     ecut=    50.00 Ry     beta= 0.10
     Davidson diagonalization with overlap
     ethr =  8.44E-06,  avg # of iterations =  1.0

     negative rho (up, down):  1.088E-02 1.058E-02
 
     Adding external electric field

     Computed dipole along edir(3) : 
        Dipole               -1.1494 Ry au,         -2.9215 Debye
        Dipole field         -0.0007 Ry au, 
 
        Potential amp.        0.0754 Ry
        Total length         54.7057 bohr
 
 
     Adding external electric field

     Computed dipole along edir(3) : 
        Dipole               -1.1494 Ry au,         -2.9215 Debye
        Dipole field         -0.0007 Ry au, 
 
        Potential amp.        0.0754 Ry
        Total length         54.7057 bohr
 

     total cpu time spent up to now is      649.3 secs

     total energy              =   -8078.55121759 Ry
     estimated scf accuracy    <       0.10020179 Ry

     total magnetization       =    97.57 Bohr mag/cell
     absolute magnetization    =    99.40 Bohr mag/cell

     iteration # 46     ecut=    50.00 Ry     beta= 0.10
     Davidson diagonalization with overlap
     ethr =  8.44E-06,  avg # of iterations =  2.0

     negative rho (up, down):  1.294E-02 1.272E-02
 
     Adding external electric field

     Computed dipole along edir(3) : 
        Dipole               -1.1299 Ry au,         -2.8719 Debye
        Dipole field         -0.0007 Ry au, 
 
        Potential amp.        0.0741 Ry
        Total length         54.7057 bohr
 
 
     Adding external electric field

     Computed dipole along edir(3) : 
        Dipole               -1.1299 Ry au,         -2.8719 Debye
        Dipole field         -0.0007 Ry au, 
 
        Potential amp.        0.0741 Ry
        Total length         54.7057 bohr
 

     total cpu time spent up to now is      663.3 secs

     total energy              =   -8078.55163561 Ry
     estimated scf accuracy    <       0.09176776 Ry

     total magnetization       =    97.63 Bohr mag/cell
     absolute magnetization    =    99.39 Bohr mag/cell

     iteration # 47     ecut=    50.00 Ry     beta= 0.10
     Davidson diagonalization with overlap
     ethr =  8.28E-06,  avg # of iterations =  1.0

     negative rho (up, down):  1.264E-02 1.243E-02
 
     Adding external electric field

     Computed dipole along edir(3) : 
        Dipole               -1.1281 Ry au,         -2.8674 Debye
        Dipole field         -0.0007 Ry au, 
 
        Potential amp.        0.0740 Ry
        Total length         54.7057 bohr
 
 
     Adding external electric field

     Computed dipole along edir(3) : 
        Dipole               -1.1281 Ry au,         -2.8674 Debye
        Dipole field         -0.0007 Ry au, 
 
        Potential amp.        0.0740 Ry
        Total length         54.7057 bohr
 

     total cpu time spent up to now is      675.4 secs

     total energy              =   -8078.55232858 Ry
     estimated scf accuracy    <       0.08644653 Ry

     total magnetization       =    97.60 Bohr mag/cell
     absolute magnetization    =    99.35 Bohr mag/cell

     iteration # 48     ecut=    50.00 Ry     beta= 0.10
     Davidson diagonalization with overlap
     ethr =  7.80E-06,  avg # of iterations =  1.0

     negative rho (up, down):  1.016E-02 1.032E-02
 
     Adding external electric field

     Computed dipole along edir(3) : 
        Dipole               -1.1567 Ry au,         -2.9401 Debye
        Dipole field         -0.0007 Ry au, 
 
        Potential amp.        0.0759 Ry
        Total length         54.7057 bohr
 
 
     Adding external electric field

     Computed dipole along edir(3) : 
        Dipole               -1.1567 Ry au,         -2.9401 Debye
        Dipole field         -0.0007 Ry au, 
 
        Potential amp.        0.0759 Ry
        Total length         54.7057 bohr
 

     total cpu time spent up to now is      687.3 secs

     total energy              =   -8078.55369059 Ry
     estimated scf accuracy    <       0.08848506 Ry

     total magnetization       =    97.58 Bohr mag/cell
     absolute magnetization    =    99.30 Bohr mag/cell

     iteration # 49     ecut=    50.00 Ry     beta= 0.10
     Davidson diagonalization with overlap
     ethr =  7.80E-06,  avg # of iterations =  1.0

     negative rho (up, down):  1.487E-02 1.474E-02
 
     Adding external electric field

     Computed dipole along edir(3) : 
        Dipole               -1.1350 Ry au,         -2.8848 Debye
        Dipole field         -0.0007 Ry au, 
 
        Potential amp.        0.0744 Ry
        Total length         54.7057 bohr
 
 
     Adding external electric field

     Computed dipole along edir(3) : 
        Dipole               -1.1350 Ry au,         -2.8848 Debye
        Dipole field         -0.0007 Ry au, 
 
        Potential amp.        0.0744 Ry
        Total length         54.7057 bohr
 

     total cpu time spent up to now is      699.2 secs

     total energy              =   -8078.55331726 Ry
     estimated scf accuracy    <       0.08359782 Ry

     total magnetization       =    97.61 Bohr mag/cell
     absolute magnetization    =    99.30 Bohr mag/cell

     iteration # 50     ecut=    50.00 Ry     beta= 0.10
     Davidson diagonalization with overlap
     ethr =  7.54E-06,  avg # of iterations =  1.0

     negative rho (up, down):  5.727E-03 5.828E-03
 
     Adding external electric field

     Computed dipole along edir(3) : 
        Dipole               -1.1057 Ry au,         -2.8105 Debye
        Dipole field         -0.0007 Ry au, 
 
        Potential amp.        0.0725 Ry
        Total length         54.7057 bohr
 
 
     Adding external electric field

     Computed dipole along edir(3) : 
        Dipole               -1.1057 Ry au,         -2.8105 Debye
        Dipole field         -0.0007 Ry au, 
 
        Potential amp.        0.0725 Ry
        Total length         54.7057 bohr
 

     total cpu time spent up to now is      711.2 secs

     total energy              =   -8078.55266313 Ry
     estimated scf accuracy    <       0.08833508 Ry

     total magnetization       =    97.60 Bohr mag/cell
     absolute magnetization    =    99.27 Bohr mag/cell

     iteration # 51     ecut=    50.00 Ry     beta= 0.10
     Davidson diagonalization with overlap
     ethr =  7.54E-06,  avg # of iterations =  1.0

     negative rho (up, down):  8.245E-03 8.337E-03
 
     Adding external electric field

     Computed dipole along edir(3) : 
        Dipole               -1.1053 Ry au,         -2.8094 Debye
        Dipole field         -0.0007 Ry au, 
 
        Potential amp.        0.0725 Ry
        Total length         54.7057 bohr
 
 
     Adding external electric field

     Computed dipole along edir(3) : 
        Dipole               -1.1053 Ry au,         -2.8094 Debye
        Dipole field         -0.0007 Ry au, 
 
        Potential amp.        0.0725 Ry
        Total length         54.7057 bohr
 

     total cpu time spent up to now is      723.2 secs

     total energy              =   -8078.55081571 Ry
     estimated scf accuracy    <       0.09286617 Ry

     total magnetization       =    97.60 Bohr mag/cell
     absolute magnetization    =    99.33 Bohr mag/cell

     iteration # 52     ecut=    50.00 Ry     beta= 0.10
     Davidson diagonalization with overlap
     ethr =  7.54E-06,  avg # of iterations =  1.0

     negative rho (up, down):  3.038E-03 3.617E-03
 
     Adding external electric field

     Computed dipole along edir(3) : 
        Dipole               -1.1529 Ry au,         -2.9304 Debye
        Dipole field         -0.0007 Ry au, 
 
        Potential amp.        0.0756 Ry
        Total length         54.7057 bohr
 
 
     Adding external electric field

     Computed dipole along edir(3) : 
        Dipole               -1.1529 Ry au,         -2.9304 Debye
        Dipole field         -0.0007 Ry au, 
 
        Potential amp.        0.0756 Ry
        Total length         54.7057 bohr
 

     total cpu time spent up to now is      735.2 secs

     total energy              =   -8078.55170517 Ry
     estimated scf accuracy    <       0.09622384 Ry

     total magnetization       =    97.63 Bohr mag/cell
     absolute magnetization    =    99.42 Bohr mag/cell

     iteration # 53     ecut=    50.00 Ry     beta= 0.10
     Davidson diagonalization with overlap
     ethr =  7.54E-06,  avg # of iterations =  1.0

     negative rho (up, down):  3.863E-03 4.415E-03
 
     Adding external electric field

     Computed dipole along edir(3) : 
        Dipole               -1.1928 Ry au,         -3.0318 Debye
        Dipole field         -0.0007 Ry au, 
 
        Potential amp.        0.0782 Ry
        Total length         54.7057 bohr
 
 
     Adding external electric field

     Computed dipole along edir(3) : 
        Dipole               -1.1928 Ry au,         -3.0318 Debye
        Dipole field         -0.0007 Ry au, 
 
        Potential amp.        0.0782 Ry
        Total length         54.7057 bohr
 

     total cpu time spent up to now is      747.3 secs

     total energy              =   -8078.55321074 Ry
     estimated scf accuracy    <       0.08814182 Ry

     total magnetization       =    97.42 Bohr mag/cell
     absolute magnetization    =    99.22 Bohr mag/cell

     iteration # 54     ecut=    50.00 Ry     beta= 0.10
     Davidson diagonalization with overlap
     ethr =  7.54E-06,  avg # of iterations =  1.0

     negative rho (up, down):  2.435E-03 2.251E-03
 
     Adding external electric field

     Computed dipole along edir(3) : 
        Dipole               -1.1590 Ry au,         -2.9458 Debye
        Dipole field         -0.0007 Ry au, 
 
        Potential amp.        0.0760 Ry
        Total length         54.7057 bohr
 
 
     Adding external electric field

     Computed dipole along edir(3) : 
        Dipole               -1.1590 Ry au,         -2.9458 Debye
        Dipole field         -0.0007 Ry au, 
 
        Potential amp.        0.0760 Ry
        Total length         54.7057 bohr
 

     total cpu time spent up to now is      759.3 secs

     total energy              =   -8078.55734819 Ry
     estimated scf accuracy    <       0.09514013 Ry

     total magnetization       =    97.49 Bohr mag/cell
     absolute magnetization    =    99.26 Bohr mag/cell

     iteration # 55     ecut=    50.00 Ry     beta= 0.10
     Davidson diagonalization with overlap
     ethr =  7.54E-06,  avg # of iterations =  2.0

     negative rho (up, down):  3.798E-03 3.932E-03
 
     Adding external electric field

     Computed dipole along edir(3) : 
        Dipole               -1.1655 Ry au,         -2.9623 Debye
        Dipole field         -0.0007 Ry au, 
 
        Potential amp.        0.0764 Ry
        Total length         54.7057 bohr
 
 
     Adding external electric field

     Computed dipole along edir(3) : 
        Dipole               -1.1655 Ry au,         -2.9623 Debye
        Dipole field         -0.0007 Ry au, 
 
        Potential amp.        0.0764 Ry
        Total length         54.7057 bohr
 

     total cpu time spent up to now is      772.9 secs

     total energy              =   -8078.55515497 Ry
     estimated scf accuracy    <       0.08019821 Ry

     total magnetization       =    97.67 Bohr mag/cell
     absolute magnetization    =    99.34 Bohr mag/cell

     iteration # 56     ecut=    50.00 Ry     beta= 0.10
     Davidson diagonalization with overlap
     ethr =  7.24E-06,  avg # of iterations =  1.0

     negative rho (up, down):  1.851E-03 1.908E-03
 
     Adding external electric field

     Computed dipole along edir(3) : 
        Dipole               -1.1752 Ry au,         -2.9870 Debye
        Dipole field         -0.0007 Ry au, 
 
        Potential amp.        0.0771 Ry
        Total length         54.7057 bohr
 
 
     Adding external electric field

     Computed dipole along edir(3) : 
        Dipole               -1.1752 Ry au,         -2.9870 Debye
        Dipole field         -0.0007 Ry au, 
 
        Potential amp.        0.0771 Ry
        Total length         54.7057 bohr
 

     total cpu time spent up to now is      785.2 secs

     total energy              =   -8078.55951629 Ry
     estimated scf accuracy    <       0.07972591 Ry

     total magnetization       =    97.56 Bohr mag/cell
     absolute magnetization    =    99.27 Bohr mag/cell

     iteration # 57     ecut=    50.00 Ry     beta= 0.10
     Davidson diagonalization with overlap
     ethr =  7.20E-06,  avg # of iterations =  1.0

     negative rho (up, down):  3.521E-03 3.584E-03
 
     Adding external electric field

     Computed dipole along edir(3) : 
        Dipole               -1.1093 Ry au,         -2.8197 Debye
        Dipole field         -0.0007 Ry au, 
 
        Potential amp.        0.0728 Ry
        Total length         54.7057 bohr
 
 
     Adding external electric field

     Computed dipole along edir(3) : 
        Dipole               -1.1093 Ry au,         -2.8197 Debye
        Dipole field         -0.0007 Ry au, 
 
        Potential amp.        0.0728 Ry
        Total length         54.7057 bohr
 

     total cpu time spent up to now is      797.2 secs

     total energy              =   -8078.55969581 Ry
     estimated scf accuracy    <       0.07943777 Ry

     total magnetization       =    97.59 Bohr mag/cell
     absolute magnetization    =    99.16 Bohr mag/cell

     iteration # 58     ecut=    50.00 Ry     beta= 0.10
     Davidson diagonalization with overlap
     ethr =  7.17E-06,  avg # of iterations =  1.0

     negative rho (up, down):  4.104E-03 4.080E-03
 
     Adding external electric field

     Computed dipole along edir(3) : 
        Dipole               -1.1281 Ry au,         -2.8673 Debye
        Dipole field         -0.0007 Ry au, 
 
        Potential amp.        0.0740 Ry
        Total length         54.7057 bohr
 
 
[...]
    -5.9996  -5.9842  -5.9629  -5.9448  -5.9000  -5.8879  -5.8752  -5.8546
    -5.8475  -5.8348  -5.8085  -5.7807  -5.7724  -5.7320  -5.7066  -5.6842
    -5.6803  -5.6358  -5.6194  -5.6093  -5.5956  -5.5883  -5.5703  -5.5498
    -5.5359  -5.5136  -5.5060  -5.4834  -5.4815  -5.4777  -5.4439  -5.3753
    -5.3530  -5.3099  -5.2727  -5.2599  -5.2579  -5.2511  -5.2392  -5.1708
    -5.1262  -5.1166  -5.0845  -5.0556  -5.0327  -5.0016  -4.9302  -4.9108
    -4.8791  -4.8275  -4.8214  -4.7990  -4.7931  -4.7542  -4.7421  -4.7064
    -4.6698  -4.6345  -4.5958  -4.5730  -4.5505  -4.4564  -4.4185  -4.3992
    -4.3952  -4.3819  -4.3634  -4.2994  -4.2702  -4.2336  -4.2279  -4.2111
    -4.1861  -4.1689  -4.1179  -4.0605  -4.0415  -3.9975  -3.9920  -3.9663
    -3.9031  -3.8675  -3.8435  -3.8385  -3.8191  -3.7536  -3.7457  -3.7410
    -3.7259  -3.7026  -3.6821  -3.6439  -3.6292  -3.6096  -3.6055  -3.5825
    -3.5455  -3.5350  -3.5275  -3.5129  -3.5026  -3.4899  -3.4561  -3.4324
    -3.4142  -3.3881  -3.3842  -3.3806  -3.3711  -3.3644  -3.3321  -3.3177
    -3.2935  -3.2867  -3.2771  -3.2416  -3.2219  -3.2002  -3.1699  -3.1522
    -3.1435  -3.0917  -3.0841  -3.0686  -3.0472  -3.0408  -3.0242  -3.0097
    -2.9825  -2.9549  -2.9280  -2.9027  -2.8750  -2.8605  -2.8507  -2.8284
    -2.8076  -2.7887  -2.7292  -2.7175  -2.7119  -2.6990  -2.6954  -2.6827
    -2.6708  -2.6567  -2.6537  -2.6304  -2.6113  -2.5991  -2.5831  -2.5788
    -2.5582  -2.5454  -2.5310  -2.5125  -2.5084  -2.5051  -2.4837  -2.4688
    -2.4378  -2.4222  -2.4047  -2.3904  -2.3803  -2.3436  -2.3412  -2.3197
    -2.3003  -2.2834  -2.2743  -2.2526  -2.2248  -2.2027  -2.1971  -2.1906
    -2.1602  -2.1462  -2.1318  -2.0998  -2.0823  -2.0591  -2.0461  -2.0319
    -2.0140  -1.9963  -1.9808  -1.9740  -1.9582  -1.9191  -1.8940  -1.8878
    -1.8785  -1.8646  -1.8609  -1.8416  -1.8360  -1.8206  -1.8067  -1.8005
    -1.7293  -1.7016  -1.6858  -1.6549  -1.6417  -1.6348  -1.6172  -1.5959
    -1.5939  -1.5867  -1.5741  -1.5400  -1.5375  -1.5249  -1.4838  -1.4504
    -1.4326  -1.4237  -1.3827  -1.3715  -1.3569  -1.3423  -1.3283  -1.3209
    -1.3068  -1.2892  -1.2575  -1.2288  -1.1889  -1.1726  -1.1521  -1.1050
    -1.0804  -1.0309  -1.0126  -1.0028  -0.9960  -0.8501  -0.8498  -0.8071
    -0.7446  -0.6427  -0.6222  -0.5739  -0.4640  -0.4211  -0.2827  -0.2384
     0.1716   0.1838   0.2276   0.2467   0.2542   0.2807   0.2992   0.3112
     0.3295   0.3341   0.3613   0.3686   0.3723   0.3793   0.3903   0.3968
     0.4024   0.4055   0.4198   0.4225   0.4360   0.4459   0.4575   0.4614
     0.4663   0.4723   0.4795   0.4834   0.4967   0.5055   0.5115   0.5232
     0.5257   0.5337   0.5490   0.5626   0.5676   0.5718   0.5888   0.5959
     0.6020   0.6157   0.6239   0.6308   0.6360   0.6451   0.6532   0.6577
     0.6680   0.6713   0.6935   0.6965   0.7112   0.7155   0.7243   0.7327
     0.7343   0.7513   0.7682   0.7714   0.7835   0.7948   0.8017   0.8129
     0.8162   0.8306   0.8418   0.8497   0.8568   0.8624   0.8676   0.8922
     0.9000   0.9515   0.9734   1.0200   1.0322   1.0503   1.1230   1.1423
     1.6816   1.7553   1.7749   1.8034   1.8169   1.8234   1.8341   1.8671
     1.8774   1.9002   1.9299   1.9556   1.9746   1.9891   2.0034   2.0335
     2.0461   2.0789   2.0816   2.1017   2.1025   2.1314   2.1346   2.1641
     2.1731   2.1908   2.1966   2.2083   2.2252   2.2442   2.2699   2.2787
     2.2904   2.2959   2.3219   2.3435   2.3561   2.3737   2.4355   2.4428
     2.4620   2.4752   2.4923   2.5063   2.5213   2.5317   2.5881   2.5972
     2.6109   2.6506   2.6879   2.7960   2.8203   2.8547   2.8617   3.5527
     3.6001   3.6875   3.7509   3.7804   3.8227   3.8281   3.8438   3.8758
     3.8803   3.9362   3.9447   3.9596   3.9947   3.9984   4.0155   4.0304
     4.0630   4.0777   4.0917   4.1010   4.1345   4.1511   4.1648   4.2001
     4.2070   4.2186   4.2433   4.2618   4.3027   4.6017   4.7008   4.7661
     4.7830   4.8525   4.8938   4.9197   4.9746   4.9877   5.0082   5.0582
     5.0728   5.0980   5.1453   5.1670   5.2072   5.2180   5.3862   6.1784
     6.3506   6.4414   6.5735   6.7042   6.7143   6.7508   6.8499   6.8716
     6.9474   6.9625   7.0086   7.0505   7.2187   7.2986   7.3434   7.3606
     7.3821   7.4218   7.4860   7.5121   7.5704   7.5885   7.7069   7.7133
     7.8254   7.8396   7.8873   7.9187   7.9511   7.9917   8.0153   8.0488
     8.0722   8.1013   8.1103   8.1608   8.1947   8.2041   8.2347   8.2826
     8.3011   8.3372   8.3615   8.3654   8.3840   8.4096   8.4211   8.4405
     8.4546   8.4742   8.5270   8.5564   8.5579   8.5733   8.6100   8.6452
     8.6526

     the Fermi energy is     1.6822 ev

!    total energy              =   -8078.55890677 Ry
     estimated scf accuracy    <       0.00000074 Ry
     smearing contrib. (-TS)   =      -0.02331095 Ry
     internal energy E=F+TS    =   -8078.53559582 Ry

     The total energy is F=E-TS. E is the sum of the following terms:
     one-electron contribution =  -94696.02463268 Ry
     hartree contribution      =   47932.79800953 Ry
     xc contribution           =   -2177.38909830 Ry
     ewald contribution        =   40863.85053534 Ry
     Dispersion Correction     =      -1.77042464 Ry
     electric field correction =       0.00001493 Ry

     total magnetization       =    97.45 Bohr mag/cell
     absolute magnetization    =    98.66 Bohr mag/cell

     convergence has been achieved in 146 iterations

     negative rho (up, down):  1.163E-03 6.260E-04

     Forces acting on atoms (cartesian axes, Ry/au):

     atom    1 type  1   force =     0.02424236   -0.01775754    0.01975823
     atom    2 type  1   force =    -0.00191930    0.00022073   -0.00572837
     atom    3 type  2   force =    -0.03025052   -0.01554625   -0.00871858
     atom    4 type  1   force =     0.00204041   -0.00342616   -0.00479098
     atom    5 type  1   force =    -0.00381017    0.00213777   -0.00202506
     atom    6 type  1   force =     0.00259282    0.00756801   -0.00449845
     atom    7 type  1   force =     0.03184310   -0.01960162    0.01760760
     atom    8 type  2   force =    -0.00193371    0.00025415   -0.00934995
     atom    9 type  2   force =    -0.02886298   -0.01515330   -0.00867759
     atom   10 type  1   force =     0.00192600   -0.00315218   -0.00462563
     atom   11 type  1   force =    -0.00338166    0.00248733   -0.00112695
     atom   12 type  1   force =     0.00354774    0.00698282   -0.00398654
     atom   13 type  3   force =     0.00213098    0.00072890   -0.00757714
     atom   14 type  3   force =    -0.02975465    0.04990382   -0.06593950
     atom   15 type  3   force =     0.03466439    0.03760287   -0.05979527
     atom   16 type  3   force =    -0.00440998    0.00309039   -0.00094560
     atom   17 type  4   force =    -0.00198810    0.00136669    0.00284489
     atom   18 type  4   force =    -0.00157785   -0.00519093    0.02729609
     atom   19 type  4   force =     0.00396315    0.00279082    0.02945255
     atom   20 type  4   force =     0.00005385   -0.00269825   -0.00483127
     atom   21 type  4   force =    -0.00301223   -0.00230731    0.00339711
     atom   22 type  4   force =     0.00476238   -0.00335981    0.03442726
     atom   23 type  4   force =    -0.00599613   -0.00113297    0.03257758
     atom   24 type  4   force =     0.00069237   -0.00100491    0.00011093
     atom   25 type  4   force =    -0.00131944    0.00082904    0.00217398
     atom   26 type  4   force =    -0.01455926   -0.02265286   -0.00179607
     atom   27 type  4   force =     0.00180438   -0.00069389    0.00118900
     atom   28 type  4   force =    -0.01759684    0.00341107    0.00120256
     atom   29 type  4   force =     0.02057295   -0.00457995    0.00829796
     atom   30 type  4   force =     0.01246798   -0.03398863    0.00115851
     atom   31 type  4   force =     0.00052764    0.00092868    0.00232204
     atom   32 type  4   force =    -0.00215277    0.00004124    0.00266496
     atom   33 type  3   force =    -0.00054564   -0.00161714   -0.00506179
     atom   34 type  3   force =    -0.03022405    0.05981853   -0.08312391
     atom   35 type  3   force =     0.03460588    0.03341030   -0.05923068
     atom   36 type  3   force =    -0.00386365    0.00470248   -0.00071805
     atom   37 type  4   force =    -0.00105651    0.00136640    0.00313518
     atom   38 type  4   force =    -0.00306720   -0.00558625    0.03286673
     atom   39 type  4   force =     0.00441150    0.00391167    0.02921196
     atom   40 type  4   force =     0.00018768   -0.00319504   -0.00491595
     atom   41 type  4   force =    -0.00006453    0.00004809    0.00355905
     atom   42 type  4   force =     0.00544947    0.00022120    0.02013982
     atom   43 type  4   force =    -0.00180121    0.00033431    0.03465689
     atom   44 type  4   force =     0.00091798   -0.00086075    0.00008024
     atom   45 type  4   force =    -0.00021316   -0.00271193    0.00126724
     atom   46 type  4   force =    -0.01516914   -0.02031512   -0.00046042
     atom   47 type  4   force =     0.00187963   -0.00059186    0.00126530
     atom   48 type  4   force =    -0.01793984    0.00402794    0.00164189
     atom   49 type  4   force =     0.01634670   -0.00274189    0.00502029
     atom   50 type  4   force =     0.01184128   -0.03669880    0.00438459
     atom   51 type  4   force =     0.00105919    0.00090728    0.00171480
     atom   52 type  4   force =     0.00094342   -0.00224228    0.00362726
     atom   53 type  1   force =     0.00157657    0.00061564   -0.00072712
     atom   54 type  1   force =     0.00039618   -0.00073548    0.00272175
     atom   55 type  2   force =    -0.00000096   -0.00046178   -0.00075150
     atom   56 type  1   force =    -0.00092114    0.00069007   -0.00052717
     atom   57 type  1   force =     0.00033391   -0.00000597    0.00038247
     atom   58 type  1   force =     0.00045180   -0.00009127    0.00029816
     atom   59 type  1   force =     0.00031804    0.00091265   -0.00096048
     atom   60 type  2   force =    -0.00089445   -0.00109354    0.00676262
     atom   61 type  2   force =    -0.00040990   -0.00019573   -0.00068246
     atom   62 type  1   force =    -0.00049075    0.00142416    0.00000244
     atom   63 type  1   force =    -0.00042559    0.00010310    0.00037683
     atom   64 type  1   force =    -0.00025455   -0.00027120    0.00006913
     atom   65 type  3   force =    -0.00072067   -0.00174268    0.00313100
     atom   66 type  3   force =     0.00011399   -0.00011878   -0.00158769
     atom   67 type  3   force =     0.00038412    0.00049381   -0.00126635
     atom   68 type  3   force =    -0.00109101   -0.00061219    0.00296474
     atom   69 type  4   force =    -0.00084169    0.00026362   -0.00173092
     atom   70 type  4   force =    -0.00011653    0.00013418    0.00045028
     atom   71 type  4   force =     0.00012333   -0.00021320    0.00036461
     atom   72 type  4   force =     0.00053277   -0.00048565   -0.00116135
     atom   73 type  4   force =     0.00073410    0.00028866   -0.00018009
     atom   74 type  4   force =    -0.00016908   -0.00065810    0.00184896
     atom   75 type  4   force =    -0.00006919   -0.00004171    0.00050661
     atom   76 type  4   force =    -0.00072178   -0.00090648    0.00167769
     atom   77 type  4   force =    -0.00078120    0.00089055   -0.00010473
     atom   78 type  4   force =    -0.00030512    0.00003639    0.00035225
     atom   79 type  4   force =     0.00006915    0.00091624   -0.00144049
     atom   80 type  4   force =     0.00000607    0.00059341    0.00028974
     atom   81 type  4   force =    -0.00038127   -0.00027542    0.00035977
     atom   82 type  4   force =     0.00010035   -0.00012360    0.00007809
     atom   83 type  4   force =     0.00042738    0.00083325   -0.00016133
     atom   84 type  4   force =    -0.00026177    0.00023823   -0.00102654
     atom   85 type  3   force =     0.00013618   -0.00045459    0.00077321
     atom   86 type  3   force =     0.00063728   -0.00057169   -0.00051750
     atom   87 type  3   force =    -0.00029313   -0.00004032   -0.00098637
     atom   88 type  3   force =    -0.00070417    0.00023163    0.00241920
     atom   89 type  4   force =    -0.00006892    0.00013362   -0.00057208
     atom   90 type  4   force =     0.00003983   -0.00037074    0.00171882
     atom   91 type  4   force =     0.00030981    0.00009060    0.00036336
     atom   92 type  4   force =     0.00067835   -0.00083777   -0.00132012
     atom   93 type  4   force =     0.00129755    0.00005398   -0.00010391
     atom   94 type  4   force =    -0.00033512    0.00009899    0.00133536
     atom   95 type  4   force =     0.00027115    0.00016888    0.00048959
     atom   96 type  4   force =    -0.00152387   -0.00001967    0.00047971
     atom   97 type  4   force =     0.00073812   -0.00031459   -0.00149073
     atom   98 type  4   force =    -0.00051984   -0.00020499    0.00032565
     atom   99 type  4   force =     0.00049493    0.00107115   -0.00130613
     atom  100 type  4   force =     0.00049503    0.00036377    0.00049368
     atom  101 type  4   force =    -0.00034808   -0.00012850    0.00045150
     atom  102 type  4   force =     0.00087553   -0.00044394    0.00043601
     atom  103 type  4   force =     0.00091622   -0.00017182    0.00006360
     atom  104 type  4   force =    -0.00022370   -0.00101991   -0.00031528
     atom  105 type  1   force =     0.00010213    0.00007967   -0.00021441
     atom  106 type  1   force =     0.00274003    0.00157502   -0.00208688
     atom  107 type  2   force =     0.00016475   -0.00020551    0.00005779
     atom  108 type  1   force =    -0.00054160   -0.00083438   -0.00001670
     atom  109 type  1   force =     0.00023226    0.00016032    0.00003451
     atom  110 type  1   force =    -0.00023147   -0.00002248   -0.00013307
     atom  111 type  1   force =    -0.00001093    0.00024421   -0.00001539
     atom  112 type  2   force =    -0.00034075    0.00039023    0.00001143
     atom  113 type  2   force =     0.00009716    0.00010932   -0.00009131
     atom  114 type  1   force =     0.00009664    0.00059631    0.00075083
     atom  115 type  1   force =     0.00015206   -0.00001811    0.00002697
     atom  116 type  1   force =    -0.00030383   -0.00024704    0.00042324
     atom  117 type  3   force =    -0.00017075   -0.00002517    0.00005720
     atom  118 type  3   force =    -0.00001533   -0.00013759   -0.00040849
     atom  119 type  3   force =    -0.00021483    0.00009058    0.00021587
     atom  120 type  3   force =     0.00007388   -0.00017690   -0.00001352
     atom  121 type  4   force =     0.00011644   -0.00001812   -0.00023510
     atom  122 type  4   force =     0.00007509    0.00006285    0.00056523
     atom  123 type  4   force =     0.00018714    0.00015342    0.00037851
     atom  124 type  4   force =    -0.00019861   -0.00026058    0.00035093
     atom  125 type  4   force =     0.00109336   -0.00053135    0.00043693
     atom  126 type  4   force =    -0.00057950    0.00028940    0.00000959
     atom  127 type  4   force =     0.00005929    0.00012855   -0.00006627
     atom  128 type  4   force =     0.00014461   -0.00052762    0.00003129
     atom  129 type  4   force =    -0.00003454    0.00005825    0.00032048
     atom  130 type  4   force =     0.00003643   -0.00011780    0.00007124
     atom  131 type  4   force =     0.00032425    0.00023119    0.00012518
     atom  132 type  4   force =     0.00019758    0.00028155   -0.00014181
     atom  133 type  4   force =     0.00007228    0.00001389   -0.00007421
     atom  134 type  4   force =     0.00013708    0.00007828    0.00021664
     atom  135 type  4   force =     0.00036946    0.00023368    0.00026368
     atom  136 type  4   force =     0.00013001   -0.00007378    0.00004343
     atom  137 type  3   force =     0.00017643    0.00031040   -0.00014825
     atom  138 type  3   force =     0.00003002   -0.00017468   -0.00004647
     atom  139 type  3   force =     0.00039071    0.00025915    0.00000308
     atom  140 type  3   force =     0.00036785   -0.00044592   -0.00046790
     atom  141 type  4   force =    -0.00048231   -0.00017429    0.00032662
     atom  142 type  4   force =     0.00002221    0.00009566   -0.00006243
     atom  143 type  4   force =    -0.00015612    0.00048470    0.00024381
     atom  144 type  4   force =    -0.00036434   -0.00027705    0.00080262
     atom  145 type  4   force =     0.00032626    0.00024982    0.00013815
     atom  146 type  4   force =    -0.00027930   -0.00013351   -0.00010330
     atom  147 type  4   force =     0.00018408    0.00013755    0.00000206
     atom  148 type  4   force =    -0.00027336   -0.00029330   -0.00008676
     atom  149 type  4   force =     0.00047541    0.00040019   -0.00008345
     atom  150 type  4   force =    -0.00000767    0.00019919   -0.00005299
     atom  151 type  4   force =    -0.00004800   -0.00006213    0.00019560
     atom  152 type  4   force =    -0.00038758   -0.00007975    0.00004053
     atom  153 type  4   force =     0.00011090    0.00024961    0.00006793
     atom  154 type  4   force =     0.00001999   -0.00048713   -0.00016427
     atom  155 type  4   force =    -0.00011182    0.00029727    0.00019359
     atom  156 type  4   force =     0.00020201    0.00009886    0.00061392
     atom  157 type  4   force =    -0.01125358    0.00608296    0.00683331
     atom  158 type  5   force =     0.00850947   -0.00663805   -0.00333449

     Total force =     0.226031     Total SCF correction =     0.004179
 
     init_run     :      8.19s CPU      8.77s WALL (       1 calls)
     electrons    :   2102.91s CPU   2186.55s WALL (       1 calls)
     forces       :      4.99s CPU      5.39s WALL (       1 calls)
     force_london :      0.08s CPU      0.08s WALL (       1 calls)

     Called by init_run:
     wfcinit      :      4.65s CPU      4.80s WALL (       1 calls)
     potinit      :      0.77s CPU      0.92s WALL (       1 calls)
     hinit0       :      1.50s CPU      1.58s WALL (       1 calls)

     Called by electrons:
     c_bands      :   1622.68s CPU   1664.82s WALL (     146 calls)
     sum_band     :    299.86s CPU    322.29s WALL (     146 calls)
     v_of_rho     :     39.80s CPU     41.22s WALL (     147 calls)
     newd         :     94.50s CPU    111.80s WALL (     147 calls)
     mix_rho      :     42.90s CPU     43.27s WALL (     146 calls)
     energy_londo :      0.08s CPU      0.08s WALL (       1 calls)

     Called by c_bands:
     init_us_2    :      4.19s CPU      4.26s WALL (     588 calls)
     init_us_2:cp :      4.19s CPU      4.26s WALL (     588 calls)
     regterg      :   1588.71s CPU   1630.49s WALL (     294 calls)

     Called by *egterg:
     rdiaghg      :    367.53s CPU    387.45s WALL (     974 calls)
     h_psi        :    645.89s CPU    656.04s WALL (     976 calls)
     s_psi        :     97.45s CPU     97.49s WALL (     976 calls)
     g_psi        :      0.71s CPU      0.72s WALL (     680 calls)

     Called by h_psi:
     h_psi:calbec :    165.23s CPU    173.05s WALL (     976 calls)
     vloc_psi     :    380.52s CPU    381.78s WALL (     976 calls)
     add_vuspsi   :     98.72s CPU     99.77s WALL (     976 calls)

     General routines
     calbec       :    245.87s CPU    257.66s WALL (    1276 calls)
     fft          :     63.35s CPU     65.63s WALL (    2659 calls)
     ffts         :     25.30s CPU     25.34s WALL (   18275 calls)
     fftw         :    434.52s CPU    435.89s WALL (  496644 calls)
     interpolate  :      3.31s CPU      3.48s WALL (     294 calls)
 
     Parallel routines
 
     PWSCF        :  35m18.22s CPU  36m43.14s WALL

 
   This run was terminated on:  17:25:31  17Nov2025            

=------------------------------------------------------------------------------=
   JOB DONE.
=------------------------------------------------------------------------------=
