
     Program PWSCF v.7.2 starts on 19Nov2025 at 20:13:39 

     This program is part of the open-source Quantum ESPRESSO suite
     for quantum simulation of materials; please cite
         "P. Giannozzi et al., J. Phys.:Condens. Matter 21 395502 (2009);
         "P. Giannozzi et al., J. Phys.:Condens. Matter 29 465901 (2017);
         "P. Giannozzi et al., J. Chem. Phys. 152 154105 (2020);
          URL http://www.quantum-espresso.org", 
     in publications or presentations arising from this work. More details at
     http://www.quantum-espresso.org/quote

     Parallel version (MPI), running on    64 processors

     MPI processes distributed on     4 nodes
     366506 MiB available memory on the printing compute node when the environment starts
 
     Reading input from PWINPUT_atm158_zp

     Current dimensions of program PWSCF are:
     Max number of different atomic species (ntypx) = 10
     Max number of k-points (npk) =  40000
     Max angular momentum in pseudopotentials (lmaxx) =  4
     Presently no symmetry can be used with electric field

     file Ni.pbe-n-rrkjus_psl.1.0.0.UPF: wavefunction(s)  3D renormalized
     file Mn.pbe-spn-rrkjus_psl.0.3.1.UPF: wavefunction(s)  3D renormalized
     file O.pbe-rrkjus.UPF: wavefunction(s)  2S renormalized
     file H.pbe-rrkjus.UPF: wavefunction(s)  1S renormalized

     gamma-point specific algorithms are used
 
     R & G space division:  proc/nbgrp/npool/nimage =      64
     Subspace diagonalization in iterative solution of the eigenvalue problem:
     one sub-group per band group will be used
     custom distributed-memory algorithm (size of sub-group:  7*  7 procs)

 
     Parallelization info
     --------------------
     sticks:   dense  smooth     PW     G-vecs:    dense   smooth      PW
     Min         207      82     20                60552    15302    1896
     Max         210      84     22                60574    15336    1950
     Sum       13325    5345   1333              3876045   980655  122653
 
     Using Slab Decomposition
 


     bravais-lattice index     =            0
     lattice parameter (alat)  =      17.4067  a.u.
     unit-cell volume          =   20529.8182 (a.u.)^3
     number of atoms/cell      =          158
     number of atomic types    =            5
     number of electrons       =      1093.00
     number of Kohn-Sham states=          656
     kinetic-energy cutoff     =      50.0000  Ry
     charge density cutoff     =     500.0000  Ry
     scf convergence threshold =      1.0E-06
     mixing beta               =       0.1000
     number of iterations used =            8  local-TF  mixing
     Exchange-correlation=  SLA  PW   PBE  PBE
                           (   1   4   3   4   0   0   0)

     celldm(1)=  17.406729  celldm(2)=   0.000000  celldm(3)=   0.000000
     celldm(4)=   0.000000  celldm(5)=   0.000000  celldm(6)=   0.000000

     crystal axes: (cart. coord. in units of alat)
               a(1) = (   1.000000   0.000000   0.000000 )  
               a(2) = (  -0.001404   1.105696   0.000000 )  
               a(3) = (   0.000000   0.000000   3.520448 )  

     reciprocal axes: (cart. coord. in units 2 pi/alat)
               b(1) = (  1.000000  0.001270  0.000000 )  
               b(2) = (  0.000000  0.904408  0.000000 )  
               b(3) = (  0.000000  0.000000  0.284055 )  


     PseudoPot. # 1 for Ni read from file:
     ~/PSEUDO/Ni.pbe-n-rrkjus_psl.1.0.0.UPF
     MD5 check sum: Not computed, couldn't open file
     Pseudo is Ultrasoft + core correction, Zval = 10.0
     Generated using "atomic" code by A. Dal Corso  v.5.1.2
     Using radial grid of 1195 points,  6 beta functions with: 
                l(1) =   0
                l(2) =   0
                l(3) =   1
                l(4) =   1
                l(5) =   2
                l(6) =   2
     Q(r) pseudized with 0 coefficients 


     PseudoPot. # 2 for Mn read from file:
     ~/PSEUDO/Mn.pbe-spn-rrkjus_psl.0.3.1.UPF
     MD5 check sum: Not computed, couldn't open file
     Pseudo is Ultrasoft + core correction, Zval = 15.0
     Generated using &quot;atomic&quot; code by A. Dal Corso  v.6.2.2
     Using radial grid of 1187 points,  6 beta functions with: 
                l(1) =   0
                l(2) =   0
                l(3) =   1
                l(4) =   1
                l(5) =   2
                l(6) =   2
     Q(r) pseudized with 0 coefficients 


     PseudoPot. # 3 for P  read from file:
     ~/PSEUDO/P.pbe-n-rrkjus_psl.1.0.0.UPF
     MD5 check sum: Not computed, couldn't open file
     Pseudo is Ultrasoft + core correction, Zval =  5.0
     Generated using "atomic" code by A. Dal Corso  v.5.1
     Using radial grid of 1147 points,  6 beta functions with: 
                l(1) =   0
                l(2) =   0
                l(3) =   1
                l(4) =   1
                l(5) =   2
                l(6) =   2
     Q(r) pseudized with 0 coefficients 


     PseudoPot. # 4 for O  read from file:
     ~/PSEUDO/O.pbe-rrkjus.UPF
     MD5 check sum: Not computed, couldn't open file
     Pseudo is Ultrasoft, Zval =  6.0
     Generated by new atomic code, or converted to UPF format
     Using radial grid of 1269 points,  4 beta functions with: 
                l(1) =   0
                l(2) =   0
                l(3) =   1
                l(4) =   1
     Q(r) pseudized with 0 coefficients 


     PseudoPot. # 5 for H  read from file:
     ~/PSEUDO/H.pbe-rrkjus.UPF
     MD5 check sum: Not computed, couldn't open file
     Pseudo is Ultrasoft, Zval =  1.0
     Generated by new atomic code, or converted to UPF format
     Using radial grid of 1061 points,  2 beta functions with: 
                l(1) =   0
                l(2) =   0
     Q(r) pseudized with 0 coefficients 


     atomic species   valence    mass     pseudopotential
     Ni               10.00    58.69300     Ni( 1.00)
     Mn               15.00    54.93800     Mn( 1.00)
     P                 5.00    30.97300     P ( 1.00)
     O                 6.00    15.99900     O ( 1.00)
     H                 1.00     1.00790     H ( 1.00)

     Starting magnetic structure 
     atomic species   magnetization
     Ni              1.000
     Mn              1.000
     P               1.000
     O               1.000
     H               0.000

     No symmetry found



   Cartesian axes

     site n.     atom                  positions (alat units)
         1        Ni     tau(   1) = (   0.2506653   0.8550566   1.7482270  )
         2        Mn     tau(   2) = (   0.4868615   0.7893541   1.4308660  )
         3        Ni     tau(   3) = (  -0.0020905   0.3037554   1.7430097  )
         4        Ni     tau(   4) = (   0.2581845   0.2397011   1.4315278  )
         5        Ni     tau(   5) = (   0.4980783   1.1004513   1.6017203  )
         6        Ni     tau(   6) = (   0.2518422   0.5462731   1.6005047  )
         7        P      tau(   7) = (   0.2086760   0.9985220   1.4334561  )
         8        P      tau(   8) = (   0.4610745   0.6542330   1.7693768  )
         9        P      tau(   9) = (   0.2852120   0.1078232   1.7622391  )
        10        P      tau(  10) = (   0.0403977   0.4405659   1.4311024  )
        11        O      tau(  11) = (   0.1336577   0.9255702   1.5727005  )
        12        O      tau(  12) = (   0.3859844   0.7230279   1.6232271  )
        13        O      tau(  13) = (   0.3640826   0.1694454   1.6133293  )
        14        O      tau(  14) = (   0.1188105   0.3688923   1.5703532  )
        15        O      tau(  15) = (   0.1503492   0.9077861   1.3047839  )
        16        O      tau(  16) = (   0.3958379   0.7487419   1.8889350  )
        17        O      tau(  17) = (   0.3469236   0.2073723   1.8785519  )
        18        O      tau(  18) = (   0.1007453   0.3527083   1.3018906  )
        19        O      tau(  19) = (   0.0999278   0.5992574   1.4366202  )
        20        O      tau(  20) = (   0.3385595   1.0523920   1.7620033  )
        21        O      tau(  21) = (   0.3744945   0.4340276   1.4450679  )
        22        O      tau(  22) = (   0.1180138   0.1150013   1.7458001  )
        23        O      tau(  23) = (   0.1304815   0.6665087   1.7470642  )
        24        O      tau(  24) = (   0.4037610   0.4941012   1.7602096  )
        25        O      tau(  25) = (   0.1493555   0.0500451   1.4360519  )
        26        O      tau(  26) = (   0.3753238   0.9895344   1.4462146  )
        27        Ni     tau(  27) = (   0.2413539   0.8509941   1.1121345  )
        28        Mn     tau(  28) = (   0.4917018   0.7787406   0.7768134  )
        29        Ni     tau(  29) = (   0.0044877   0.2932623   1.1138982  )
        30        Ni     tau(  30) = (   0.2563139   0.2275682   0.7805625  )
        31        Ni     tau(  31) = (   0.4969120   1.0949007   0.9459116  )
        32        Ni     tau(  32) = (   0.2488318   0.5341111   0.9469721  )
        33        P      tau(  33) = (   0.2076029   0.9882917   0.7835381  )
        34        P      tau(  34) = (   0.4577012   0.6460068   1.1076436  )
        35        P      tau(  35) = (   0.2881931   0.0932770   1.1104179  )
        36        P      tau(  36) = (   0.0392916   0.4238898   0.7837243  )
        37        O      tau(  37) = (   0.1306755   0.9148866   0.9233554  )
        38        O      tau(  38) = (   0.3789780   0.7172835   0.9680652  )
        39        O      tau(  39) = (   0.3654852   0.1662865   0.9702638  )
        40        O      tau(  40) = (   0.1163776   0.3546954   0.9254186  )
        41        O      tau(  41) = (   0.1502901   0.8969129   0.6541592  )
        42        O      tau(  42) = (   0.3974525   0.7354243   1.2370031  )
        43        O      tau(  43) = (   0.3483097   0.1789497   1.2412670  )
        44        O      tau(  44) = (   0.0974932   0.3376387   0.6529083  )
        45        O      tau(  45) = (   0.0984699   0.5818903   0.7881021  )
        46        O      tau(  46) = (   0.3459978   1.0405493   1.1018526  )
        47        O      tau(  47) = (   0.3731719   0.4204123   0.7945555  )
        48        O      tau(  48) = (   0.1223503   0.0989699   1.1000566  )
        49        O      tau(  49) = (   0.1235438   0.6536772   1.0980598  )
        50        O      tau(  50) = (   0.4004339   0.4872435   1.1047245  )
        51        O      tau(  51) = (   0.1476543   0.0398268   0.7872561  )
        52        O      tau(  52) = (   0.3728637   0.9843360   0.7931368  )
        53        Ni     tau(  53) = (   0.2406075   0.8410745   0.4603118  )
        54        Mn     tau(  54) = (   0.4909555   0.7688210   0.1249907  )
        55        Ni     tau(  55) = (   0.0037414   0.2833427   0.4620755  )
        56        Ni     tau(  56) = (   0.2555676   0.2176485   0.1287398  )
        57        Ni     tau(  57) = (   0.4961657   1.0849810   0.2940889  )
        58        Ni     tau(  58) = (   0.2480854   0.5241915   0.2951494  )
        59        P      tau(  59) = (   0.2068565   0.9783721   0.1317154  )
        60        P      tau(  60) = (   0.4569549   0.6360871   0.4558210  )
        61        P      tau(  61) = (   0.2874467   0.0833574   0.4585952  )
        62        P      tau(  62) = (   0.0385452   0.4139702   0.1319017  )
        63        O      tau(  63) = (   0.1299291   0.9049669   0.2715327  )
        64        O      tau(  64) = (   0.3782317   0.7073639   0.3162425  )
        65        O      tau(  65) = (   0.3647389   0.1563669   0.3184411  )
        66        O      tau(  66) = (   0.1156313   0.3447757   0.2735959  )
        67        O      tau(  67) = (   0.1495437   0.8869933   0.0023366  )
        68        O      tau(  68) = (   0.3967062   0.7255047   0.5851804  )
        69        O      tau(  69) = (   0.3475634   0.1690300   0.5894443  )
        70        O      tau(  70) = (   0.0967469   0.3277190   0.0010856  )
        71        O      tau(  71) = (   0.0977236   0.5719706   0.1362794  )
        72        O      tau(  72) = (   0.3452514   1.0306297   0.4500300  )
        73        O      tau(  73) = (   0.3724256   0.4104926   0.1427328  )
        74        O      tau(  74) = (   0.1216040   0.0890503   0.4482339  )
        75        O      tau(  75) = (   0.1227974   0.6437575   0.4462371  )
        76        O      tau(  76) = (   0.3996875   0.4773239   0.4529018  )
        77        O      tau(  77) = (   0.1469079   0.0299071   0.1354334  )
        78        O      tau(  78) = (   0.3721173   0.9744163   0.1413141  )
        79        Ni     tau(  79) = (   0.7414379   0.8631934   1.7811905  )
        80        Mn     tau(  80) = (   0.9841778   0.7888082   1.4314224  )
        81        Ni     tau(  81) = (   0.4981575   0.2996622   1.7438399  )
        82        Ni     tau(  82) = (   0.7578892   0.2404171   1.4315495  )
        83        Ni     tau(  83) = (   0.9960243   1.1035763   1.5974106  )
        84        Ni     tau(  84) = (   0.7511014   0.5491218   1.6034046  )
        85        P      tau(  85) = (   0.7087866   0.9973915   1.4351950  )
        86        P      tau(  86) = (   0.9628486   0.6621696   1.7637363  )
        87        P      tau(  87) = (   0.7871746   0.1114899   1.7616375  )
        88        P      tau(  88) = (   0.5410567   0.4395544   1.4323437  )
        89        O      tau(  89) = (   0.6354630   0.9223360   1.5730365  )
        90        O      tau(  90) = (   0.8842257   0.7257126   1.6195033  )
        91        O      tau(  91) = (   0.8650973   0.1749877   1.6118653  )
        92        O      tau(  92) = (   0.6191862   0.3687812   1.5717219  )
        93        O      tau(  93) = (   0.6506723   0.9089988   1.3043577  )
        94        O      tau(  94) = (   0.9054210   0.7593145   1.8845788  )
        95        O      tau(  95) = (   0.8458988   0.2143962   1.8769408  )
        96        O      tau(  96) = (   0.6009712   0.3522741   1.3025522  )
        97        O      tau(  97) = (   0.5994071   0.5984853   1.4384741  )
        98        O      tau(  98) = (   0.8467958   1.0589836   1.7578834  )
        99        O      tau(  99) = (   0.8740438   0.4364663   1.4443826  )
       100        O      tau( 100) = (   0.6200794   0.1160167   1.7440992  )
       101        O      tau( 101) = (   0.6282264   0.6595953   1.7561119  )
       102        O      tau( 102) = (   0.9078379   0.5006245   1.7604184  )
       103        O      tau( 103) = (   0.6500092   0.0493715   1.4390795  )
       104        O      tau( 104) = (   0.8760524   0.9898930   1.4442019  )
       105        Ni     tau( 105) = (   0.7413539   0.8509941   1.1121345  )
       106        Mn     tau( 106) = (   0.9917018   0.7787406   0.7768134  )
       107        Ni     tau( 107) = (   0.5044877   0.2932623   1.1138982  )
       108        Ni     tau( 108) = (   0.7563139   0.2275682   0.7805625  )
       109        Ni     tau( 109) = (   0.9969120   1.0949007   0.9459116  )
       110        Ni     tau( 110) = (   0.7488318   0.5341111   0.9469721  )
       111        P      tau( 111) = (   0.7076029   0.9882917   0.7835381  )
       112        P      tau( 112) = (   0.9577012   0.6460068   1.1076436  )
       113        P      tau( 113) = (   0.7881931   0.0932770   1.1104179  )
       114        P      tau( 114) = (   0.5392916   0.4238898   0.7837243  )
       115        O      tau( 115) = (   0.6306755   0.9148866   0.9233554  )
       116        O      tau( 116) = (   0.8789780   0.7172835   0.9680652  )
       117        O      tau( 117) = (   0.8654852   0.1662865   0.9702638  )
       118        O      tau( 118) = (   0.6163776   0.3546954   0.9254186  )
       119        O      tau( 119) = (   0.6502901   0.8969129   0.6541592  )
       120        O      tau( 120) = (   0.8974525   0.7354243   1.2370031  )
       121        O      tau( 121) = (   0.8483097   0.1789497   1.2412670  )
       122        O      tau( 122) = (   0.5974932   0.3376387   0.6529083  )
       123        O      tau( 123) = (   0.5984699   0.5818903   0.7881021  )
       124        O      tau( 124) = (   0.8459978   1.0405493   1.1018526  )
       125        O      tau( 125) = (   0.8731719   0.4204123   0.7945555  )
       126        O      tau( 126) = (   0.6223503   0.0989699   1.1000566  )
       127        O      tau( 127) = (   0.6235438   0.6536772   1.0980598  )
       128        O      tau( 128) = (   0.9004339   0.4872435   1.1047245  )
       129        O      tau( 129) = (   0.6476543   0.0398268   0.7872561  )
       130        O      tau( 130) = (   0.8728637   0.9843360   0.7931368  )
       131        Ni     tau( 131) = (   0.7406075   0.8410745   0.4603118  )
       132        Mn     tau( 132) = (   0.9909555   0.7688210   0.1249907  )
       133        Ni     tau( 133) = (   0.5037414   0.2833427   0.4620755  )
       134        Ni     tau( 134) = (   0.7555676   0.2176485   0.1287398  )
       135        Ni     tau( 135) = (   0.9961657   1.0849810   0.2940889  )
       136        Ni     tau( 136) = (   0.7480854   0.5241915   0.2951494  )
       137        P      tau( 137) = (   0.7068565   0.9783721   0.1317154  )
       138        P      tau( 138) = (   0.9569549   0.6360871   0.4558210  )
       139        P      tau( 139) = (   0.7874467   0.0833574   0.4585952  )
       140        P      tau( 140) = (   0.5385452   0.4139702   0.1319017  )
       141        O      tau( 141) = (   0.6299291   0.9049669   0.2715327  )
       142        O      tau( 142) = (   0.8782317   0.7073639   0.3162425  )
       143        O      tau( 143) = (   0.8647389   0.1563669   0.3184411  )
       144        O      tau( 144) = (   0.6156313   0.3447757   0.2735959  )
       145        O      tau( 145) = (   0.6495437   0.8869933   0.0023366  )
       146        O      tau( 146) = (   0.8967062   0.7255047   0.5851804  )
       147        O      tau( 147) = (   0.8475634   0.1690300   0.5894443  )
       148        O      tau( 148) = (   0.5967469   0.3277190   0.0010856  )
       149        O      tau( 149) = (   0.5977236   0.5719706   0.1362794  )
       150        O      tau( 150) = (   0.8452514   1.0306297   0.4500300  )
       151        O      tau( 151) = (   0.8724256   0.4104926   0.1427328  )
       152        O      tau( 152) = (   0.6216040   0.0890503   0.4482339  )
       153        O      tau( 153) = (   0.6227974   0.6437575   0.4462371  )
       154        O      tau( 154) = (   0.8996875   0.4773239   0.4529018  )
       155        O      tau( 155) = (   0.6469079   0.0299071   0.1354334  )
       156        O      tau( 156) = (   0.8721173   0.9744163   0.1413141  )
       157        O      tau( 157) = (   0.6206852   0.9487225   1.9111104  )
       158        H      tau( 158) = (   0.5390407   0.8844830   1.9401486  )

     -------------------------------------------------
     Parameters for Dispersion (Grimme-D2) Correction:
     -------------------------------------------------
       atom      VdW radius       C_6     

        Ni         2.952        374.666
        Mn         2.952        374.666
        P          3.222        271.980
        O          2.536         24.284
        H          1.892          4.857

     number of k points=     1  Gaussian smearing, width (Ry)=  0.0100
                       cart. coord. in units 2pi/alat
        k(    1) = (   0.0000000   0.0000000   0.0000000), wk =   1.0000000

     Dense  grid:  1938023 G-vectors     FFT dimensions: ( 125, 144, 450)

     Smooth grid:   490328 G-vectors     FFT dimensions: (  80,  90, 288)

     Estimated max dynamical RAM per process >     326.29 MB

     Estimated total dynamical RAM >      20.39 GB

     Check: negative core charge=   -0.000001
     Generating pointlists ...
     new r_m :   0.0812 (alat units)  1.4139 (a.u.) for type    1
     new r_m :   0.0905 (alat units)  1.5759 (a.u.) for type    2
     new r_m :   0.0681 (alat units)  1.1852 (a.u.) for type    3
     new r_m :   0.0445 (alat units)  0.7745 (a.u.) for type    4
     new r_m :   0.0445 (alat units)  0.7745 (a.u.) for type    5

     Initial potential from superposition of free atoms

     starting charge    1092.8893, renormalised to    1093.0000

     negative rho (up, down):  1.393E-03 4.565E-04
 
     Adding external electric field

     Computed dipole along edir(3) : 
        Dipole                1.6584 Ry au,          4.2153 Debye
        Dipole field          0.0010 Ry au, 
 
        Potential amp.       -0.1120 Ry
        Total length         55.1515 bohr
 
 
     Adding external electric field

     Computed dipole along edir(3) : 
        Dipole                1.6584 Ry au,          4.2153 Debye
        Dipole field          0.0010 Ry au, 
 
        Potential amp.       -0.1120 Ry
        Total length         55.1515 bohr
 
     Starting wfcs are  815 randomized atomic wfcs

     total cpu time spent up to now is       11.2 secs

     Self-consistent Calculation

     iteration #  1     ecut=    50.00 Ry     beta= 0.10
     Davidson diagonalization with overlap
     ethr =  1.00E-02,  avg # of iterations =  6.0

     negative rho (up, down):  3.987E-01 1.379E-06
 
     Adding external electric field

     Computed dipole along edir(3) : 
        Dipole               -3.1716 Ry au,         -8.0613 Debye
        Dipole field         -0.0019 Ry au, 
 
        Potential amp.        0.2141 Ry
        Total length         55.1515 bohr
 
 
     Adding external electric field

     Computed dipole along edir(3) : 
        Dipole               -3.1716 Ry au,         -8.0613 Debye
        Dipole field         -0.0019 Ry au, 
 
        Potential amp.        0.2141 Ry
        Total length         55.1515 bohr
 

     total cpu time spent up to now is       43.5 secs

     total energy              =   -7517.12691159 Ry
     estimated scf accuracy    <     800.72165880 Ry

     total magnetization       =   219.00 Bohr mag/cell
     absolute magnetization    =   308.06 Bohr mag/cell

     iteration #  2     ecut=    50.00 Ry     beta= 0.10
     Davidson diagonalization with overlap
     ethr =  1.00E-02,  avg # of iterations =  2.0

     negative rho (up, down):  3.702E-01 1.022E-06
 
     Adding external electric field

     Computed dipole along edir(3) : 
        Dipole               -2.2585 Ry au,         -5.7406 Debye
        Dipole field         -0.0014 Ry au, 
 
        Potential amp.        0.1525 Ry
        Total length         55.1515 bohr
 
 
     Adding external electric field

     Computed dipole along edir(3) : 
        Dipole               -2.2585 Ry au,         -5.7406 Debye
        Dipole field         -0.0014 Ry au, 
 
        Potential amp.        0.1525 Ry
        Total length         55.1515 bohr
 

     total cpu time spent up to now is       63.1 secs

     total energy              =   -7601.89647038 Ry
     estimated scf accuracy    <     181.27086009 Ry

     total magnetization       =   160.24 Bohr mag/cell
     absolute magnetization    =   208.68 Bohr mag/cell

     iteration #  3     ecut=    50.00 Ry     beta= 0.10
     Davidson diagonalization with overlap
     ethr =  1.00E-02,  avg # of iterations =  1.5

     negative rho (up, down):  3.305E-01 9.589E-07
 
     Adding external electric field

     Computed dipole along edir(3) : 
        Dipole               -2.0082 Ry au,         -5.1044 Debye
        Dipole field         -0.0012 Ry au, 
 
        Potential amp.        0.1356 Ry
        Total length         55.1515 bohr
 
 
     Adding external electric field

     Computed dipole along edir(3) : 
        Dipole               -2.0082 Ry au,         -5.1044 Debye
        Dipole field         -0.0012 Ry au, 
 
        Potential amp.        0.1356 Ry
        Total length         55.1515 bohr
 

     total cpu time spent up to now is       78.4 secs

     total energy              =   -7630.33111699 Ry
     estimated scf accuracy    <      99.38906742 Ry

     total magnetization       =   136.04 Bohr mag/cell
     absolute magnetization    =   186.72 Bohr mag/cell

     iteration #  4     ecut=    50.00 Ry     beta= 0.10
     Davidson diagonalization with overlap
     ethr =  9.09E-03,  avg # of iterations =  1.5

     negative rho (up, down):  2.500E-01 3.721E-07
 
     Adding external electric field

     Computed dipole along edir(3) : 
        Dipole               -1.7845 Ry au,         -4.5357 Debye
        Dipole field         -0.0011 Ry au, 
 
        Potential amp.        0.1205 Ry
        Total length         55.1515 bohr
 
 
     Adding external electric field

     Computed dipole along edir(3) : 
        Dipole               -1.7845 Ry au,         -4.5357 Debye
        Dipole field         -0.0011 Ry au, 
 
        Potential amp.        0.1205 Ry
        Total length         55.1515 bohr
 

     total cpu time spent up to now is       93.6 secs

     total energy              =   -7666.98947041 Ry
     estimated scf accuracy    <      82.77486413 Ry

     total magnetization       =   120.18 Bohr mag/cell
     absolute magnetization    =   172.33 Bohr mag/cell

     iteration #  5     ecut=    50.00 Ry     beta= 0.10
     Davidson diagonalization with overlap
     ethr =  7.57E-03,  avg # of iterations =  1.0

     negative rho (up, down):  1.911E-02 5.710E-07
 
     Adding external electric field

     Computed dipole along edir(3) : 
        Dipole               -1.2869 Ry au,         -3.2711 Debye
        Dipole field         -0.0008 Ry au, 
 
        Potential amp.        0.0869 Ry
        Total length         55.1515 bohr
 
 
     Adding external electric field

     Computed dipole along edir(3) : 
        Dipole               -1.2869 Ry au,         -3.2711 Debye
        Dipole field         -0.0008 Ry au, 
 
        Potential amp.        0.0869 Ry
        Total length         55.1515 bohr
 

     total cpu time spent up to now is      107.2 secs

     total energy              =   -7725.92107183 Ry
     estimated scf accuracy    <      63.09214285 Ry

     total magnetization       =    97.02 Bohr mag/cell
     absolute magnetization    =   151.96 Bohr mag/cell

     iteration #  6     ecut=    50.00 Ry     beta= 0.10
     Davidson diagonalization with overlap
     ethr =  5.77E-03,  avg # of iterations =  1.0

     negative rho (up, down):  4.479E-04 9.548E-04
 
     Adding external electric field

     Computed dipole along edir(3) : 
        Dipole               -0.9907 Ry au,         -2.5182 Debye
        Dipole field         -0.0006 Ry au, 
 
        Potential amp.        0.0669 Ry
        Total length         55.1515 bohr
 
 
     Adding external electric field

     Computed dipole along edir(3) : 
        Dipole               -0.9907 Ry au,         -2.5182 Debye
        Dipole field         -0.0006 Ry au, 
 
        Potential amp.        0.0669 Ry
        Total length         55.1515 bohr
 

     total cpu time spent up to now is      120.8 secs

     total energy              =   -7736.02570199 Ry
     estimated scf accuracy    <      10.64211930 Ry

     total magnetization       =    91.00 Bohr mag/cell
     absolute magnetization    =   122.87 Bohr mag/cell

     iteration #  7     ecut=    50.00 Ry     beta= 0.10
     Davidson diagonalization with overlap
     ethr =  9.74E-04,  avg # of iterations =  5.0

     negative rho (up, down):  4.368E-04 9.346E-04
 
     Adding external electric field

     Computed dipole along edir(3) : 
        Dipole               -0.9933 Ry au,         -2.5246 Debye
        Dipole field         -0.0006 Ry au, 
 
        Potential amp.        0.0671 Ry
        Total length         55.1515 bohr
 
 
     Adding external electric field

     Computed dipole along edir(3) : 
        Dipole               -0.9933 Ry au,         -2.5246 Debye
        Dipole field         -0.0006 Ry au, 
 
        Potential amp.        0.0671 Ry
        Total length         55.1515 bohr
 

     total cpu time spent up to now is      145.3 secs

     total energy              =   -7738.36377186 Ry
     estimated scf accuracy    <      21.80586653 Ry

     total magnetization       =    69.80 Bohr mag/cell
     absolute magnetization    =    86.91 Bohr mag/cell

     iteration #  8     ecut=    50.00 Ry     beta= 0.10
     Davidson diagonalization with overlap
     ethr =  9.74E-04,  avg # of iterations =  1.0

     negative rho (up, down):  4.254E-04 8.880E-04
 
     Adding external electric field

     Computed dipole along edir(3) : 
        Dipole               -0.9936 Ry au,         -2.5254 Debye
        Dipole field         -0.0006 Ry au, 
 
        Potential amp.        0.0671 Ry
        Total length         55.1515 bohr
 
 
     Adding external electric field

     Computed dipole along edir(3) : 
        Dipole               -0.9936 Ry au,         -2.5254 Debye
        Dipole field         -0.0006 Ry au, 
 
        Potential amp.        0.0671 Ry
        Total length         55.1515 bohr
 

     total cpu time spent up to now is      159.3 secs

     total energy              =   -7738.36163648 Ry
     estimated scf accuracy    <      20.98238186 Ry

     total magnetization       =    70.16 Bohr mag/cell
     absolute magnetization    =    86.91 Bohr mag/cell

     iteration #  9     ecut=    50.00 Ry     beta= 0.10
     Davidson diagonalization with overlap
     ethr =  9.74E-04,  avg # of iterations =  1.0

     negative rho (up, down):  4.053E-04 1.028E-03
 
     Adding external electric field

     Computed dipole along edir(3) : 
        Dipole               -0.9398 Ry au,         -2.3887 Debye
        Dipole field         -0.0006 Ry au, 
 
        Potential amp.        0.0635 Ry
        Total length         55.1515 bohr
 
 
     Adding external electric field

     Computed dipole along edir(3) : 
        Dipole               -0.9398 Ry au,         -2.3887 Debye
        Dipole field         -0.0006 Ry au, 
 
        Potential amp.        0.0635 Ry
        Total length         55.1515 bohr
 

     total cpu time spent up to now is      172.9 secs

     total energy              =   -7738.08238176 Ry
     estimated scf accuracy    <      20.01908318 Ry

     total magnetization       =    70.57 Bohr mag/cell
     absolute magnetization    =    86.97 Bohr mag/cell

     iteration # 10     ecut=    50.00 Ry     beta= 0.10
     Davidson diagonalization with overlap
     ethr =  9.74E-04,  avg # of iterations =  1.0

     negative rho (up, down):  8.720E-04 2.018E-03
 
     Adding external electric field

     Computed dipole along edir(3) : 
        Dipole               -0.9457 Ry au,         -2.4036 Debye
        Dipole field         -0.0006 Ry au, 
 
        Potential amp.        0.0638 Ry
        Total length         55.1515 bohr
 
 
     Adding external electric field

     Computed dipole along edir(3) : 
        Dipole               -0.9457 Ry au,         -2.4036 Debye
        Dipole field         -0.0006 Ry au, 
 
        Potential amp.        0.0638 Ry
        Total length         55.1515 bohr
 

     total cpu time spent up to now is      186.5 secs

     total energy              =   -7737.95804626 Ry
     estimated scf accuracy    <      12.90647342 Ry

     total magnetization       =    74.10 Bohr mag/cell
     absolute magnetization    =    87.80 Bohr mag/cell

     iteration # 11     ecut=    50.00 Ry     beta= 0.10
     Davidson diagonalization with overlap
     ethr =  9.74E-04,  avg # of iterations =  1.0

     negative rho (up, down):  5.854E-04 1.856E-03
 
     Adding external electric field

     Computed dipole along edir(3) : 
        Dipole               -0.9329 Ry au,         -2.3712 Debye
        Dipole field         -0.0006 Ry au, 
 
        Potential amp.        0.0630 Ry
        Total length         55.1515 bohr
 
 
     Adding external electric field

     Computed dipole along edir(3) : 
        Dipole               -0.9329 Ry au,         -2.3712 Debye
        Dipole field         -0.0006 Ry au, 
 
        Potential amp.        0.0630 Ry
        Total length         55.1515 bohr
 

     total cpu time spent up to now is      199.4 secs

     total energy              =   -7738.07011651 Ry
     estimated scf accuracy    <       7.01424169 Ry

     total magnetization       =    82.07 Bohr mag/cell
     absolute magnetization    =    92.37 Bohr mag/cell

     iteration # 12     ecut=    50.00 Ry     beta= 0.10
     Davidson diagonalization with overlap
     ethr =  6.42E-04,  avg # of iterations =  1.5

     negative rho (up, down):  2.804E-04 1.187E-03
 
     Adding external electric field

     Computed dipole along edir(3) : 
        Dipole               -0.9375 Ry au,         -2.3828 Debye
        Dipole field         -0.0006 Ry au, 
 
        Potential amp.        0.0633 Ry
        Total length         55.1515 bohr
 
 
     Adding external electric field

     Computed dipole along edir(3) : 
        Dipole               -0.9375 Ry au,         -2.3828 Debye
        Dipole field         -0.0006 Ry au, 
 
        Potential amp.        0.0633 Ry
        Total length         55.1515 bohr
 

     total cpu time spent up to now is      212.7 secs

     total energy              =   -7738.03182693 Ry
     estimated scf accuracy    <       6.91949094 Ry

     total magnetization       =    81.00 Bohr mag/cell
     absolute magnetization    =    91.18 Bohr mag/cell

     iteration # 13     ecut=    50.00 Ry     beta= 0.10
     Davidson diagonalization with overlap
     ethr =  6.33E-04,  avg # of iterations =  1.0

     negative rho (up, down):  2.476E-04 1.366E-03
 
     Adding external electric field

     Computed dipole along edir(3) : 
        Dipole               -0.9447 Ry au,         -2.4011 Debye
        Dipole field         -0.0006 Ry au, 
 
        Potential amp.        0.0638 Ry
        Total length         55.1515 bohr
 
 
     Adding external electric field

     Computed dipole along edir(3) : 
        Dipole               -0.9447 Ry au,         -2.4011 Debye
        Dipole field         -0.0006 Ry au, 
 
        Potential amp.        0.0638 Ry
        Total length         55.1515 bohr
 

     total cpu time spent up to now is      225.3 secs

     total energy              =   -7738.01317967 Ry
     estimated scf accuracy    <       8.72674978 Ry

     total magnetization       =    77.56 Bohr mag/cell
     absolute magnetization    =    88.48 Bohr mag/cell

     iteration # 14     ecut=    50.00 Ry     beta= 0.10
     Davidson diagonalization with overlap
     ethr =  6.33E-04,  avg # of iterations =  1.5

     negative rho (up, down):  1.082E-03 2.067E-03
 
     Adding external electric field

     Computed dipole along edir(3) : 
        Dipole               -1.0816 Ry au,         -2.7491 Debye
        Dipole field         -0.0007 Ry au, 
 
        Potential amp.        0.0730 Ry
        Total length         55.1515 bohr
 
 
     Adding external electric field

     Computed dipole along edir(3) : 
        Dipole               -1.0816 Ry au,         -2.7491 Debye
        Dipole field         -0.0007 Ry au, 
 
        Potential amp.        0.0730 Ry
        Total length         55.1515 bohr
 

     total cpu time spent up to now is      239.5 secs

     total energy              =   -7737.77417987 Ry
     estimated scf accuracy    <       7.41826170 Ry

     total magnetization       =    78.21 Bohr mag/cell
     absolute magnetization    =    88.60 Bohr mag/cell

     iteration # 15     ecut=    50.00 Ry     beta= 0.10
     Davidson diagonalization with overlap
     ethr =  6.33E-04,  avg # of iterations =  1.0

     negative rho (up, down):  6.715E-04 1.352E-03
 
     Adding external electric field

     Computed dipole along edir(3) : 
        Dipole               -1.0904 Ry au,         -2.7715 Debye
        Dipole field         -0.0007 Ry au, 
 
        Potential amp.        0.0736 Ry
        Total length         55.1515 bohr
 
 
     Adding external electric field

     Computed dipole along edir(3) : 
        Dipole               -1.0904 Ry au,         -2.7715 Debye
        Dipole field         -0.0007 Ry au, 
 
        Potential amp.        0.0736 Ry
        Total length         55.1515 bohr
 

     total cpu time spent up to now is      252.2 secs

     total energy              =   -7738.10751394 Ry
     estimated scf accuracy    <       1.03158735 Ry

     total magnetization       =    89.83 Bohr mag/cell
     absolute magnetization    =    96.89 Bohr mag/cell

     iteration # 16     ecut=    50.00 Ry     beta= 0.10
     Davidson diagonalization with overlap
     ethr =  9.44E-05,  avg # of iterations = 10.5

     negative rho (up, down):  7.191E-04 1.307E-03
 
     Adding external electric field

     Computed dipole along edir(3) : 
        Dipole               -1.0838 Ry au,         -2.7547 Debye
        Dipole field         -0.0007 Ry au, 
 
        Potential amp.        0.0732 Ry
        Total length         55.1515 bohr
 
 
     Adding external electric field

     Computed dipole along edir(3) : 
        Dipole               -1.0838 Ry au,         -2.7547 Debye
        Dipole field         -0.0007 Ry au, 
 
        Potential amp.        0.0732 Ry
        Total length         55.1515 bohr
 

     total cpu time spent up to now is      273.8 secs

     total energy              =   -7738.12295355 Ry
     estimated scf accuracy    <       1.03050562 Ry

     total magnetization       =    88.94 Bohr mag/cell
     absolute magnetization    =    96.04 Bohr mag/cell

     iteration # 17     ecut=    50.00 Ry     beta= 0.10
     Davidson diagonalization with overlap
     ethr =  9.43E-05,  avg # of iterations =  1.0

     negative rho (up, down):  9.388E-04 2.444E-03
 
     Adding external electric field

     Computed dipole along edir(3) : 
        Dipole               -1.1377 Ry au,         -2.8917 Debye
        Dipole field         -0.0007 Ry au, 
 
        Potential amp.        0.0768 Ry
        Total length         55.1515 bohr
 
 
     Adding external electric field

     Computed dipole along edir(3) : 
        Dipole               -1.1377 Ry au,         -2.8917 Debye
        Dipole field         -0.0007 Ry au, 
 
        Potential amp.        0.0768 Ry
        Total length         55.1515 bohr
 

     total cpu time spent up to now is      286.7 secs

     total energy              =   -7738.12475413 Ry
     estimated scf accuracy    <       1.00435838 Ry

     total magnetization       =    89.17 Bohr mag/cell
     absolute magnetization    =    96.24 Bohr mag/cell

     iteration # 18     ecut=    50.00 Ry     beta= 0.10
     Davidson diagonalization with overlap
     ethr =  9.19E-05,  avg # of iterations =  1.5

     negative rho (up, down):  1.071E-03 3.034E-03
 
     Adding external electric field

     Computed dipole along edir(3) : 
        Dipole               -1.1526 Ry au,         -2.9296 Debye
        Dipole field         -0.0007 Ry au, 
 
        Potential amp.        0.0778 Ry
        Total length         55.1515 bohr
 
 
     Adding external electric field

     Computed dipole along edir(3) : 
        Dipole               -1.1526 Ry au,         -2.9296 Debye
        Dipole field         -0.0007 Ry au, 
 
        Potential amp.        0.0778 Ry
        Total length         55.1515 bohr
 

     total cpu time spent up to now is      300.7 secs

     total energy              =   -7738.14729057 Ry
     estimated scf accuracy    <       1.25903237 Ry

     total magnetization       =    88.38 Bohr mag/cell
     absolute magnetization    =    94.90 Bohr mag/cell

     iteration # 19     ecut=    50.00 Ry     beta= 0.10
     Davidson diagonalization with overlap
     ethr =  9.19E-05,  avg # of iterations =  1.0

     negative rho (up, down):  8.729E-04 2.957E-03
 
     Adding external electric field

     Computed dipole along edir(3) : 
        Dipole               -1.1351 Ry au,         -2.8851 Debye
        Dipole field         -0.0007 Ry au, 
 
        Potential amp.        0.0766 Ry
        Total length         55.1515 bohr
 
 
     Adding external electric field

     Computed dipole along edir(3) : 
        Dipole               -1.1351 Ry au,         -2.8851 Debye
        Dipole field         -0.0007 Ry au, 
 
        Potential amp.        0.0766 Ry
        Total length         55.1515 bohr
 

     total cpu time spent up to now is      313.5 secs

     total energy              =   -7738.16864956 Ry
     estimated scf accuracy    <       1.26390907 Ry

     total magnetization       =    88.58 Bohr mag/cell
     absolute magnetization    =    94.59 Bohr mag/cell

     iteration # 20     ecut=    50.00 Ry     beta= 0.10
     Davidson diagonalization with overlap
     ethr =  9.19E-05,  avg # of iterations =  1.5

     negative rho (up, down):  3.899E-04 2.151E-03
 
     Adding external electric field

     Computed dipole along edir(3) : 
        Dipole               -1.1035 Ry au,         -2.8048 Debye
        Dipole field         -0.0007 Ry au, 
 
        Potential amp.        0.0745 Ry
        Total length         55.1515 bohr
 
 
     Adding external electric field

     Computed dipole along edir(3) : 
        Dipole               -1.1035 Ry au,         -2.8048 Debye
        Dipole field         -0.0007 Ry au, 
 
        Potential amp.        0.0745 Ry
        Total length         55.1515 bohr
 

     total cpu time spent up to now is      327.3 secs

     total energy              =   -7738.15048009 Ry
     estimated scf accuracy    <       0.83475778 Ry

     total magnetization       =    89.47 Bohr mag/cell
     absolute magnetization    =    94.35 Bohr mag/cell

     iteration # 21     ecut=    50.00 Ry     beta= 0.10
     Davidson diagonalization with overlap
     ethr =  7.64E-05,  avg # of iterations =  1.5

     negative rho (up, down):  3.985E-04 2.036E-03
 
     Adding external electric field

     Computed dipole along edir(3) : 
        Dipole               -1.0870 Ry au,         -2.7629 Debye
        Dipole field         -0.0007 Ry au, 
 
        Potential amp.        0.0734 Ry
        Total length         55.1515 bohr
 
 
     Adding external electric field

     Computed dipole along edir(3) : 
        Dipole               -1.0870 Ry au,         -2.7629 Debye
        Dipole field         -0.0007 Ry au, 
 
        Potential amp.        0.0734 Ry
        Total length         55.1515 bohr
 

     total cpu time spent up to now is      341.0 secs

     total energy              =   -7738.16450880 Ry
     estimated scf accuracy    <       0.64596071 Ry

     total magnetization       =    88.31 Bohr mag/cell
     absolute magnetization    =    93.08 Bohr mag/cell

     iteration # 22     ecut=    50.00 Ry     beta= 0.10
     Davidson diagonalization with overlap
     ethr =  5.91E-05,  avg # of iterations =  1.5

     negative rho (up, down):  1.682E-06 2.522E-04
 
     Adding external electric field

     Computed dipole along edir(3) : 
        Dipole               -0.8927 Ry au,         -2.2691 Debye
        Dipole field         -0.0005 Ry au, 
 
        Potential amp.        0.0603 Ry
        Total length         55.1515 bohr
 
 
     Adding external electric field

     Computed dipole along edir(3) : 
        Dipole               -0.8927 Ry au,         -2.2691 Debye
        Dipole field         -0.0005 Ry au, 
 
        Potential amp.        0.0603 Ry
        Total length         55.1515 bohr
 

     total cpu time spent up to now is      354.8 secs

     total energy              =   -7738.17803720 Ry
     estimated scf accuracy    <       0.57878781 Ry

     total magnetization       =    88.97 Bohr mag/cell
     absolute magnetization    =    93.67 Bohr mag/cell

     iteration # 23     ecut=    50.00 Ry     beta= 0.10
     Davidson diagonalization with overlap
     ethr =  5.30E-05,  avg # of iterations =  2.0

     negative rho (up, down):  8.467E-07 9.604E-05
 
     Adding external electric field

     Computed dipole along edir(3) : 
        Dipole               -0.8550 Ry au,         -2.1731 Debye
        Dipole field         -0.0005 Ry au, 
 
        Potential amp.        0.0577 Ry
        Total length         55.1515 bohr
 
 
     Adding external electric field

     Computed dipole along edir(3) : 
        Dipole               -0.8550 Ry au,         -2.1731 Debye
        Dipole field         -0.0005 Ry au, 
 
        Potential amp.        0.0577 Ry
        Total length         55.1515 bohr
 

     total cpu time spent up to now is      369.3 secs

     total energy              =   -7738.25221901 Ry
     estimated scf accuracy    <       1.44118305 Ry

     total magnetization       =    85.05 Bohr mag/cell
     absolute magnetization    =    89.32 Bohr mag/cell

     iteration # 24     ecut=    50.00 Ry     beta= 0.10
     Davidson diagonalization with overlap
     ethr =  5.30E-05,  avg # of iterations =  1.0

     negative rho (up, down):  1.798E-06 4.787E-04
 
     Adding external electric field

     Computed dipole along edir(3) : 
        Dipole               -0.8925 Ry au,         -2.2684 Debye
        Dipole field         -0.0005 Ry au, 
 
        Potential amp.        0.0603 Ry
        Total length         55.1515 bohr
 
 
     Adding external electric field

     Computed dipole along edir(3) : 
        Dipole               -0.8925 Ry au,         -2.2684 Debye
        Dipole field         -0.0005 Ry au, 
 
        Potential amp.        0.0603 Ry
        Total length         55.1515 bohr
 

     total cpu time spent up to now is      382.1 secs

     total energy              =   -7738.19566816 Ry
     estimated scf accuracy    <       2.71171300 Ry

     total magnetization       =    83.67 Bohr mag/cell
     absolute magnetization    =    87.88 Bohr mag/cell

     iteration # 25     ecut=    50.00 Ry     beta= 0.10
     Davidson diagonalization with overlap
     ethr =  5.30E-05,  avg # of iterations =  1.5

     negative rho (up, down):  1.838E-06 4.819E-04
 
     Adding external electric field

     Computed dipole along edir(3) : 
        Dipole               -0.8906 Ry au,         -2.2637 Debye
        Dipole field         -0.0005 Ry au, 
 
        Potential amp.        0.0601 Ry
        Total length         55.1515 bohr
 
 
     Adding external electric field

     Computed dipole along edir(3) : 
        Dipole               -0.8906 Ry au,         -2.2637 Debye
        Dipole field         -0.0005 Ry au, 
 
        Potential amp.        0.0601 Ry
        Total length         55.1515 bohr
 

     total cpu time spent up to now is      395.6 secs

     total energy              =   -7738.20509193 Ry
     estimated scf accuracy    <       1.19002050 Ry

     total magnetization       =    85.91 Bohr mag/cell
     absolute magnetization    =    89.94 Bohr mag/cell

     iteration # 26     ecut=    50.00 Ry     beta= 0.10
     Davidson diagonalization with overlap
     ethr =  5.30E-05,  avg # of iterations =  1.0

     negative rho (up, down):  1.286E-06 4.282E-04
 
     Adding external electric field

     Computed dipole along edir(3) : 
        Dipole               -0.8992 Ry au,         -2.2855 Debye
        Dipole field         -0.0006 Ry au, 
 
        Potential amp.        0.0607 Ry
        Total length         55.1515 bohr
 
 
     Adding external electric field

     Computed dipole along edir(3) : 
        Dipole               -0.8992 Ry au,         -2.2855 Debye
        Dipole field         -0.0006 Ry au, 
 
        Potential amp.        0.0607 Ry
        Total length         55.1515 bohr
 

     total cpu time spent up to now is      408.4 secs

     total energy              =   -7738.21395966 Ry
     estimated scf accuracy    <       1.21799757 Ry

     total magnetization       =    85.80 Bohr mag/cell
     absolute magnetization    =    89.80 Bohr mag/cell

     iteration # 27     ecut=    50.00 Ry     beta= 0.10
     Davidson diagonalization with overlap
     ethr =  5.30E-05,  avg # of iterations =  1.0

     negative rho (up, down):  4.797E-04 1.271E-03
 
     Adding external electric field

     Computed dipole along edir(3) : 
        Dipole               -1.0186 Ry au,         -2.5891 Debye
        Dipole field         -0.0006 Ry au, 
 
        Potential amp.        0.0688 Ry
        Total length         55.1515 bohr
 
 
     Adding external electric field

     Computed dipole along edir(3) : 
        Dipole               -1.0186 Ry au,         -2.5891 Debye
        Dipole field         -0.0006 Ry au, 
 
        Potential amp.        0.0688 Ry
        Total length         55.1515 bohr
 

     total cpu time spent up to now is      421.3 secs

     total energy              =   -7738.25969917 Ry
     estimated scf accuracy    <       1.11364920 Ry

     total magnetization       =    85.96 Bohr mag/cell
     absolute magnetization    =    89.87 Bohr mag/cell

     iteration # 28     ecut=    50.00 Ry     beta= 0.10
     Davidson diagonalization with overlap
     ethr =  5.30E-05,  avg # of iterations =  2.0

     negative rho (up, down):  1.051E-03 1.506E-03
 
     Adding external electric field

     Computed dipole along edir(3) : 
        Dipole               -0.9732 Ry au,         -2.4736 Debye
        Dipole field         -0.0006 Ry au, 
 
        Potential amp.        0.0657 Ry
        Total length         55.1515 bohr
 
 
     Adding external electric field

     Computed dipole along edir(3) : 
        Dipole               -0.9732 Ry au,         -2.4736 Debye
        Dipole field         -0.0006 Ry au, 
 
        Potential amp.        0.0657 Ry
        Total length         55.1515 bohr
 

     total cpu time spent up to now is      435.8 secs

     total energy              =   -7738.32924936 Ry
     estimated scf accuracy    <       0.35733209 Ry

     total magnetization       =    88.71 Bohr mag/cell
     absolute magnetization    =    91.43 Bohr mag/cell

     iteration # 29     ecut=    50.00 Ry     beta= 0.10
     Davidson diagonalization with overlap
     ethr =  3.27E-05,  avg # of iterations =  1.5

     negative rho (up, down):  1.231E-03 1.638E-03
 
     Adding external electric field

     Computed dipole along edir(3) : 
        Dipole               -0.9528 Ry au,         -2.4217 Debye
        Dipole field         -0.0006 Ry au, 
 
        Potential amp.        0.0643 Ry
        Total length         55.1515 bohr
 
 
     Adding external electric field

     Computed dipole along edir(3) : 
        Dipole               -0.9528 Ry au,         -2.4217 Debye
        Dipole field         -0.0006 Ry au, 
 
        Potential amp.        0.0643 Ry
        Total length         55.1515 bohr
 

     total cpu time spent up to now is      449.3 secs

     total energy              =   -7738.33800113 Ry
     estimated scf accuracy    <       0.23051399 Ry

     total magnetization       =    89.08 Bohr mag/cell
     absolute magnetization    =    91.08 Bohr mag/cell

     iteration # 30     ecut=    50.00 Ry     beta= 0.10
     Davidson diagonalization with overlap
     ethr =  2.11E-05,  avg # of iterations =  2.0

     negative rho (up, down):  8.947E-04 1.469E-03
 
     Adding external electric field

     Computed dipole along edir(3) : 
        Dipole               -0.9331 Ry au,         -2.3716 Debye
        Dipole field         -0.0006 Ry au, 
 
        Potential amp.        0.0630 Ry
        Total length         55.1515 bohr
 
 
     Adding external electric field

     Computed dipole along edir(3) : 
        Dipole               -0.9331 Ry au,         -2.3716 Debye
        Dipole field         -0.0006 Ry au, 
 
        Potential amp.        0.0630 Ry
        Total length         55.1515 bohr
 

     total cpu time spent up to now is      463.8 secs

     total energy              =   -7738.33770126 Ry
     estimated scf accuracy    <       0.22023947 Ry

     total magnetization       =    89.14 Bohr mag/cell
     absolute magnetization    =    90.89 Bohr mag/cell

     iteration # 31     ecut=    50.00 Ry     beta= 0.10
     Davidson diagonalization with overlap
     ethr =  2.01E-05,  avg # of iterations =  1.5

     negative rho (up, down):  5.419E-04 9.341E-04
 
     Adding external electric field

     Computed dipole along edir(3) : 
        Dipole               -0.9322 Ry au,         -2.3693 Debye
        Dipole field         -0.0006 Ry au, 
 
        Potential amp.        0.0629 Ry
        Total length         55.1515 bohr
 
 
     Adding external electric field

     Computed dipole along edir(3) : 
        Dipole               -0.9322 Ry au,         -2.3693 Debye
        Dipole field         -0.0006 Ry au, 
 
        Potential amp.        0.0629 Ry
        Total length         55.1515 bohr
 

     total cpu time spent up to now is      477.9 secs

     total energy              =   -7738.34546722 Ry
     estimated scf accuracy    <       0.22818997 Ry

     total magnetization       =    89.14 Bohr mag/cell
     absolute magnetization    =    90.58 Bohr mag/cell

     iteration # 32     ecut=    50.00 Ry     beta= 0.10
     Davidson diagonalization with overlap
     ethr =  2.01E-05,  avg # of iterations =  2.0

     negative rho (up, down):  1.281E-03 1.468E-03
 
     Adding external electric field

     Computed dipole along edir(3) : 
        Dipole               -0.8448 Ry au,         -2.1473 Debye
        Dipole field         -0.0005 Ry au, 
 
        Potential amp.        0.0570 Ry
        Total length         55.1515 bohr
 
 
     Adding external electric field

     Computed dipole along edir(3) : 
        Dipole               -0.8448 Ry au,         -2.1473 Debye
        Dipole field         -0.0005 Ry au, 
 
        Potential amp.        0.0570 Ry
        Total length         55.1515 bohr
 

     total cpu time spent up to now is      492.4 secs

     total energy              =   -7738.34572203 Ry
     estimated scf accuracy    <       0.25690092 Ry

     total magnetization       =    89.03 Bohr mag/cell
     absolute magnetization    =    90.41 Bohr mag/cell

     iteration # 33     ecut=    50.00 Ry     beta= 0.10
     Davidson diagonalization with overlap
     ethr =  2.01E-05,  avg # of iterations = 13.0

     negative rho (up, down):  1.683E-03 1.874E-03
 
     Adding external electric field

     Computed dipole along edir(3) : 
        Dipole               -0.8063 Ry au,         -2.0495 Debye
        Dipole field         -0.0005 Ry au, 
 
        Potential amp.        0.0544 Ry
        Total length         55.1515 bohr
 
 
     Adding external electric field

     Computed dipole along edir(3) : 
        Dipole               -0.8063 Ry au,         -2.0495 Debye
        Dipole field         -0.0005 Ry au, 
 
        Potential amp.        0.0544 Ry
        Total length         55.1515 bohr
 

     total cpu time spent up to now is      520.0 secs

     total energy              =   -7738.34350579 Ry
     estimated scf accuracy    <       0.25021861 Ry

     total magnetization       =    88.97 Bohr mag/cell
     absolute magnetization    =    90.27 Bohr mag/cell

     iteration # 34     ecut=    50.00 Ry     beta= 0.10
     Davidson diagonalization with overlap
     ethr =  2.01E-05,  avg # of iterations =  2.0

     negative rho (up, down):  1.875E-03 2.088E-03
 
     Adding external electric field

     Computed dipole along edir(3) : 
        Dipole               -0.8202 Ry au,         -2.0848 Debye
        Dipole field         -0.0005 Ry au, 
 
        Potential amp.        0.0554 Ry
        Total length         55.1515 bohr
 
 
     Adding external electric field

     Computed dipole along edir(3) : 
        Dipole               -0.8202 Ry au,         -2.0848 Debye
        Dipole field         -0.0005 Ry au, 
 
        Potential amp.        0.0554 Ry
        Total length         55.1515 bohr
 

     total cpu time spent up to now is      534.3 secs

     total energy              =   -7738.34452526 Ry
     estimated scf accuracy    <       0.20949623 Ry

     total magnetization       =    88.92 Bohr mag/cell
     absolute magnetization    =    90.27 Bohr mag/cell

     iteration # 35     ecut=    50.00 Ry     beta= 0.10
     Davidson diagonalization with overlap
     ethr =  1.92E-05,  avg # of iterations =  1.5

     negative rho (up, down):  5.317E-06 4.422E-05
 
     Adding external electric field

     Computed dipole along edir(3) : 
        Dipole               -0.8619 Ry au,         -2.1907 Debye
        Dipole field         -0.0005 Ry au, 
 
        Potential amp.        0.0582 Ry
        Total length         55.1515 bohr
 
 
     Adding external electric field

     Computed dipole along edir(3) : 
        Dipole               -0.8619 Ry au,         -2.1907 Debye
        Dipole field         -0.0005 Ry au, 
 
        Potential amp.        0.0582 Ry
        Total length         55.1515 bohr
 

     total cpu time spent up to now is      547.2 secs

     total energy              =   -7738.31369310 Ry
     estimated scf accuracy    <       0.22235511 Ry

     total magnetization       =    88.96 Bohr mag/cell
     absolute magnetization    =    90.47 Bohr mag/cell

     iteration # 36     ecut=    50.00 Ry     beta= 0.10
     Davidson diagonalization with overlap
     ethr =  1.92E-05,  avg # of iterations =  2.0

     negative rho (up, down):  1.240E-05 6.336E-05
 
     Adding external electric field

     Computed dipole along edir(3) : 
        Dipole               -0.8237 Ry au,         -2.0937 Debye
        Dipole field         -0.0005 Ry au, 
 
        Potential amp.        0.0556 Ry
        Total length         55.1515 bohr
 
 
     Adding external electric field

     Computed dipole along edir(3) : 
        Dipole               -0.8237 Ry au,         -2.0937 Debye
        Dipole field         -0.0005 Ry au, 
 
        Potential amp.        0.0556 Ry
        Total length         55.1515 bohr
 

     total cpu time spent up to now is      561.6 secs

     total energy              =   -7738.31051574 Ry
     estimated scf accuracy    <       0.17073872 Ry

     total magnetization       =    88.77 Bohr mag/cell
     absolute magnetization    =    90.65 Bohr mag/cell

     iteration # 37     ecut=    50.00 Ry     beta= 0.10
     Davidson diagonalization with overlap
     ethr =  1.56E-05,  avg # of iterations =  1.5

     negative rho (up, down):  1.433E-03 2.107E-03
 
     Adding external electric field

     Computed dipole along edir(3) : 
        Dipole               -0.7503 Ry au,         -1.9071 Debye
        Dipole field         -0.0005 Ry au, 
 
        Potential amp.        0.0507 Ry
        Total length         55.1515 bohr
 
 
     Adding external electric field

     Computed dipole along edir(3) : 
        Dipole               -0.7503 Ry au,         -1.9071 Debye
        Dipole field         -0.0005 Ry au, 
 
        Potential amp.        0.0507 Ry
        Total length         55.1515 bohr
 

     total cpu time spent up to now is      575.0 secs

     total energy              =   -7738.31489283 Ry
     estimated scf accuracy    <       0.16203175 Ry

     total magnetization       =    88.59 Bohr mag/cell
     absolute magnetization    =    90.56 Bohr mag/cell

     iteration # 38     ecut=    50.00 Ry     beta= 0.10
     Davidson diagonalization with overlap
     ethr =  1.48E-05,  avg # of iterations =  2.0

     negative rho (up, down):  1.404E-02 1.632E-02
 
     Adding external electric field

     Computed dipole along edir(3) : 
        Dipole               -0.5546 Ry au,         -1.4098 Debye
        Dipole field         -0.0003 Ry au, 
 
        Potential amp.        0.0374 Ry
        Total length         55.1515 bohr
 
 
     Adding external electric field

     Computed dipole along edir(3) : 
        Dipole               -0.5546 Ry au,         -1.4098 Debye
        Dipole field         -0.0003 Ry au, 
 
        Potential amp.        0.0374 Ry
        Total length         55.1515 bohr
 

     total cpu time spent up to now is      590.0 secs

     total energy              =   -7738.31082887 Ry
     estimated scf accuracy    <       0.11384124 Ry

     total magnetization       =    89.01 Bohr mag/cell
     absolute magnetization    =    90.61 Bohr mag/cell

     iteration # 39     ecut=    50.00 Ry     beta= 0.10
     Davidson diagonalization with overlap
     ethr =  1.04E-05,  avg # of iterations =  3.0

     negative rho (up, down):  1.115E-02 1.146E-02
 
     Adding external electric field

     Computed dipole along edir(3) : 
        Dipole               -0.5930 Ry au,         -1.5074 Debye
        Dipole field         -0.0004 Ry au, 
 
        Potential amp.        0.0400 Ry
        Total length         55.1515 bohr
 
 
     Adding external electric field

     Computed dipole along edir(3) : 
        Dipole               -0.5930 Ry au,         -1.5074 Debye
        Dipole field         -0.0004 Ry au, 
 
        Potential amp.        0.0400 Ry
        Total length         55.1515 bohr
 

     total cpu time spent up to now is      606.3 secs

     total energy              =   -7738.31901499 Ry
     estimated scf accuracy    <       0.04371211 Ry

     total magnetization       =    88.52 Bohr mag/cell
     absolute magnetization    =    90.05 Bohr mag/cell

     iteration # 40     ecut=    50.00 Ry     beta= 0.10
     Davidson diagonalization with overlap
     c_bands:  4 eigenvalues not converged
     c_bands:  2 eigenvalues not converged
     ethr =  4.00E-06,  avg # of iterations = 20.0

     negative rho (up, down):  1.235E-02 1.346E-02
 
     Adding external electric field

     Computed dipole along edir(3) : 
        Dipole               -0.6276 Ry au,         -1.5951 Debye
        Dipole field         -0.0004 Ry au, 
 
        Potential amp.        0.0424 Ry
        Total length         55.1515 bohr
 
 
     Adding external electric field

     Computed dipole along edir(3) : 
        Dipole               -0.6276 Ry au,         -1.5951 Debye
        Dipole field         -0.0004 Ry au, 
 
        Potential amp.        0.0424 Ry
        Total length         55.1515 bohr
 

     total cpu time spent up to now is      634.4 secs

     total energy              =   -7738.32681811 Ry
     estimated scf accuracy    <       0.08166389 Ry

     total magnetization       =    89.02 Bohr mag/cell
     absolute magnetization    =    90.48 Bohr mag/cell

     iteration # 41     ecut=    50.00 Ry     beta= 0.10
     Davidson diagonalization with overlap
     c_bands:  1 eigenvalues not converged
     ethr =  4.00E-06,  avg # of iterations = 23.0

     negative rho (up, down):  1.229E-02 1.358E-02
 
     Adding external electric field

     Computed dipole along edir(3) : 
        Dipole               -0.6169 Ry au,         -1.5681 Debye
        Dipole field         -0.0004 Ry au, 
 
        Potential amp.        0.0417 Ry
        Total length         55.1515 bohr
 
 
     Adding external electric field

     Computed dipole along edir(3) : 
        Dipole               -0.6169 Ry au,         -1.5681 Debye
        Dipole field         -0.0004 Ry au, 
 
        Potential amp.        0.0417 Ry
        Total length         55.1515 bohr
 

     total cpu time spent up to now is      667.5 secs

     total energy              =   -7738.32606573 Ry
     estimated scf accuracy    <       0.10252339 Ry

     total magnetization       =    88.99 Bohr mag/cell
     absolute magnetization    =    90.36 Bohr mag/cell

     iteration # 42     ecut=    50.00 Ry     beta= 0.10
     Davidson diagonalization with overlap
     ethr =  4.00E-06,  avg # of iterations =  1.5

     negative rho (up, down):  1.379E-02 1.513E-02
 
     Adding external electric field

     Computed dipole along edir(3) : 
        Dipole               -0.6024 Ry au,         -1.5312 Debye
        Dipole field         -0.0004 Ry au, 
 
        Potential amp.        0.0407 Ry
        Total length         55.1515 bohr
 
 
     Adding external electric field

     Computed dipole along edir(3) : 
        Dipole               -0.6024 Ry au,         -1.5312 Debye
        Dipole field         -0.0004 Ry au, 
 
        Potential amp.        0.0407 Ry
        Total length         55.1515 bohr
 

     total cpu time spent up to now is      681.1 secs

     total energy              =   -7738.32496644 Ry
     estimated scf accuracy    <       0.09686701 Ry

     total magnetization       =    88.92 Bohr mag/cell
     absolute magnetization    =    90.30 Bohr mag/cell

     iteration # 43     ecut=    50.00 Ry     beta= 0.10
     Davidson diagonalization with overlap
     ethr =  4.00E-06,  avg # of iterations =  1.5

     negative rho (up, down):  1.367E-02 1.497E-02
 
     Adding external electric field

     Computed dipole along edir(3) : 
        Dipole               -0.6077 Ry au,         -1.5446 Debye
        Dipole field         -0.0004 Ry au, 
 
        Potential amp.        0.0410 Ry
        Total length         55.1515 bohr
 
 
     Adding external electric field

     Computed dipole along edir(3) : 
        Dipole               -0.6077 Ry au,         -1.5446 Debye
        Dipole field         -0.0004 Ry au, 
 
        Potential amp.        0.0410 Ry
        Total length         55.1515 bohr
 

     total cpu time spent up to now is      694.8 secs

     total energy              =   -7738.32502847 Ry
     estimated scf accuracy    <       0.09013150 Ry

     total magnetization       =    88.95 Bohr mag/cell
     absolute magnetization    =    90.36 Bohr mag/cell

     iteration # 44     ecut=    50.00 Ry     beta= 0.10
     Davidson diagonalization with overlap
     ethr =  4.00E-06,  avg # of iterations =  1.5

     negative rho (up, down):  1.067E-02 1.187E-02
 
     Adding external electric field

     Computed dipole along edir(3) : 
        Dipole               -0.6102 Ry au,         -1.5509 Debye
        Dipole field         -0.0004 Ry au, 
 
        Potential amp.        0.0412 Ry
        Total length         55.1515 bohr
 
 
     Adding external electric field

     Computed dipole along edir(3) : 
        Dipole               -0.6102 Ry au,         -1.5509 Debye
        Dipole field         -0.0004 Ry au, 
 
        Potential amp.        0.0412 Ry
        Total length         55.1515 bohr
 

     total cpu time spent up to now is      708.4 secs

     total energy              =   -7738.32394352 Ry
     estimated scf accuracy    <       0.09229984 Ry

     total magnetization       =    88.94 Bohr mag/cell
     absolute magnetization    =    90.40 Bohr mag/cell

     iteration # 45     ecut=    50.00 Ry     beta= 0.10
     Davidson diagonalization with overlap
     ethr =  4.00E-06,  avg # of iterations =  1.0

     negative rho (up, down):  1.314E-02 1.479E-02
 
     Adding external electric field

     Computed dipole along edir(3) : 
        Dipole               -0.5902 Ry au,         -1.5002 Debye
        Dipole field         -0.0004 Ry au, 
 
        Potential amp.        0.0399 Ry
        Total length         55.1515 bohr
 
 
     Adding external electric field

     Computed dipole along edir(3) : 
        Dipole               -0.5902 Ry au,         -1.5002 Debye
        Dipole field         -0.0004 Ry au, 
 
        Potential amp.        0.0399 Ry
        Total length         55.1515 bohr
 

     total cpu time spent up to now is      721.2 secs

     total energy              =   -7738.32300394 Ry
     estimated scf accuracy    <       0.08256582 Ry

     total magnetization       =    88.86 Bohr mag/cell
     absolute magnetization    =    90.19 Bohr mag/cell

     iteration # 46     ecut=    50.00 Ry     beta= 0.10
     Davidson diagonalization with overlap
     ethr =  4.00E-06,  avg # of iterations =  1.0

     negative rho (up, down):  4.671E-03 4.989E-03
 
     Adding external electric field

     Computed dipole along edir(3) : 
        Dipole               -0.6427 Ry au,         -1.6337 Debye
        Dipole field         -0.0004 Ry au, 
 
        Potential amp.        0.0434 Ry
        Total length         55.1515 bohr
 
 
     Adding external electric field

     Computed dipole along edir(3) : 
        Dipole               -0.6427 Ry au,         -1.6337 Debye
        Dipole field         -0.0004 Ry au, 
 
        Potential amp.        0.0434 Ry
        Total length         55.1515 bohr
 

     total cpu time spent up to now is      734.3 secs

     total energy              =   -7738.32365271 Ry
     estimated scf accuracy    <       0.07482600 Ry

     total magnetization       =    88.92 Bohr mag/cell
     absolute magnetization    =    90.17 Bohr mag/cell

     iteration # 47     ecut=    50.00 Ry     beta= 0.10
     Davidson diagonalization with overlap
     ethr =  4.00E-06,  avg # of iterations =  2.0

     negative rho (up, down):  7.095E-04 8.957E-04
 
     Adding external electric field

     Computed dipole along edir(3) : 
        Dipole               -0.6613 Ry au,         -1.6810 Debye
        Dipole field         -0.0004 Ry au, 
 
        Potential amp.        0.0447 Ry
        Total length         55.1515 bohr
 
 
     Adding external electric field

     Computed dipole along edir(3) : 
        Dipole               -0.6613 Ry au,         -1.6810 Debye
        Dipole field         -0.0004 Ry au, 
 
        Potential amp.        0.0447 Ry
        Total length         55.1515 bohr
 

     total cpu time spent up to now is      748.7 secs

     total energy              =   -7738.31895134 Ry
     estimated scf accuracy    <       0.07630770 Ry

     total magnetization       =    88.83 Bohr mag/cell
     absolute magnetization    =    90.17 Bohr mag/cell

     iteration # 48     ecut=    50.00 Ry     beta= 0.10
     Davidson diagonalization with overlap
     ethr =  4.00E-06,  avg # of iterations =  2.0

     negative rho (up, down):  1.757E-04 2.581E-04
 
     Adding external electric field

     Computed dipole along edir(3) : 
        Dipole               -0.6181 Ry au,         -1.5711 Debye
        Dipole field         -0.0004 Ry au, 
 
        Potential amp.        0.0417 Ry
        Total length         55.1515 bohr
 
 
     Adding external electric field

     Computed dipole along edir(3) : 
        Dipole               -0.6181 Ry au,         -1.5711 Debye
        Dipole field         -0.0004 Ry au, 
 
        Potential amp.        0.0417 Ry
        Total length         55.1515 bohr
 

     total cpu time spent up to now is      763.3 secs

     total energy              =   -7738.31702073 Ry
     estimated scf accuracy    <       0.04283219 Ry

     total magnetization       =    88.74 Bohr mag/cell
     absolute magnetization    =    90.19 Bohr mag/cell

     iteration # 49     ecut=    50.00 Ry     beta= 0.10
     Davidson diagonalization with overlap
     ethr =  3.92E-06,  avg # of iterations =  2.0

     negative rho (up, down):  2.845E-03 2.594E-03
 
     Adding external electric field

     Computed dipole along edir(3) : 
        Dipole               -0.6442 Ry au,         -1.6375 Debye
        Dipole field         -0.0004 Ry au, 
 
        Potential amp.        0.0435 Ry
        Total length         55.1515 bohr
 
 
     Adding external electric field

     Computed dipole along edir(3) : 
        Dipole               -0.6442 Ry au,         -1.6375 Debye
        Dipole field         -0.0004 Ry au, 
 
        Potential amp.        0.0435 Ry
        Total length         55.1515 bohr
 

     total cpu time spent up to now is      778.2 secs

     total energy              =   -7738.30521302 Ry
     estimated scf accuracy    <       0.17828202 Ry

     total magnetization       =    87.82 Bohr mag/cell
     absolute magnetization    =    89.37 Bohr mag/cell

     iteration # 50     ecut=    50.00 Ry     beta= 0.10
     Davidson diagonalization with overlap
     ethr =  3.92E-06,  avg # of iterations =  2.5

     negative rho (up, down):  3.436E-03 3.698E-03
 
     Adding external electric field

     Computed dipole along edir(3) : 
        Dipole               -0.6141 Ry au,         -1.5609 Debye
        Dipole field         -0.0004 Ry au, 
 
        Potential amp.        0.0415 Ry
        Total length         55.1515 bohr
 
 
     Adding external electric field

     Computed dipole along edir(3) : 
        Dipole               -0.6141 Ry au,         -1.5609 Debye
        Dipole field         -0.0004 Ry au, 
 
        Potential amp.        0.0415 Ry
        Total length         55.1515 bohr
 

     total cpu time spent up to now is      793.3 secs

     total energy              =   -7738.32108471 Ry
     estimated scf accuracy    <       0.08229040 Ry

     total magnetization       =    88.92 Bohr mag/cell
     absolute magnetization    =    90.33 Bohr mag/cell

     iteration # 51     ecut=    50.00 Ry     beta= 0.10
     Davidson diagonalization with overlap
     ethr =  3.92E-06,  avg # of iterations =  1.5

     negative rho (up, down):  2.975E-03 3.104E-03
 
     Adding external electric field

     Computed dipole along edir(3) : 
        Dipole               -0.6808 Ry au,         -1.7304 Debye
        Dipole field         -0.0004 Ry au, 
 
        Potential amp.        0.0460 Ry
        Total length         55.1515 bohr
 
 
     Adding external electric field

     Computed dipole along edir(3) : 
        Dipole               -0.6808 Ry au,         -1.7304 Debye
        Dipole field         -0.0004 Ry au, 
 
        Potential amp.        0.0460 Ry
        Total length         55.1515 bohr
 

     total cpu time spent up to now is      806.8 secs

     total energy              =   -7738.32674309 Ry
     estimated scf accuracy    <       0.05793469 Ry

     total magnetization       =    88.74 Bohr mag/cell
     absolute magnetization    =    90.16 Bohr mag/cell

     iteration # 52     ecut=    50.00 Ry     beta= 0.10
     Davidson diagonalization with overlap
     ethr =  3.92E-06,  avg # of iterations =  2.0

     negative rho (up, down):  3.392E-03 3.507E-03
 
     Adding external electric field

     Computed dipole along edir(3) : 
        Dipole               -0.6739 Ry au,         -1.7130 Debye
        Dipole field         -0.0004 Ry au, 
 
        Potential amp.        0.0455 Ry
        Total length         55.1515 bohr
 
 
     Adding external electric field

     Computed dipole along edir(3) : 
        Dipole               -0.6739 Ry au,         -1.7130 Debye
        Dipole field         -0.0004 Ry au, 
 
        Potential amp.        0.0455 Ry
        Total length         55.1515 bohr
 

     total cpu time spent up to now is      821.9 secs

     total energy              =   -7738.32775577 Ry
     estimated scf accuracy    <       0.09848074 Ry

     total magnetization       =    88.81 Bohr mag/cell
     absolute magnetization    =    90.16 Bohr mag/cell

     iteration # 53     ecut=    50.00 Ry     beta= 0.10
     Davidson diagonalization with overlap
     ethr =  3.92E-06,  avg # of iterations =  1.0

     negative rho (up, down):  2.868E-03 3.013E-03
 
     Adding external electric field

     Computed dipole along edir(3) : 
        Dipole               -0.6820 Ry au,         -1.7335 Debye
        Dipole field         -0.0004 Ry au, 
 
        Potential amp.        0.0460 Ry
        Total length         55.1515 bohr
 
 
     Adding external electric field

     Computed dipole along edir(3) : 
        Dipole               -0.6820 Ry au,         -1.7335 Debye
        Dipole field         -0.0004 Ry au, 
 
        Potential amp.        0.0460 Ry
        Total length         55.1515 bohr
 

     total cpu time spent up to now is      834.8 secs

     total energy              =   -7738.32778632 Ry
     estimated scf accuracy    <       0.09639962 Ry

     total magnetization       =    88.83 Bohr mag/cell
     absolute magnetization    =    90.18 Bohr mag/cell

     iteration # 54     ecut=    50.00 Ry     beta= 0.10
     Davidson diagonalization with overlap
     ethr =  3.92E-06,  avg # of iterations =  1.0

     negative rho (up, down):  3.282E-03 3.436E-03
 
     Adding external electric field

     Computed dipole along edir(3) : 
        Dipole               -0.6698 Ry au,         -1.7025 Debye
        Dipole field         -0.0004 Ry au, 
 
        Potential amp.        0.0452 Ry
        Total length         55.1515 bohr
 
 
     Adding external electric field

     Computed dipole along edir(3) : 
        Dipole               -0.6698 Ry au,         -1.7025 Debye
        Dipole field         -0.0004 Ry au, 
 
        Potential amp.        0.0452 Ry
        Total length         55.1515 bohr
 

     total cpu time spent up to now is      847.7 secs

     total energy              =   -7738.32656774 Ry
     estimated scf accuracy    <       0.09968024 Ry

     total magnetization       =    88.79 Bohr mag/cell
     absolute magnetization    =    90.15 Bohr mag/cell

     iteration # 55     ecut=    50.00 Ry     beta= 0.10
     Davidson diagonalization with overlap
     ethr =  3.92E-06,  avg # of iterations =  1.0

     negative rho (up, down):  7.251E-03 7.707E-03
 
     Adding external electric field

     Computed dipole along edir(3) : 
        Dipole               -0.6341 Ry au,         -1.6117 Debye
        Dipole field         -0.0004 Ry au, 
 
        Potential amp.        0.0428 Ry
        Total length         55.1515 bohr
 
 
     Adding external electric field

     Computed dipole along edir(3) : 
        Dipole               -0.6341 Ry au,         -1.6117 Debye
        Dipole field         -0.0004 Ry au, 
 
        Potential amp.        0.0428 Ry
        Total length         55.1515 bohr
 

     total cpu time spent up to now is      860.5 secs

     total energy              =   -7738.32516168 Ry
     estimated scf accuracy    <       0.09382824 Ry

     total magnetization       =    88.80 Bohr mag/cell
     absolute magnetization    =    90.15 Bohr mag/cell

     iteration # 56     ecut=    50.00 Ry     beta= 0.10
     Davidson diagonalization with overlap
     ethr =  3.92E-06,  avg # of iterations =  2.0

     negative rho (up, down):  1.093E-03 9.961E-04
 
     Adding external electric field

     Computed dipole along edir(3) : 
        Dipole               -0.5968 Ry au,         -1.5169 Debye
        Dipole field         -0.0004 Ry au, 
 
        Potential amp.        0.0403 Ry
        Total length         55.1515 bohr
 
 
     Adding external electric field

     Computed dipole along edir(3) : 
        Dipole               -0.5968 Ry au,         -1.5169 Debye
        Dipole field         -0.0004 Ry au, 
 
        Potential amp.        0.0403 Ry
        Total length         55.1515 bohr
 

     total cpu time spent up to now is      875.0 secs

     total energy              =   -7738.31692686 Ry
     estimated scf accuracy    <       0.09089338 Ry

     total magnetization       =    88.84 Bohr mag/cell
     absolute magnetization    =    90.13 Bohr mag/cell

     iteration # 57     ecut=    50.00 Ry     beta= 0.10
     Davidson diagonalization with overlap
     ethr =  3.92E-06,  avg # of iterations =  2.5

     negative rho (up, down):  1.695E-03 1.859E-03
 
     Adding external electric field

     Computed dipole along edir(3) : 
        Dipole               -0.6530 Ry au,         -1.6598 Debye
        Dipole field         -0.0004 Ry au, 
 
        Potential amp.        0.0441 Ry
        Total length         55.1515 bohr
 
 
     Adding external electric field

     Computed dipole along edir(3) : 
        Dipole               -0.6530 Ry au,         -1.6598 Debye
        Dipole field         -0.0004 Ry au, 
 
        Potential amp.        0.0441 Ry
        Total length         55.1515 bohr
 

     total cpu time spent up to now is      889.9 secs

     total energy              =   -7738.32073836 Ry
     estimated scf accuracy    <       0.03729405 Ry

     total magnetization       =    88.62 Bohr mag/cell
     absolute magnetization    =    89.94 Bohr mag/cell

     iteration # 58     ecut=    50.00 Ry     beta= 0.10
     Davidson diagonalization with overlap
     ethr =  3.41E-06,  avg # of iterations =  1.0

     negative rho (up, down):  5.999E-03 5.652E-03
 
     Adding external electric field

     Computed dipole along edir(3) : 
        Dipole               -0.4553 Ry au,         -1.1572 Debye
        Dipole field         -0.0003 Ry au, 
 
[...]
    -5.9783  -5.9643  -5.9142  -5.9042  -5.8826  -5.8748  -5.8724  -5.8427
    -5.8231  -5.7986  -5.7477  -5.7369  -5.7168  -5.6885  -5.6740  -5.6428
    -5.6379  -5.6283  -5.5895  -5.5735  -5.5660  -5.5575  -5.5539  -5.5297
    -5.5144  -5.5023  -5.4792  -5.4410  -5.3987  -5.3547  -5.3296  -5.3150
    -5.2938  -5.2629  -5.2320  -5.1636  -5.1485  -5.1447  -5.1309  -5.1010
    -5.0521  -5.0090  -4.9676  -4.9416  -4.8975  -4.8866  -4.8579  -4.8534
    -4.8114  -4.7929  -4.7778  -4.7407  -4.7053  -4.6871  -4.6462  -4.6019
    -4.5488  -4.4676  -4.4411  -4.4234  -4.4141  -4.3990  -4.3573  -4.3502
    -4.3021  -4.2802  -4.2534  -4.2308  -4.2010  -4.1673  -4.1149  -4.1041
    -4.0747  -4.0463  -4.0441  -4.0114  -3.9552  -3.9311  -3.9174  -3.8746
    -3.8658  -3.8172  -3.8084  -3.7968  -3.7847  -3.7452  -3.7209  -3.6925
    -3.6896  -3.6610  -3.6435  -3.5948  -3.5820  -3.5754  -3.5711  -3.5446
    -3.5406  -3.5182  -3.4996  -3.4744  -3.4557  -3.4398  -3.4248  -3.4102
    -3.4071  -3.3671  -3.3572  -3.3506  -3.3352  -3.3016  -3.2721  -3.2559
    -3.2513  -3.2085  -3.1941  -3.1795  -3.1465  -3.1135  -3.1012  -3.0790
    -3.0708  -3.0649  -3.0415  -3.0350  -3.0192  -3.0006  -2.9760  -2.9636
    -2.9271  -2.9155  -2.8935  -2.8856  -2.8661  -2.8506  -2.8111  -2.7935
    -2.7850  -2.7561  -2.7513  -2.7429  -2.7255  -2.7144  -2.7004  -2.6931
    -2.6851  -2.6745  -2.6587  -2.6447  -2.6386  -2.6055  -2.5994  -2.5944
    -2.5705  -2.5647  -2.5393  -2.5250  -2.5148  -2.4842  -2.4711  -2.4549
    -2.4424  -2.4189  -2.4073  -2.3769  -2.3555  -2.3512  -2.3180  -2.2845
    -2.2751  -2.2642  -2.2260  -2.2081  -2.1926  -2.1773  -2.1446  -2.1403
    -2.1123  -2.0853  -2.0661  -2.0610  -2.0552  -2.0403  -2.0287  -2.0198
    -1.9957  -1.9764  -1.9385  -1.9159  -1.9111  -1.9093  -1.8760  -1.8545
    -1.8395  -1.8340  -1.8226  -1.8075  -1.7870  -1.7143  -1.7069  -1.6898
    -1.6698  -1.6543  -1.6333  -1.6270  -1.6135  -1.6130  -1.5898  -1.5685
    -1.5477  -1.5314  -1.5137  -1.4865  -1.4840  -1.4532  -1.4339  -1.4265
    -1.3976  -1.3948  -1.3798  -1.3736  -1.3556  -1.3468  -1.3026  -1.2607
    -1.2321  -1.2099  -1.1692  -1.1476  -1.1346  -1.1304  -1.0909  -1.0530
    -1.0402  -0.9938  -0.9278  -0.8420  -0.7356  -0.7281  -0.6132  -0.5536
    -0.5218  -0.5080  -0.3556  -0.2156   0.1798   0.2215   0.2439   0.2486
     0.3005   0.3125   0.3152   0.3221   0.3314   0.3507   0.3597   0.3701
     0.3767   0.3905   0.3978   0.4042   0.4067   0.4156   0.4204   0.4277
     0.4340   0.4418   0.4637   0.4673   0.4770   0.4849   0.4922   0.4928
     0.4974   0.5034   0.5109   0.5179   0.5268   0.5344   0.5375   0.5447
     0.5461   0.5644   0.5682   0.5760   0.5853   0.6011   0.6047   0.6195
     0.6247   0.6261   0.6423   0.6494   0.6544   0.6629   0.6675   0.6794
     0.6857   0.6937   0.7017   0.7036   0.7142   0.7310   0.7336   0.7440
     0.7488   0.7597   0.7683   0.7699   0.7768   0.7926   0.8015   0.8126
     0.8143   0.8236   0.8399   0.8570   0.8678   0.8684   0.8707   0.8761
     0.8841   0.8905   0.9079   0.9110   0.9199   0.9541   0.9873   0.9963
     1.0206   1.0506   1.0897   1.1135   1.1243   1.6749   1.7368   1.7491
     1.7701   1.7912   1.8017   1.8168   1.8300   1.8442   1.9057   1.9209
     1.9407   1.9682   1.9919   2.0111   2.0446   2.0468   2.0970   2.1081
     2.1326   2.1447   2.1468   2.1812   2.1920   2.1973   2.2078   2.2354
     2.2691   2.2775   2.2974   2.3014   2.3143   2.3239   2.3326   2.3514
     2.3734   2.3758   2.3901   2.3934   2.4174   2.4210   2.4327   2.4949
     2.5031   2.5313   2.5371   2.5412   2.5539   2.5695   2.5895   2.5991
     2.6232   2.6826   2.7074   2.7221   2.7437   2.8031   2.8052   2.8655
     2.8767   2.9536   3.6538   3.7090   3.7224   3.7498   3.7849   3.7993
     3.8474   3.9056   3.9293   3.9508   3.9610   3.9835   4.0017   4.0074
     4.0547   4.0605   4.1449   4.1484   4.1580   4.1800   4.6515   4.6648
     4.7722   4.8156   4.8620   4.8975   4.9195   4.9625   5.0398   5.0961
     5.1151   5.1465   5.4274   6.2448   6.3754   6.6131   6.6620   6.7526
     6.8472   6.8667   6.8912   6.9676   6.9898   7.0692   7.1198   7.1319
     7.2720   7.3527   7.3582   7.4216   7.4823   7.5423   7.5751   7.6292
     7.6587   7.6689   7.7450   7.7701   7.8039   7.8620   7.8956   7.9693
     8.0027   8.0508   8.0553   8.0933   8.1082   8.1663   8.1831   8.2136
     8.2465   8.2864   8.3050   8.3331   8.4045   8.4311   8.4324   8.4543
     8.4601   8.4806   8.4992   8.5411   8.5560   8.5745   8.5988   8.6240
     8.6712   8.7079   8.7247   8.7557   8.7687   8.7813   8.8395   8.8471

     the Fermi energy is     1.6615 ev

!    total energy              =   -7738.31727398 Ry
     estimated scf accuracy    <       0.00000100 Ry
     smearing contrib. (-TS)   =      -0.02292432 Ry
     internal energy E=F+TS    =   -7738.29434965 Ry

     The total energy is F=E-TS. E is the sum of the following terms:
     one-electron contribution =  -94544.65385701 Ry
     hartree contribution      =   47889.56148517 Ry
     xc contribution           =   -2218.68034765 Ry
     ewald contribution        =   41137.28328958 Ry
     Dispersion Correction     =      -1.80497916 Ry
     electric field correction =       0.00005942 Ry

     total magnetization       =    88.46 Bohr mag/cell
     absolute magnetization    =    89.84 Bohr mag/cell

     convergence has been achieved in 140 iterations

     negative rho (up, down):  1.051E-03 5.880E-04

     Forces acting on atoms (cartesian axes, Ry/au):

     atom    1 type  1   force =    -0.00008284   -0.00030445    0.00016303
     atom    2 type  2   force =    -0.00035393    0.00055490   -0.00007771
     atom    3 type  1   force =    -0.00007306    0.00003006    0.00053017
     atom    4 type  1   force =    -0.00033674    0.00068996   -0.00040126
     atom    5 type  1   force =    -0.00028787    0.00070113    0.00008197
     atom    6 type  1   force =     0.00070775    0.00082205   -0.00050135
     atom    7 type  3   force =     0.00026153    0.00036904   -0.00036979
     atom    8 type  3   force =     0.00050785    0.00058414   -0.00062683
     atom    9 type  3   force =    -0.00007587    0.00066385   -0.00010564
     atom   10 type  3   force =    -0.00098043    0.00031869    0.00019494
     atom   11 type  4   force =     0.00033491    0.00032111   -0.00032669
     atom   12 type  4   force =    -0.00045253    0.00045750   -0.00058527
     atom   13 type  4   force =     0.00030632    0.00003998   -0.00031306
     atom   14 type  4   force =    -0.00033336    0.00020330   -0.00012427
     atom   15 type  4   force =    -0.00040323    0.00048237   -0.00015332
     atom   16 type  4   force =    -0.00009564    0.00038793   -0.00005979
     atom   17 type  4   force =    -0.00000563    0.00033715    0.00012162
     atom   18 type  4   force =     0.00045545    0.00015870   -0.00012943
     atom   19 type  4   force =     0.00054407   -0.00010534   -0.00060424
     atom   20 type  4   force =    -0.00009385    0.00011649    0.00015774
     atom   21 type  4   force =    -0.00054059    0.00026763    0.00029412
     atom   22 type  4   force =     0.00056294    0.00020933    0.00046914
     atom   23 type  4   force =    -0.00017883    0.00025843    0.00026843
     atom   24 type  4   force =     0.00019684    0.00036299    0.00036857
     atom   25 type  4   force =    -0.00102530    0.00041783   -0.00064471
     atom   26 type  4   force =     0.00030604    0.00025998    0.00057266
     atom   27 type  1   force =    -0.00636539   -0.00891778   -0.00305643
     atom   28 type  2   force =    -0.01206838    0.00021635   -0.00174465
     atom   29 type  1   force =     0.00332672   -0.00466044   -0.00091578
     atom   30 type  1   force =     0.00224225    0.00388886   -0.00194810
     atom   31 type  1   force =     0.00205566   -0.00493369   -0.00071119
     atom   32 type  1   force =    -0.00126202    0.00119706    0.00157018
     atom   33 type  3   force =    -0.00717022   -0.00077128   -0.00040809
     atom   34 type  3   force =    -0.00573026    0.00371328   -0.00122210
     atom   35 type  3   force =     0.00354617   -0.00144650   -0.00451588
     atom   36 type  3   force =     0.00105230   -0.00122358    0.00292271
     atom   37 type  4   force =     0.00884423    0.00528771   -0.00768432
     atom   38 type  4   force =     0.00377131   -0.00108831    0.02013214
     atom   39 type  4   force =    -0.00146829    0.00383567    0.01074079
     atom   40 type  4   force =    -0.00159958   -0.00230517   -0.00895724
     atom   41 type  4   force =     0.00215222    0.00860221    0.00658668
     atom   42 type  4   force =    -0.00455012   -0.00342362   -0.01680772
     atom   43 type  4   force =     0.01061689    0.00510062   -0.00750564
     atom   44 type  4   force =     0.00722893   -0.00302645    0.00609222
     atom   45 type  4   force =     0.00228480    0.00582592   -0.00067916
     atom   46 type  4   force =     0.00259316    0.00065064    0.00598362
     atom   47 type  4   force =    -0.01321112    0.00021199    0.00331483
     atom   48 type  4   force =    -0.01414190    0.00205688   -0.00318444
     atom   49 type  4   force =     0.01308105    0.00234928   -0.00483149
     atom   50 type  4   force =    -0.00348968   -0.00482043    0.00051477
     atom   51 type  4   force =    -0.00426537    0.00261122   -0.00071314
     atom   52 type  4   force =     0.01627377   -0.00323872    0.00420992
     atom   53 type  1   force =    -0.00755022   -0.00699485   -0.00833166
     atom   54 type  2   force =     0.01548895    0.01707678   -0.00990682
     atom   55 type  1   force =     0.00580811   -0.00495689   -0.00573243
     atom   56 type  1   force =    -0.02068792    0.01933340    0.02001825
     atom   57 type  1   force =     0.00444356   -0.00749666   -0.00133374
     atom   58 type  1   force =    -0.00389717   -0.00542171   -0.00082170
     atom   59 type  3   force =    -0.03903034   -0.03834781   -0.05605855
     atom   60 type  3   force =    -0.00495665   -0.00126860   -0.00118073
     atom   61 type  3   force =     0.00273375   -0.00100115   -0.01012623
     atom   62 type  3   force =     0.02912359   -0.04950929   -0.06059155
     atom   63 type  4   force =     0.00628338    0.00352486    0.02097150
     atom   64 type  4   force =     0.00454465    0.00229340    0.01459606
     atom   65 type  4   force =    -0.00066916    0.00290760    0.01279160
     atom   66 type  4   force =     0.00013126    0.00214775    0.01620060
     atom   67 type  4   force =     0.00107663   -0.00061776    0.03913691
     atom   68 type  4   force =    -0.00562799   -0.00397166   -0.01725686
     atom   69 type  4   force =     0.00778108    0.00445544   -0.00270420
     atom   70 type  4   force =     0.00175268   -0.00735957    0.03541542
     atom   71 type  4   force =    -0.00912185    0.03916003    0.00096179
     atom   72 type  4   force =     0.00226360   -0.00037563    0.00792042
     atom   73 type  4   force =    -0.03007503    0.00087830    0.00765499
     atom   74 type  4   force =    -0.01339625    0.00145296   -0.00043903
     atom   75 type  4   force =     0.01186520    0.00349579   -0.00252758
     atom   76 type  4   force =    -0.00234836   -0.00283306    0.00255881
     atom   77 type  4   force =     0.00919286    0.02577336   -0.00254138
     atom   78 type  4   force =     0.03348987   -0.00638352    0.00620264
     atom   79 type  1   force =    -0.00074382   -0.00045380    0.00058438
     atom   80 type  2   force =    -0.00011656    0.00042543   -0.00012272
     atom   81 type  1   force =     0.00047403   -0.00002145    0.00033890
     atom   82 type  1   force =    -0.00007205    0.00081389   -0.00012040
     atom   83 type  1   force =    -0.00081913    0.00076460    0.00071242
     atom   84 type  1   force =     0.00029996    0.00030197   -0.00015049
     atom   85 type  3   force =     0.00019287    0.00043417   -0.00021214
     atom   86 type  3   force =     0.00008247   -0.00020618   -0.00102284
     atom   87 type  3   force =    -0.00037323    0.00052431   -0.00013201
     atom   88 type  3   force =    -0.00077363    0.00088604    0.00026334
     atom   89 type  4   force =    -0.00011505    0.00057978   -0.00027397
     atom   90 type  4   force =    -0.00059700    0.00026475   -0.00028693
     atom   91 type  4   force =     0.00067122   -0.00056347    0.00021947
     atom   92 type  4   force =    -0.00050950    0.00023607   -0.00022707
     atom   93 type  4   force =    -0.00010540    0.00037225   -0.00003374
     atom   94 type  4   force =    -0.00008424    0.00037855   -0.00006185
     atom   95 type  4   force =     0.00006012   -0.00027849   -0.00019453
     atom   96 type  4   force =     0.00028246    0.00023256   -0.00063563
     atom   97 type  4   force =     0.00026495   -0.00013058   -0.00023611
     atom   98 type  4   force =     0.00025378    0.00058911   -0.00014207
     atom   99 type  4   force =    -0.00041948    0.00015350    0.00065719
     atom  100 type  4   force =    -0.00057627    0.00022831    0.00005640
     atom  101 type  4   force =    -0.00038202    0.00023890    0.00013027
     atom  102 type  4   force =     0.00000529    0.00037473    0.00048086
     atom  103 type  4   force =    -0.00055541    0.00036042   -0.00048864
     atom  104 type  4   force =     0.00056380    0.00027799   -0.00006316
     atom  105 type  1   force =    -0.00667991   -0.00737384   -0.00213521
     atom  106 type  2   force =    -0.01232849    0.00000813   -0.00154925
     atom  107 type  1   force =     0.00383583   -0.00444396   -0.00025404
     atom  108 type  1   force =     0.00239088    0.00390247   -0.00184521
     atom  109 type  1   force =     0.00152497   -0.00487752   -0.00054649
     atom  110 type  1   force =    -0.00102548    0.00136453    0.00166813
     atom  111 type  3   force =    -0.00698094   -0.00090739    0.00012122
     atom  112 type  3   force =    -0.00674896    0.00426503   -0.00242917
     atom  113 type  3   force =     0.00391726   -0.00300960   -0.00323810
     atom  114 type  3   force =     0.00118717   -0.00124586    0.00294241
     atom  115 type  4   force =     0.00864475    0.00513974   -0.00793387
     atom  116 type  4   force =     0.00469321   -0.00228758    0.01984600
     atom  117 type  4   force =    -0.00112630    0.00411977    0.01038411
     atom  118 type  4   force =    -0.00162405   -0.00247012   -0.00901454
     atom  119 type  4   force =     0.00205166    0.00839628    0.00625183
     atom  120 type  4   force =    -0.00467327   -0.00378471   -0.01886254
     atom  121 type  4   force =     0.00997370    0.00547514   -0.00681243
     atom  122 type  4   force =     0.00701812   -0.00300354    0.00607457
     atom  123 type  4   force =     0.00202506    0.00586906   -0.00062337
     atom  124 type  4   force =     0.00295884    0.00171488    0.00502217
     atom  125 type  4   force =    -0.01303558    0.00015778    0.00323517
     atom  126 type  4   force =    -0.01474503    0.00243059   -0.00309940
     atom  127 type  4   force =     0.01245410    0.00193289   -0.00480204
     atom  128 type  4   force =    -0.00370468   -0.00464424    0.00038366
     atom  129 type  4   force =    -0.00438276    0.00264299   -0.00061740
     atom  130 type  4   force =     0.01632828   -0.00326295    0.00399658
     atom  131 type  1   force =    -0.00744477   -0.00704992   -0.00829471
     atom  132 type  2   force =     0.01558800    0.01710746   -0.00989644
     atom  133 type  1   force =     0.00578446   -0.00497681   -0.00577791
     atom  134 type  1   force =    -0.02065073    0.01933258    0.02001827
     atom  135 type  1   force =     0.00448829   -0.00750537   -0.00133081
     atom  136 type  1   force =    -0.00386206   -0.00545094   -0.00083270
     atom  137 type  3   force =    -0.03898968   -0.03829283   -0.05611240
     atom  138 type  3   force =    -0.00478616   -0.00134373   -0.00112499
     atom  139 type  3   force =     0.00271628   -0.00091737   -0.01013431
     atom  140 type  3   force =     0.02910190   -0.04950769   -0.06059668
     atom  141 type  4   force =     0.00623122    0.00351919    0.02111082
     atom  142 type  4   force =     0.00432766    0.00240300    0.01468760
     atom  143 type  4   force =    -0.00060723    0.00279328    0.01285321
     atom  144 type  4   force =     0.00018383    0.00223401    0.01641333
     atom  145 type  4   force =     0.00121667   -0.00062051    0.03916137
     atom  146 type  4   force =    -0.00546037   -0.00391998   -0.01732812
     atom  147 type  4   force =     0.00776441    0.00448902   -0.00290280
     atom  148 type  4   force =     0.00164881   -0.00740151    0.03546057
     atom  149 type  4   force =    -0.00930955    0.03916838    0.00095836
     atom  150 type  4   force =     0.00204650   -0.00045423    0.00793174
     atom  151 type  4   force =    -0.02997181    0.00088176    0.00766459
     atom  152 type  4   force =    -0.01349039    0.00143955   -0.00044164
     atom  153 type  4   force =     0.01213642    0.00364607   -0.00252182
     atom  154 type  4   force =    -0.00240569   -0.00269341    0.00246343
     atom  155 type  4   force =     0.00909430    0.02578441   -0.00259746
     atom  156 type  4   force =     0.03344112   -0.00619368    0.00604800
     atom  157 type  4   force =    -0.00260801   -0.00264649    0.00108608
     atom  158 type  5   force =     0.00373065    0.00302642   -0.00142438

     Total force =     0.236767     Total SCF correction =     0.004110
 
     init_run     :      8.20s CPU      9.00s WALL (       1 calls)
     electrons    :   1965.00s CPU   2071.41s WALL (       1 calls)
     forces       :      4.92s CPU      5.49s WALL (       1 calls)
     force_london :      0.12s CPU      0.12s WALL (       1 calls)

     Called by init_run:
     wfcinit      :      4.66s CPU      4.90s WALL (       1 calls)
     potinit      :      0.52s CPU      0.71s WALL (       1 calls)
     hinit0       :      1.42s CPU      1.52s WALL (       1 calls)

     Called by electrons:
     c_bands      :   1524.08s CPU   1575.39s WALL (     140 calls)
     sum_band     :    279.34s CPU    308.37s WALL (     140 calls)
     v_of_rho     :     34.69s CPU     36.87s WALL (     141 calls)
     newd         :     83.48s CPU    107.12s WALL (     141 calls)
     mix_rho      :     40.95s CPU     41.21s WALL (     140 calls)
     energy_londo :      0.10s CPU      0.10s WALL (       1 calls)

     Called by c_bands:
     init_us_2    :      5.33s CPU      5.46s WALL (     564 calls)
     init_us_2:cp :      5.33s CPU      5.46s WALL (     564 calls)
     regterg      :   1485.35s CPU   1536.00s WALL (     282 calls)

     Called by *egterg:
     rdiaghg      :    377.34s CPU    399.64s WALL (     927 calls)
     h_psi        :    619.61s CPU    632.97s WALL (     929 calls)
     s_psi        :    121.67s CPU    121.76s WALL (     929 calls)
     g_psi        :      0.91s CPU      0.92s WALL (     645 calls)

     Called by h_psi:
     h_psi:calbec :    151.67s CPU    162.05s WALL (     929 calls)
     vloc_psi     :    344.78s CPU    346.31s WALL (     929 calls)
     add_vuspsi   :    121.52s CPU    122.93s WALL (     929 calls)

     General routines
     calbec       :    225.70s CPU    241.20s WALL (    1217 calls)
     fft          :     27.14s CPU     30.03s WALL (    2551 calls)
     ffts         :     25.05s CPU     25.11s WALL (   17519 calls)
     fftw         :    382.32s CPU    383.88s WALL (  470570 calls)
     interpolate  :      2.58s CPU      2.81s WALL (     282 calls)
 
     Parallel routines
 
     PWSCF        :  33m 0.24s CPU  34m48.31s WALL

 
   This run was terminated on:  20:48:27  19Nov2025            

=------------------------------------------------------------------------------=
   JOB DONE.
=------------------------------------------------------------------------------=
