
     Program PWSCF v.7.2 starts on 17Nov2025 at 23: 1:23 

     This program is part of the open-source Quantum ESPRESSO suite
     for quantum simulation of materials; please cite
         "P. Giannozzi et al., J. Phys.:Condens. Matter 21 395502 (2009);
         "P. Giannozzi et al., J. Phys.:Condens. Matter 29 465901 (2017);
         "P. Giannozzi et al., J. Chem. Phys. 152 154105 (2020);
          URL http://www.quantum-espresso.org", 
     in publications or presentations arising from this work. More details at
     http://www.quantum-espresso.org/quote

     Parallel version (MPI), running on    64 processors

     MPI processes distributed on     4 nodes
     466562 MiB available memory on the printing compute node when the environment starts
 
     Reading input from PWINPUT_atm157_ym

     Current dimensions of program PWSCF are:
     Max number of different atomic species (ntypx) = 10
     Max number of k-points (npk) =  40000
     Max angular momentum in pseudopotentials (lmaxx) =  4
     Presently no symmetry can be used with electric field

     file Ni.pbe-n-rrkjus_psl.1.0.0.UPF: wavefunction(s)  3D renormalized
     file Mn.pbe-spn-rrkjus_psl.0.3.1.UPF: wavefunction(s)  3D renormalized
     file O.pbe-rrkjus.UPF: wavefunction(s)  2S renormalized
     file H.pbe-rrkjus.UPF: wavefunction(s)  1S renormalized

     gamma-point specific algorithms are used
 
     R & G space division:  proc/nbgrp/npool/nimage =      64
     Subspace diagonalization in iterative solution of the eigenvalue problem:
     one sub-group per band group will be used
     custom distributed-memory algorithm (size of sub-group:  7*  7 procs)

 
     Parallelization info
     --------------------
     sticks:   dense  smooth     PW     G-vecs:    dense   smooth      PW
     Min         207      82     20                60552    15302    1896
     Max         210      84     22                60574    15336    1950
     Sum       13325    5345   1333              3876045   980655  122653
 
     Using Slab Decomposition
 


     bravais-lattice index     =            0
     lattice parameter (alat)  =      17.4067  a.u.
     unit-cell volume          =   20529.8182 (a.u.)^3
     number of atoms/cell      =          158
     number of atomic types    =            5
     number of electrons       =      1093.00
     number of Kohn-Sham states=          656
     kinetic-energy cutoff     =      50.0000  Ry
     charge density cutoff     =     500.0000  Ry
     scf convergence threshold =      1.0E-06
     mixing beta               =       0.1000
     number of iterations used =            8  local-TF  mixing
     Exchange-correlation=  SLA  PW   PBE  PBE
                           (   1   4   3   4   0   0   0)

     celldm(1)=  17.406729  celldm(2)=   0.000000  celldm(3)=   0.000000
     celldm(4)=   0.000000  celldm(5)=   0.000000  celldm(6)=   0.000000

     crystal axes: (cart. coord. in units of alat)
               a(1) = (   1.000000   0.000000   0.000000 )  
               a(2) = (  -0.001404   1.105696   0.000000 )  
               a(3) = (   0.000000   0.000000   3.520448 )  

     reciprocal axes: (cart. coord. in units 2 pi/alat)
               b(1) = (  1.000000  0.001270  0.000000 )  
               b(2) = (  0.000000  0.904408  0.000000 )  
               b(3) = (  0.000000  0.000000  0.284055 )  


     PseudoPot. # 1 for Ni read from file:
     ~/PSEUDO/Ni.pbe-n-rrkjus_psl.1.0.0.UPF
     MD5 check sum: Not computed, couldn't open file
     Pseudo is Ultrasoft + core correction, Zval = 10.0
     Generated using "atomic" code by A. Dal Corso  v.5.1.2
     Using radial grid of 1195 points,  6 beta functions with: 
                l(1) =   0
                l(2) =   0
                l(3) =   1
                l(4) =   1
                l(5) =   2
                l(6) =   2
     Q(r) pseudized with 0 coefficients 


     PseudoPot. # 2 for Mn read from file:
     ~/PSEUDO/Mn.pbe-spn-rrkjus_psl.0.3.1.UPF
     MD5 check sum: Not computed, couldn't open file
     Pseudo is Ultrasoft + core correction, Zval = 15.0
     Generated using &quot;atomic&quot; code by A. Dal Corso  v.6.2.2
     Using radial grid of 1187 points,  6 beta functions with: 
                l(1) =   0
                l(2) =   0
                l(3) =   1
                l(4) =   1
                l(5) =   2
                l(6) =   2
     Q(r) pseudized with 0 coefficients 


     PseudoPot. # 3 for P  read from file:
     ~/PSEUDO/P.pbe-n-rrkjus_psl.1.0.0.UPF
     MD5 check sum: Not computed, couldn't open file
     Pseudo is Ultrasoft + core correction, Zval =  5.0
     Generated using "atomic" code by A. Dal Corso  v.5.1
     Using radial grid of 1147 points,  6 beta functions with: 
                l(1) =   0
                l(2) =   0
                l(3) =   1
                l(4) =   1
                l(5) =   2
                l(6) =   2
     Q(r) pseudized with 0 coefficients 


     PseudoPot. # 4 for O  read from file:
     ~/PSEUDO/O.pbe-rrkjus.UPF
     MD5 check sum: Not computed, couldn't open file
     Pseudo is Ultrasoft, Zval =  6.0
     Generated by new atomic code, or converted to UPF format
     Using radial grid of 1269 points,  4 beta functions with: 
                l(1) =   0
                l(2) =   0
                l(3) =   1
                l(4) =   1
     Q(r) pseudized with 0 coefficients 


     PseudoPot. # 5 for H  read from file:
     ~/PSEUDO/H.pbe-rrkjus.UPF
     MD5 check sum: Not computed, couldn't open file
     Pseudo is Ultrasoft, Zval =  1.0
     Generated by new atomic code, or converted to UPF format
     Using radial grid of 1061 points,  2 beta functions with: 
                l(1) =   0
                l(2) =   0
     Q(r) pseudized with 0 coefficients 


     atomic species   valence    mass     pseudopotential
     Ni               10.00    58.69300     Ni( 1.00)
     Mn               15.00    54.93800     Mn( 1.00)
     P                 5.00    30.97300     P ( 1.00)
     O                 6.00    15.99900     O ( 1.00)
     H                 1.00     1.00790     H ( 1.00)

     Starting magnetic structure 
     atomic species   magnetization
     Ni              1.000
     Mn              1.000
     P               1.000
     O               1.000
     H               0.000

     No symmetry found



   Cartesian axes

     site n.     atom                  positions (alat units)
         1        Ni     tau(   1) = (   0.2506653   0.8550566   1.7482270  )
         2        Mn     tau(   2) = (   0.4868615   0.7893541   1.4308660  )
         3        Ni     tau(   3) = (  -0.0020905   0.3037554   1.7430097  )
         4        Ni     tau(   4) = (   0.2581845   0.2397011   1.4315278  )
         5        Ni     tau(   5) = (   0.4980783   1.1004513   1.6017203  )
         6        Ni     tau(   6) = (   0.2518422   0.5462731   1.6005047  )
         7        P      tau(   7) = (   0.2086760   0.9985220   1.4334561  )
         8        P      tau(   8) = (   0.4610745   0.6542330   1.7693768  )
         9        P      tau(   9) = (   0.2852120   0.1078232   1.7622391  )
        10        P      tau(  10) = (   0.0403977   0.4405659   1.4311024  )
        11        O      tau(  11) = (   0.1336577   0.9255702   1.5727005  )
        12        O      tau(  12) = (   0.3859844   0.7230279   1.6232271  )
        13        O      tau(  13) = (   0.3640826   0.1694454   1.6133293  )
        14        O      tau(  14) = (   0.1188105   0.3688923   1.5703532  )
        15        O      tau(  15) = (   0.1503492   0.9077861   1.3047839  )
        16        O      tau(  16) = (   0.3958379   0.7487419   1.8889350  )
        17        O      tau(  17) = (   0.3469236   0.2073723   1.8785519  )
        18        O      tau(  18) = (   0.1007453   0.3527083   1.3018906  )
        19        O      tau(  19) = (   0.0999278   0.5992574   1.4366202  )
        20        O      tau(  20) = (   0.3385595   1.0523920   1.7620033  )
        21        O      tau(  21) = (   0.3744945   0.4340276   1.4450679  )
        22        O      tau(  22) = (   0.1180138   0.1150013   1.7458001  )
        23        O      tau(  23) = (   0.1304815   0.6665087   1.7470642  )
        24        O      tau(  24) = (   0.4037610   0.4941012   1.7602096  )
        25        O      tau(  25) = (   0.1493555   0.0500451   1.4360519  )
        26        O      tau(  26) = (   0.3753238   0.9895344   1.4462146  )
        27        Ni     tau(  27) = (   0.2413539   0.8509941   1.1121345  )
        28        Mn     tau(  28) = (   0.4917018   0.7787406   0.7768134  )
        29        Ni     tau(  29) = (   0.0044877   0.2932623   1.1138982  )
        30        Ni     tau(  30) = (   0.2563139   0.2275682   0.7805625  )
        31        Ni     tau(  31) = (   0.4969120   1.0949007   0.9459116  )
        32        Ni     tau(  32) = (   0.2488318   0.5341111   0.9469721  )
        33        P      tau(  33) = (   0.2076029   0.9882917   0.7835381  )
        34        P      tau(  34) = (   0.4577012   0.6460068   1.1076436  )
        35        P      tau(  35) = (   0.2881931   0.0932770   1.1104179  )
        36        P      tau(  36) = (   0.0392916   0.4238898   0.7837243  )
        37        O      tau(  37) = (   0.1306755   0.9148866   0.9233554  )
        38        O      tau(  38) = (   0.3789780   0.7172835   0.9680652  )
        39        O      tau(  39) = (   0.3654852   0.1662865   0.9702638  )
        40        O      tau(  40) = (   0.1163776   0.3546954   0.9254186  )
        41        O      tau(  41) = (   0.1502901   0.8969129   0.6541592  )
        42        O      tau(  42) = (   0.3974525   0.7354243   1.2370031  )
        43        O      tau(  43) = (   0.3483097   0.1789497   1.2412670  )
        44        O      tau(  44) = (   0.0974932   0.3376387   0.6529083  )
        45        O      tau(  45) = (   0.0984699   0.5818903   0.7881021  )
        46        O      tau(  46) = (   0.3459978   1.0405493   1.1018526  )
        47        O      tau(  47) = (   0.3731719   0.4204123   0.7945555  )
        48        O      tau(  48) = (   0.1223503   0.0989699   1.1000566  )
        49        O      tau(  49) = (   0.1235438   0.6536772   1.0980598  )
        50        O      tau(  50) = (   0.4004339   0.4872435   1.1047245  )
        51        O      tau(  51) = (   0.1476543   0.0398268   0.7872561  )
        52        O      tau(  52) = (   0.3728637   0.9843360   0.7931368  )
        53        Ni     tau(  53) = (   0.2406075   0.8410745   0.4603118  )
        54        Mn     tau(  54) = (   0.4909555   0.7688210   0.1249907  )
        55        Ni     tau(  55) = (   0.0037414   0.2833427   0.4620755  )
        56        Ni     tau(  56) = (   0.2555676   0.2176485   0.1287398  )
        57        Ni     tau(  57) = (   0.4961657   1.0849810   0.2940889  )
        58        Ni     tau(  58) = (   0.2480854   0.5241915   0.2951494  )
        59        P      tau(  59) = (   0.2068565   0.9783721   0.1317154  )
        60        P      tau(  60) = (   0.4569549   0.6360871   0.4558210  )
        61        P      tau(  61) = (   0.2874467   0.0833574   0.4585952  )
        62        P      tau(  62) = (   0.0385452   0.4139702   0.1319017  )
        63        O      tau(  63) = (   0.1299291   0.9049669   0.2715327  )
        64        O      tau(  64) = (   0.3782317   0.7073639   0.3162425  )
        65        O      tau(  65) = (   0.3647389   0.1563669   0.3184411  )
        66        O      tau(  66) = (   0.1156313   0.3447757   0.2735959  )
        67        O      tau(  67) = (   0.1495437   0.8869933   0.0023366  )
        68        O      tau(  68) = (   0.3967062   0.7255047   0.5851804  )
        69        O      tau(  69) = (   0.3475634   0.1690300   0.5894443  )
        70        O      tau(  70) = (   0.0967469   0.3277190   0.0010856  )
        71        O      tau(  71) = (   0.0977236   0.5719706   0.1362794  )
        72        O      tau(  72) = (   0.3452514   1.0306297   0.4500300  )
        73        O      tau(  73) = (   0.3724256   0.4104926   0.1427328  )
        74        O      tau(  74) = (   0.1216040   0.0890503   0.4482339  )
        75        O      tau(  75) = (   0.1227974   0.6437575   0.4462371  )
        76        O      tau(  76) = (   0.3996875   0.4773239   0.4529018  )
        77        O      tau(  77) = (   0.1469079   0.0299071   0.1354334  )
        78        O      tau(  78) = (   0.3721173   0.9744163   0.1413141  )
        79        Ni     tau(  79) = (   0.7414379   0.8631934   1.7811905  )
        80        Mn     tau(  80) = (   0.9841778   0.7888082   1.4314224  )
        81        Ni     tau(  81) = (   0.4981575   0.2996622   1.7438399  )
        82        Ni     tau(  82) = (   0.7578892   0.2404171   1.4315495  )
        83        Ni     tau(  83) = (   0.9960243   1.1035763   1.5974106  )
        84        Ni     tau(  84) = (   0.7511014   0.5491218   1.6034046  )
        85        P      tau(  85) = (   0.7087866   0.9973915   1.4351950  )
        86        P      tau(  86) = (   0.9628486   0.6621696   1.7637363  )
        87        P      tau(  87) = (   0.7871746   0.1114899   1.7616375  )
        88        P      tau(  88) = (   0.5410567   0.4395544   1.4323437  )
        89        O      tau(  89) = (   0.6354630   0.9223360   1.5730365  )
        90        O      tau(  90) = (   0.8842257   0.7257126   1.6195033  )
        91        O      tau(  91) = (   0.8650973   0.1749877   1.6118653  )
        92        O      tau(  92) = (   0.6191862   0.3687812   1.5717219  )
        93        O      tau(  93) = (   0.6506723   0.9089988   1.3043577  )
        94        O      tau(  94) = (   0.9054210   0.7593145   1.8845788  )
        95        O      tau(  95) = (   0.8458988   0.2143962   1.8769408  )
        96        O      tau(  96) = (   0.6009712   0.3522741   1.3025522  )
        97        O      tau(  97) = (   0.5994071   0.5984853   1.4384741  )
        98        O      tau(  98) = (   0.8467958   1.0589836   1.7578834  )
        99        O      tau(  99) = (   0.8740438   0.4364663   1.4443826  )
       100        O      tau( 100) = (   0.6200794   0.1160167   1.7440992  )
       101        O      tau( 101) = (   0.6282264   0.6595953   1.7561119  )
       102        O      tau( 102) = (   0.9078379   0.5006245   1.7604184  )
       103        O      tau( 103) = (   0.6500092   0.0493715   1.4390795  )
       104        O      tau( 104) = (   0.8760524   0.9898930   1.4442019  )
       105        Ni     tau( 105) = (   0.7413539   0.8509941   1.1121345  )
       106        Mn     tau( 106) = (   0.9917018   0.7787406   0.7768134  )
       107        Ni     tau( 107) = (   0.5044877   0.2932623   1.1138982  )
       108        Ni     tau( 108) = (   0.7563139   0.2275682   0.7805625  )
       109        Ni     tau( 109) = (   0.9969120   1.0949007   0.9459116  )
       110        Ni     tau( 110) = (   0.7488318   0.5341111   0.9469721  )
       111        P      tau( 111) = (   0.7076029   0.9882917   0.7835381  )
       112        P      tau( 112) = (   0.9577012   0.6460068   1.1076436  )
       113        P      tau( 113) = (   0.7881931   0.0932770   1.1104179  )
       114        P      tau( 114) = (   0.5392916   0.4238898   0.7837243  )
       115        O      tau( 115) = (   0.6306755   0.9148866   0.9233554  )
       116        O      tau( 116) = (   0.8789780   0.7172835   0.9680652  )
       117        O      tau( 117) = (   0.8654852   0.1662865   0.9702638  )
       118        O      tau( 118) = (   0.6163776   0.3546954   0.9254186  )
       119        O      tau( 119) = (   0.6502901   0.8969129   0.6541592  )
       120        O      tau( 120) = (   0.8974525   0.7354243   1.2370031  )
       121        O      tau( 121) = (   0.8483097   0.1789497   1.2412670  )
       122        O      tau( 122) = (   0.5974932   0.3376387   0.6529083  )
       123        O      tau( 123) = (   0.5984699   0.5818903   0.7881021  )
       124        O      tau( 124) = (   0.8459978   1.0405493   1.1018526  )
       125        O      tau( 125) = (   0.8731719   0.4204123   0.7945555  )
       126        O      tau( 126) = (   0.6223503   0.0989699   1.1000566  )
       127        O      tau( 127) = (   0.6235438   0.6536772   1.0980598  )
       128        O      tau( 128) = (   0.9004339   0.4872435   1.1047245  )
       129        O      tau( 129) = (   0.6476543   0.0398268   0.7872561  )
       130        O      tau( 130) = (   0.8728637   0.9843360   0.7931368  )
       131        Ni     tau( 131) = (   0.7406075   0.8410745   0.4603118  )
       132        Mn     tau( 132) = (   0.9909555   0.7688210   0.1249907  )
       133        Ni     tau( 133) = (   0.5037414   0.2833427   0.4620755  )
       134        Ni     tau( 134) = (   0.7555676   0.2176485   0.1287398  )
       135        Ni     tau( 135) = (   0.9961657   1.0849810   0.2940889  )
       136        Ni     tau( 136) = (   0.7480854   0.5241915   0.2951494  )
       137        P      tau( 137) = (   0.7068565   0.9783721   0.1317154  )
       138        P      tau( 138) = (   0.9569549   0.6360871   0.4558210  )
       139        P      tau( 139) = (   0.7874467   0.0833574   0.4585952  )
       140        P      tau( 140) = (   0.5385452   0.4139702   0.1319017  )
       141        O      tau( 141) = (   0.6299291   0.9049669   0.2715327  )
       142        O      tau( 142) = (   0.8782317   0.7073639   0.3162425  )
       143        O      tau( 143) = (   0.8647389   0.1563669   0.3184411  )
       144        O      tau( 144) = (   0.6156313   0.3447757   0.2735959  )
       145        O      tau( 145) = (   0.6495437   0.8869933   0.0023366  )
       146        O      tau( 146) = (   0.8967062   0.7255047   0.5851804  )
       147        O      tau( 147) = (   0.8475634   0.1690300   0.5894443  )
       148        O      tau( 148) = (   0.5967469   0.3277190   0.0010856  )
       149        O      tau( 149) = (   0.5977236   0.5719706   0.1362794  )
       150        O      tau( 150) = (   0.8452514   1.0306297   0.4500300  )
       151        O      tau( 151) = (   0.8724256   0.4104926   0.1427328  )
       152        O      tau( 152) = (   0.6216040   0.0890503   0.4482339  )
       153        O      tau( 153) = (   0.6227974   0.6437575   0.4462371  )
       154        O      tau( 154) = (   0.8996875   0.4773239   0.4529018  )
       155        O      tau( 155) = (   0.6469079   0.0299071   0.1354334  )
       156        O      tau( 156) = (   0.8721173   0.9744163   0.1413141  )
       157        O      tau( 157) = (   0.6206852   0.9476369   1.9111104  )
       158        H      tau( 158) = (   0.5390407   0.8844830   1.9390630  )

     -------------------------------------------------
     Parameters for Dispersion (Grimme-D2) Correction:
     -------------------------------------------------
       atom      VdW radius       C_6     

        Ni         2.952        374.666
        Mn         2.952        374.666
        P          3.222        271.980
        O          2.536         24.284
        H          1.892          4.857

     number of k points=     1  Gaussian smearing, width (Ry)=  0.0100
                       cart. coord. in units 2pi/alat
        k(    1) = (   0.0000000   0.0000000   0.0000000), wk =   1.0000000

     Dense  grid:  1938023 G-vectors     FFT dimensions: ( 125, 144, 450)

     Smooth grid:   490328 G-vectors     FFT dimensions: (  80,  90, 288)

     Estimated max dynamical RAM per process >     326.29 MB

     Estimated total dynamical RAM >      20.39 GB

     Check: negative core charge=   -0.000001
     Generating pointlists ...
     new r_m :   0.0810 (alat units)  1.4105 (a.u.) for type    1
     new r_m :   0.0905 (alat units)  1.5759 (a.u.) for type    2
     new r_m :   0.0681 (alat units)  1.1852 (a.u.) for type    3
     new r_m :   0.0441 (alat units)  0.7678 (a.u.) for type    4
     new r_m :   0.0441 (alat units)  0.7678 (a.u.) for type    5

     Initial potential from superposition of free atoms

     starting charge    1092.8893, renormalised to    1093.0000

     negative rho (up, down):  1.394E-03 4.563E-04
 
     Adding external electric field

     Computed dipole along edir(3) : 
        Dipole                1.6566 Ry au,          4.2107 Debye
        Dipole field          0.0010 Ry au, 
 
        Potential amp.       -0.1118 Ry
        Total length         55.1515 bohr
 
 
     Adding external electric field

     Computed dipole along edir(3) : 
        Dipole                1.6566 Ry au,          4.2107 Debye
        Dipole field          0.0010 Ry au, 
 
        Potential amp.       -0.1118 Ry
        Total length         55.1515 bohr
 
     Starting wfcs are  815 randomized atomic wfcs

     total cpu time spent up to now is        9.8 secs

     Self-consistent Calculation

     iteration #  1     ecut=    50.00 Ry     beta= 0.10
     Davidson diagonalization with overlap
     ethr =  1.00E-02,  avg # of iterations =  6.0

     negative rho (up, down):  3.931E-01 4.909E-06
 
     Adding external electric field

     Computed dipole along edir(3) : 
        Dipole               -3.5553 Ry au,         -9.0368 Debye
        Dipole field         -0.0022 Ry au, 
 
        Potential amp.        0.2400 Ry
        Total length         55.1515 bohr
 
 
     Adding external electric field

     Computed dipole along edir(3) : 
        Dipole               -3.5553 Ry au,         -9.0368 Debye
        Dipole field         -0.0022 Ry au, 
 
        Potential amp.        0.2400 Ry
        Total length         55.1515 bohr
 

     total cpu time spent up to now is       36.2 secs

     total energy              =   -7518.98218030 Ry
     estimated scf accuracy    <     800.28637611 Ry

     total magnetization       =   219.00 Bohr mag/cell
     absolute magnetization    =   307.98 Bohr mag/cell

     iteration #  2     ecut=    50.00 Ry     beta= 0.10
     Davidson diagonalization with overlap
     ethr =  1.00E-02,  avg # of iterations =  2.0

     negative rho (up, down):  3.666E-01 3.126E-06
 
     Adding external electric field

     Computed dipole along edir(3) : 
        Dipole               -2.4760 Ry au,         -6.2935 Debye
        Dipole field         -0.0015 Ry au, 
 
        Potential amp.        0.1672 Ry
        Total length         55.1515 bohr
 
 
     Adding external electric field

     Computed dipole along edir(3) : 
        Dipole               -2.4760 Ry au,         -6.2935 Debye
        Dipole field         -0.0015 Ry au, 
 
        Potential amp.        0.1672 Ry
        Total length         55.1515 bohr
 

     total cpu time spent up to now is       51.4 secs

     total energy              =   -7601.62811392 Ry
     estimated scf accuracy    <     193.68705152 Ry

     total magnetization       =   156.28 Bohr mag/cell
     absolute magnetization    =   205.49 Bohr mag/cell

     iteration #  3     ecut=    50.00 Ry     beta= 0.10
     Davidson diagonalization with overlap
     ethr =  1.00E-02,  avg # of iterations =  1.5

     negative rho (up, down):  3.239E-01 2.401E-06
 
     Adding external electric field

     Computed dipole along edir(3) : 
        Dipole               -2.0556 Ry au,         -5.2247 Debye
        Dipole field         -0.0013 Ry au, 
 
        Potential amp.        0.1388 Ry
        Total length         55.1515 bohr
 
 
     Adding external electric field

     Computed dipole along edir(3) : 
        Dipole               -2.0556 Ry au,         -5.2247 Debye
        Dipole field         -0.0013 Ry au, 
 
        Potential amp.        0.1388 Ry
        Total length         55.1515 bohr
 

     total cpu time spent up to now is       63.5 secs

     total energy              =   -7632.87030251 Ry
     estimated scf accuracy    <     103.63042427 Ry

     total magnetization       =   133.28 Bohr mag/cell
     absolute magnetization    =   184.49 Bohr mag/cell

     iteration #  4     ecut=    50.00 Ry     beta= 0.10
     Davidson diagonalization with overlap
     ethr =  9.48E-03,  avg # of iterations =  1.5

     negative rho (up, down):  2.533E-01 5.320E-07
 
     Adding external electric field

     Computed dipole along edir(3) : 
        Dipole               -1.9267 Ry au,         -4.8973 Debye
        Dipole field         -0.0012 Ry au, 
 
        Potential amp.        0.1301 Ry
        Total length         55.1515 bohr
 
 
     Adding external electric field

     Computed dipole along edir(3) : 
        Dipole               -1.9267 Ry au,         -4.8973 Debye
        Dipole field         -0.0012 Ry au, 
 
        Potential amp.        0.1301 Ry
        Total length         55.1515 bohr
 

     total cpu time spent up to now is       75.7 secs

     total energy              =   -7664.53396551 Ry
     estimated scf accuracy    <      81.21560100 Ry

     total magnetization       =   117.29 Bohr mag/cell
     absolute magnetization    =   169.85 Bohr mag/cell

     iteration #  5     ecut=    50.00 Ry     beta= 0.10
     Davidson diagonalization with overlap
     ethr =  7.43E-03,  avg # of iterations =  1.0

     negative rho (up, down):  2.896E-02 1.886E-08
 
     Adding external electric field

     Computed dipole along edir(3) : 
        Dipole               -1.3780 Ry au,         -3.5025 Debye
        Dipole field         -0.0008 Ry au, 
 
        Potential amp.        0.0930 Ry
        Total length         55.1515 bohr
 
 
     Adding external electric field

     Computed dipole along edir(3) : 
        Dipole               -1.3780 Ry au,         -3.5025 Debye
        Dipole field         -0.0008 Ry au, 
 
        Potential amp.        0.0930 Ry
        Total length         55.1515 bohr
 

     total cpu time spent up to now is       87.0 secs

     total energy              =   -7723.67719209 Ry
     estimated scf accuracy    <      65.10384944 Ry

     total magnetization       =    97.13 Bohr mag/cell
     absolute magnetization    =   152.03 Bohr mag/cell

     iteration #  6     ecut=    50.00 Ry     beta= 0.10
     Davidson diagonalization with overlap
     ethr =  5.96E-03,  avg # of iterations =  1.0

     negative rho (up, down):  3.752E-04 5.244E-04
 
     Adding external electric field

     Computed dipole along edir(3) : 
        Dipole               -0.9478 Ry au,         -2.4090 Debye
        Dipole field         -0.0006 Ry au, 
 
        Potential amp.        0.0640 Ry
        Total length         55.1515 bohr
 
 
     Adding external electric field

     Computed dipole along edir(3) : 
        Dipole               -0.9478 Ry au,         -2.4090 Debye
        Dipole field         -0.0006 Ry au, 
 
        Potential amp.        0.0640 Ry
        Total length         55.1515 bohr
 

     total cpu time spent up to now is       97.9 secs

     total energy              =   -7736.05325123 Ry
     estimated scf accuracy    <      14.07229003 Ry

     total magnetization       =    91.00 Bohr mag/cell
     absolute magnetization    =   124.41 Bohr mag/cell

     iteration #  7     ecut=    50.00 Ry     beta= 0.10
     Davidson diagonalization with overlap
     ethr =  1.29E-03,  avg # of iterations =  6.0

     negative rho (up, down):  3.631E-04 5.253E-04
 
     Adding external electric field

     Computed dipole along edir(3) : 
        Dipole               -0.9508 Ry au,         -2.4166 Debye
        Dipole field         -0.0006 Ry au, 
 
        Potential amp.        0.0642 Ry
        Total length         55.1515 bohr
 
 
     Adding external electric field

     Computed dipole along edir(3) : 
        Dipole               -0.9508 Ry au,         -2.4166 Debye
        Dipole field         -0.0006 Ry au, 
 
        Potential amp.        0.0642 Ry
        Total length         55.1515 bohr
 

     total cpu time spent up to now is      117.3 secs

     total energy              =   -7738.26163125 Ry
     estimated scf accuracy    <      20.18638828 Ry

     total magnetization       =    70.48 Bohr mag/cell
     absolute magnetization    =    87.86 Bohr mag/cell

     iteration #  8     ecut=    50.00 Ry     beta= 0.10
     Davidson diagonalization with overlap
     ethr =  1.29E-03,  avg # of iterations =  1.0

     negative rho (up, down):  3.388E-04 4.947E-04
 
     Adding external electric field

     Computed dipole along edir(3) : 
        Dipole               -0.9657 Ry au,         -2.4545 Debye
        Dipole field         -0.0006 Ry au, 
 
        Potential amp.        0.0652 Ry
        Total length         55.1515 bohr
 
 
     Adding external electric field

     Computed dipole along edir(3) : 
        Dipole               -0.9657 Ry au,         -2.4545 Debye
        Dipole field         -0.0006 Ry au, 
 
        Potential amp.        0.0652 Ry
        Total length         55.1515 bohr
 

     total cpu time spent up to now is      128.1 secs

     total energy              =   -7738.25135744 Ry
     estimated scf accuracy    <      19.41965823 Ry

     total magnetization       =    70.73 Bohr mag/cell
     absolute magnetization    =    87.57 Bohr mag/cell

     iteration #  9     ecut=    50.00 Ry     beta= 0.10
     Davidson diagonalization with overlap
     ethr =  1.29E-03,  avg # of iterations =  1.0

     negative rho (up, down):  2.286E-04 5.738E-04
 
     Adding external electric field

     Computed dipole along edir(3) : 
        Dipole               -1.1990 Ry au,         -3.0475 Debye
        Dipole field         -0.0007 Ry au, 
 
        Potential amp.        0.0810 Ry
        Total length         55.1515 bohr
 
 
     Adding external electric field

     Computed dipole along edir(3) : 
        Dipole               -1.1990 Ry au,         -3.0475 Debye
        Dipole field         -0.0007 Ry au, 
 
        Potential amp.        0.0810 Ry
        Total length         55.1515 bohr
 

     total cpu time spent up to now is      138.8 secs

     total energy              =   -7737.48248090 Ry
     estimated scf accuracy    <      18.33089871 Ry

     total magnetization       =    70.98 Bohr mag/cell
     absolute magnetization    =    87.34 Bohr mag/cell

     iteration # 10     ecut=    50.00 Ry     beta= 0.10
     Davidson diagonalization with overlap
     ethr =  1.29E-03,  avg # of iterations =  1.5

     negative rho (up, down):  2.342E-04 6.334E-04
 
     Adding external electric field

     Computed dipole along edir(3) : 
        Dipole               -1.2304 Ry au,         -3.1275 Debye
        Dipole field         -0.0008 Ry au, 
 
        Potential amp.        0.0831 Ry
        Total length         55.1515 bohr
 
 
     Adding external electric field

     Computed dipole along edir(3) : 
        Dipole               -1.2304 Ry au,         -3.1275 Debye
        Dipole field         -0.0008 Ry au, 
 
        Potential amp.        0.0831 Ry
        Total length         55.1515 bohr
 

     total cpu time spent up to now is      149.8 secs

     total energy              =   -7737.92310090 Ry
     estimated scf accuracy    <       3.59902377 Ry

     total magnetization       =    84.93 Bohr mag/cell
     absolute magnetization    =    95.92 Bohr mag/cell

     iteration # 11     ecut=    50.00 Ry     beta= 0.10
     Davidson diagonalization with overlap
     ethr =  3.29E-04,  avg # of iterations =  2.0

     negative rho (up, down):  1.912E-04 6.264E-04
 
     Adding external electric field

     Computed dipole along edir(3) : 
        Dipole               -1.2049 Ry au,         -3.0627 Debye
        Dipole field         -0.0007 Ry au, 
 
        Potential amp.        0.0814 Ry
        Total length         55.1515 bohr
 
 
     Adding external electric field

     Computed dipole along edir(3) : 
        Dipole               -1.2049 Ry au,         -3.0627 Debye
        Dipole field         -0.0007 Ry au, 
 
        Potential amp.        0.0814 Ry
        Total length         55.1515 bohr
 

     total cpu time spent up to now is      161.5 secs

     total energy              =   -7737.93664678 Ry
     estimated scf accuracy    <       1.91525069 Ry

     total magnetization       =    87.24 Bohr mag/cell
     absolute magnetization    =    97.01 Bohr mag/cell

     iteration # 12     ecut=    50.00 Ry     beta= 0.10
     Davidson diagonalization with overlap
     c_bands:  1 eigenvalues not converged
     ethr =  1.75E-04,  avg # of iterations = 11.0

     negative rho (up, down):  1.462E-04 5.862E-04
 
     Adding external electric field

     Computed dipole along edir(3) : 
        Dipole               -1.1375 Ry au,         -2.8913 Debye
        Dipole field         -0.0007 Ry au, 
 
        Potential amp.        0.0768 Ry
        Total length         55.1515 bohr
 
 
     Adding external electric field

     Computed dipole along edir(3) : 
        Dipole               -1.1375 Ry au,         -2.8913 Debye
        Dipole field         -0.0007 Ry au, 
 
        Potential amp.        0.0768 Ry
        Total length         55.1515 bohr
 

     total cpu time spent up to now is      178.8 secs

     total energy              =   -7737.95815987 Ry
     estimated scf accuracy    <       2.86588902 Ry

     total magnetization       =    85.04 Bohr mag/cell
     absolute magnetization    =    94.62 Bohr mag/cell

     iteration # 13     ecut=    50.00 Ry     beta= 0.10
     Davidson diagonalization with overlap
     ethr =  1.75E-04,  avg # of iterations =  2.0

     negative rho (up, down):  1.481E-04 6.531E-04
 
     Adding external electric field

     Computed dipole along edir(3) : 
        Dipole               -1.1725 Ry au,         -2.9803 Debye
        Dipole field         -0.0007 Ry au, 
 
        Potential amp.        0.0792 Ry
        Total length         55.1515 bohr
 
 
     Adding external electric field

     Computed dipole along edir(3) : 
        Dipole               -1.1725 Ry au,         -2.9803 Debye
        Dipole field         -0.0007 Ry au, 
 
        Potential amp.        0.0792 Ry
        Total length         55.1515 bohr
 

     total cpu time spent up to now is      191.3 secs

     total energy              =   -7737.95875674 Ry
     estimated scf accuracy    <       3.96221249 Ry

     total magnetization       =    81.55 Bohr mag/cell
     absolute magnetization    =    91.10 Bohr mag/cell

     iteration # 14     ecut=    50.00 Ry     beta= 0.10
     Davidson diagonalization with overlap
     ethr =  1.75E-04,  avg # of iterations =  1.0

     negative rho (up, down):  1.858E-04 4.986E-04
 
     Adding external electric field

     Computed dipole along edir(3) : 
        Dipole               -1.1957 Ry au,         -3.0392 Debye
        Dipole field         -0.0007 Ry au, 
 
        Potential amp.        0.0807 Ry
        Total length         55.1515 bohr
 
 
     Adding external electric field

     Computed dipole along edir(3) : 
        Dipole               -1.1957 Ry au,         -3.0392 Debye
        Dipole field         -0.0007 Ry au, 
 
        Potential amp.        0.0807 Ry
        Total length         55.1515 bohr
 

     total cpu time spent up to now is      201.7 secs

     total energy              =   -7738.00360836 Ry
     estimated scf accuracy    <       3.07851979 Ry

     total magnetization       =    83.20 Bohr mag/cell
     absolute magnetization    =    92.23 Bohr mag/cell

     iteration # 15     ecut=    50.00 Ry     beta= 0.10
     Davidson diagonalization with overlap
     ethr =  1.75E-04,  avg # of iterations =  1.5

     negative rho (up, down):  2.170E-04 3.723E-04
 
     Adding external electric field

     Computed dipole along edir(3) : 
        Dipole               -1.1102 Ry au,         -2.8219 Debye
        Dipole field         -0.0007 Ry au, 
 
        Potential amp.        0.0750 Ry
        Total length         55.1515 bohr
 
 
     Adding external electric field

     Computed dipole along edir(3) : 
        Dipole               -1.1102 Ry au,         -2.8219 Debye
        Dipole field         -0.0007 Ry au, 
 
        Potential amp.        0.0750 Ry
        Total length         55.1515 bohr
 

     total cpu time spent up to now is      213.1 secs

     total energy              =   -7738.10477468 Ry
     estimated scf accuracy    <       0.69436063 Ry

     total magnetization       =    88.00 Bohr mag/cell
     absolute magnetization    =    95.77 Bohr mag/cell

     iteration # 16     ecut=    50.00 Ry     beta= 0.10
     Davidson diagonalization with overlap
     ethr =  6.35E-05,  avg # of iterations =  2.0

     negative rho (up, down):  2.782E-04 3.681E-04
 
     Adding external electric field

     Computed dipole along edir(3) : 
        Dipole               -1.0540 Ry au,         -2.6789 Debye
        Dipole field         -0.0006 Ry au, 
 
        Potential amp.        0.0712 Ry
        Total length         55.1515 bohr
 
 
     Adding external electric field

     Computed dipole along edir(3) : 
        Dipole               -1.0540 Ry au,         -2.6789 Debye
        Dipole field         -0.0006 Ry au, 
 
        Potential amp.        0.0712 Ry
        Total length         55.1515 bohr
 

     total cpu time spent up to now is      225.1 secs

     total energy              =   -7738.17321767 Ry
     estimated scf accuracy    <       0.60538514 Ry

     total magnetization       =    87.45 Bohr mag/cell
     absolute magnetization    =    94.52 Bohr mag/cell

     iteration # 17     ecut=    50.00 Ry     beta= 0.10
     Davidson diagonalization with overlap
     ethr =  5.54E-05,  avg # of iterations =  1.0

     negative rho (up, down):  5.278E-04 6.774E-04
 
     Adding external electric field

     Computed dipole along edir(3) : 
        Dipole               -0.9561 Ry au,         -2.4301 Debye
        Dipole field         -0.0006 Ry au, 
 
        Potential amp.        0.0646 Ry
        Total length         55.1515 bohr
 
 
     Adding external electric field

     Computed dipole along edir(3) : 
        Dipole               -0.9561 Ry au,         -2.4301 Debye
        Dipole field         -0.0006 Ry au, 
 
        Potential amp.        0.0646 Ry
        Total length         55.1515 bohr
 

     total cpu time spent up to now is      235.9 secs

     total energy              =   -7738.25781801 Ry
     estimated scf accuracy    <       0.57028069 Ry

     total magnetization       =    88.06 Bohr mag/cell
     absolute magnetization    =    94.21 Bohr mag/cell

     iteration # 18     ecut=    50.00 Ry     beta= 0.10
     Davidson diagonalization with overlap
     ethr =  5.22E-05,  avg # of iterations =  2.0

     negative rho (up, down):  3.691E-04 7.521E-04
 
     Adding external electric field

     Computed dipole along edir(3) : 
        Dipole               -0.9371 Ry au,         -2.3819 Debye
        Dipole field         -0.0006 Ry au, 
 
        Potential amp.        0.0633 Ry
        Total length         55.1515 bohr
 
 
     Adding external electric field

     Computed dipole along edir(3) : 
        Dipole               -0.9371 Ry au,         -2.3819 Debye
        Dipole field         -0.0006 Ry au, 
 
        Potential amp.        0.0633 Ry
        Total length         55.1515 bohr
 

     total cpu time spent up to now is      248.0 secs

     total energy              =   -7738.29356452 Ry
     estimated scf accuracy    <       0.34650062 Ry

     total magnetization       =    88.60 Bohr mag/cell
     absolute magnetization    =    92.41 Bohr mag/cell

     iteration # 19     ecut=    50.00 Ry     beta= 0.10
     Davidson diagonalization with overlap
     ethr =  3.17E-05,  avg # of iterations =  1.5

     negative rho (up, down):  7.152E-04 1.126E-03
 
     Adding external electric field

     Computed dipole along edir(3) : 
        Dipole               -0.8295 Ry au,         -2.1083 Debye
        Dipole field         -0.0005 Ry au, 
 
        Potential amp.        0.0560 Ry
        Total length         55.1515 bohr
 
 
     Adding external electric field

     Computed dipole along edir(3) : 
        Dipole               -0.8295 Ry au,         -2.1083 Debye
        Dipole field         -0.0005 Ry au, 
 
        Potential amp.        0.0560 Ry
        Total length         55.1515 bohr
 

     total cpu time spent up to now is      259.5 secs

     total energy              =   -7738.31371693 Ry
     estimated scf accuracy    <       0.27613077 Ry

     total magnetization       =    88.81 Bohr mag/cell
     absolute magnetization    =    91.74 Bohr mag/cell

     iteration # 20     ecut=    50.00 Ry     beta= 0.10
     Davidson diagonalization with overlap
     ethr =  2.53E-05,  avg # of iterations =  2.0

     negative rho (up, down):  3.650E-04 8.920E-04
 
     Adding external electric field

     Computed dipole along edir(3) : 
        Dipole               -0.9024 Ry au,         -2.2937 Debye
        Dipole field         -0.0006 Ry au, 
 
        Potential amp.        0.0609 Ry
        Total length         55.1515 bohr
 
 
     Adding external electric field

     Computed dipole along edir(3) : 
        Dipole               -0.9024 Ry au,         -2.2937 Debye
        Dipole field         -0.0006 Ry au, 
 
        Potential amp.        0.0609 Ry
        Total length         55.1515 bohr
 

     total cpu time spent up to now is      271.6 secs

     total energy              =   -7738.30194251 Ry
     estimated scf accuracy    <       0.42865615 Ry

     total magnetization       =    87.59 Bohr mag/cell
     absolute magnetization    =    89.57 Bohr mag/cell

     iteration # 21     ecut=    50.00 Ry     beta= 0.10
     Davidson diagonalization with overlap
     ethr =  2.53E-05,  avg # of iterations =  1.5

     negative rho (up, down):  4.215E-04 1.130E-03
 
     Adding external electric field

     Computed dipole along edir(3) : 
        Dipole               -0.8970 Ry au,         -2.2798 Debye
        Dipole field         -0.0005 Ry au, 
 
        Potential amp.        0.0606 Ry
        Total length         55.1515 bohr
 
 
     Adding external electric field

     Computed dipole along edir(3) : 
        Dipole               -0.8970 Ry au,         -2.2798 Debye
        Dipole field         -0.0005 Ry au, 
 
        Potential amp.        0.0606 Ry
        Total length         55.1515 bohr
 

     total cpu time spent up to now is      283.0 secs

     total energy              =   -7738.30306071 Ry
     estimated scf accuracy    <       0.27951503 Ry

     total magnetization       =    88.55 Bohr mag/cell
     absolute magnetization    =    90.79 Bohr mag/cell

     iteration # 22     ecut=    50.00 Ry     beta= 0.10
     Davidson diagonalization with overlap
     ethr =  2.53E-05,  avg # of iterations =  2.0

     negative rho (up, down):  5.531E-04 8.699E-04
 
     Adding external electric field

     Computed dipole along edir(3) : 
        Dipole               -0.8687 Ry au,         -2.2081 Debye
        Dipole field         -0.0005 Ry au, 
 
        Potential amp.        0.0587 Ry
        Total length         55.1515 bohr
 
 
     Adding external electric field

     Computed dipole along edir(3) : 
        Dipole               -0.8687 Ry au,         -2.2081 Debye
        Dipole field         -0.0005 Ry au, 
 
        Potential amp.        0.0587 Ry
        Total length         55.1515 bohr
 

     total cpu time spent up to now is      294.8 secs

     total energy              =   -7738.32116477 Ry
     estimated scf accuracy    <       0.29701194 Ry

     total magnetization       =    88.42 Bohr mag/cell
     absolute magnetization    =    90.65 Bohr mag/cell

     iteration # 23     ecut=    50.00 Ry     beta= 0.10
     Davidson diagonalization with overlap
     ethr =  2.53E-05,  avg # of iterations =  2.0

     negative rho (up, down):  6.892E-04 4.524E-04
 
     Adding external electric field

     Computed dipole along edir(3) : 
        Dipole               -0.8434 Ry au,         -2.1437 Debye
        Dipole field         -0.0005 Ry au, 
 
        Potential amp.        0.0569 Ry
        Total length         55.1515 bohr
 
 
     Adding external electric field

     Computed dipole along edir(3) : 
        Dipole               -0.8434 Ry au,         -2.1437 Debye
        Dipole field         -0.0005 Ry au, 
 
        Potential amp.        0.0569 Ry
        Total length         55.1515 bohr
 

     total cpu time spent up to now is      306.6 secs

     total energy              =   -7738.32248047 Ry
     estimated scf accuracy    <       0.28710878 Ry

     total magnetization       =    88.38 Bohr mag/cell
     absolute magnetization    =    90.53 Bohr mag/cell

     iteration # 24     ecut=    50.00 Ry     beta= 0.10
     Davidson diagonalization with overlap
     ethr =  2.53E-05,  avg # of iterations =  2.0

     negative rho (up, down):  1.531E-04 5.022E-05
 
     Adding external electric field

     Computed dipole along edir(3) : 
        Dipole               -0.8915 Ry au,         -2.2659 Debye
        Dipole field         -0.0005 Ry au, 
 
        Potential amp.        0.0602 Ry
        Total length         55.1515 bohr
 
 
     Adding external electric field

     Computed dipole along edir(3) : 
        Dipole               -0.8915 Ry au,         -2.2659 Debye
        Dipole field         -0.0005 Ry au, 
 
        Potential amp.        0.0602 Ry
        Total length         55.1515 bohr
 

     total cpu time spent up to now is      318.6 secs

     total energy              =   -7738.30827316 Ry
     estimated scf accuracy    <       0.25505844 Ry

     total magnetization       =    88.70 Bohr mag/cell
     absolute magnetization    =    90.49 Bohr mag/cell

     iteration # 25     ecut=    50.00 Ry     beta= 0.10
     Davidson diagonalization with overlap
     ethr =  2.33E-05,  avg # of iterations = 12.5

     negative rho (up, down):  3.944E-04 1.519E-04
 
     Adding external electric field

     Computed dipole along edir(3) : 
        Dipole               -0.9310 Ry au,         -2.3663 Debye
        Dipole field         -0.0006 Ry au, 
 
        Potential amp.        0.0629 Ry
        Total length         55.1515 bohr
 
 
     Adding external electric field

     Computed dipole along edir(3) : 
        Dipole               -0.9310 Ry au,         -2.3663 Debye
        Dipole field         -0.0006 Ry au, 
 
        Potential amp.        0.0629 Ry
        Total length         55.1515 bohr
 

     total cpu time spent up to now is      340.4 secs

     total energy              =   -7738.30478852 Ry
     estimated scf accuracy    <       0.21251810 Ry

     total magnetization       =    89.01 Bohr mag/cell
     absolute magnetization    =    91.26 Bohr mag/cell

     iteration # 26     ecut=    50.00 Ry     beta= 0.10
     Davidson diagonalization with overlap
     ethr =  1.94E-05,  avg # of iterations =  2.0

     negative rho (up, down):  4.463E-04 5.128E-05
 
     Adding external electric field

     Computed dipole along edir(3) : 
        Dipole               -0.9359 Ry au,         -2.3788 Debye
        Dipole field         -0.0006 Ry au, 
 
        Potential amp.        0.0632 Ry
        Total length         55.1515 bohr
 
 
     Adding external electric field

     Computed dipole along edir(3) : 
        Dipole               -0.9359 Ry au,         -2.3788 Debye
        Dipole field         -0.0006 Ry au, 
 
        Potential amp.        0.0632 Ry
        Total length         55.1515 bohr
 

     total cpu time spent up to now is      352.2 secs

     total energy              =   -7738.29167866 Ry
     estimated scf accuracy    <       0.19616884 Ry

     total magnetization       =    89.15 Bohr mag/cell
     absolute magnetization    =    91.54 Bohr mag/cell

     iteration # 27     ecut=    50.00 Ry     beta= 0.10
     Davidson diagonalization with overlap
     ethr =  1.79E-05,  avg # of iterations =  1.5

     negative rho (up, down):  2.090E-03 1.986E-03
 
     Adding external electric field

     Computed dipole along edir(3) : 
        Dipole               -1.0363 Ry au,         -2.6341 Debye
        Dipole field         -0.0006 Ry au, 
 
        Potential amp.        0.0700 Ry
        Total length         55.1515 bohr
 
 
     Adding external electric field

     Computed dipole along edir(3) : 
        Dipole               -1.0363 Ry au,         -2.6341 Debye
        Dipole field         -0.0006 Ry au, 
 
        Potential amp.        0.0700 Ry
        Total length         55.1515 bohr
 

     total cpu time spent up to now is      363.3 secs

     total energy              =   -7738.31371627 Ry
     estimated scf accuracy    <       0.16326150 Ry

     total magnetization       =    89.10 Bohr mag/cell
     absolute magnetization    =    91.49 Bohr mag/cell

     iteration # 28     ecut=    50.00 Ry     beta= 0.10
     Davidson diagonalization with overlap
     ethr =  1.49E-05,  avg # of iterations =  2.0

     negative rho (up, down):  2.069E-03 1.762E-03
 
     Adding external electric field

     Computed dipole along edir(3) : 
        Dipole               -1.0014 Ry au,         -2.5454 Debye
        Dipole field         -0.0006 Ry au, 
 
        Potential amp.        0.0676 Ry
        Total length         55.1515 bohr
 
 
     Adding external electric field

     Computed dipole along edir(3) : 
        Dipole               -1.0014 Ry au,         -2.5454 Debye
        Dipole field         -0.0006 Ry au, 
 
        Potential amp.        0.0676 Ry
        Total length         55.1515 bohr
 

     total cpu time spent up to now is      375.4 secs

     total energy              =   -7738.31764986 Ry
     estimated scf accuracy    <       0.09246166 Ry

     total magnetization       =    88.26 Bohr mag/cell
     absolute magnetization    =    90.01 Bohr mag/cell

     iteration # 29     ecut=    50.00 Ry     beta= 0.10
     Davidson diagonalization with overlap
     c_bands:  5 eigenvalues not converged
     ethr =  8.46E-06,  avg # of iterations = 10.5

     negative rho (up, down):  3.033E-03 2.796E-03
 
     Adding external electric field

     Computed dipole along edir(3) : 
        Dipole               -1.0770 Ry au,         -2.7374 Debye
        Dipole field         -0.0007 Ry au, 
 
        Potential amp.        0.0727 Ry
        Total length         55.1515 bohr
 
 
     Adding external electric field

     Computed dipole along edir(3) : 
        Dipole               -1.0770 Ry au,         -2.7374 Debye
        Dipole field         -0.0007 Ry au, 
 
        Potential amp.        0.0727 Ry
        Total length         55.1515 bohr
 

     total cpu time spent up to now is      394.3 secs

     total energy              =   -7738.31829412 Ry
     estimated scf accuracy    <       0.08246441 Ry

     total magnetization       =    88.90 Bohr mag/cell
     absolute magnetization    =    90.46 Bohr mag/cell

     iteration # 30     ecut=    50.00 Ry     beta= 0.10
     Davidson diagonalization with overlap
     ethr =  7.54E-06,  avg # of iterations =  2.5

     negative rho (up, down):  2.974E-03 3.151E-03
 
     Adding external electric field

     Computed dipole along edir(3) : 
        Dipole               -1.0957 Ry au,         -2.7851 Debye
        Dipole field         -0.0007 Ry au, 
 
        Potential amp.        0.0740 Ry
        Total length         55.1515 bohr
 
 
     Adding external electric field

     Computed dipole along edir(3) : 
        Dipole               -1.0957 Ry au,         -2.7851 Debye
        Dipole field         -0.0007 Ry au, 
 
        Potential amp.        0.0740 Ry
        Total length         55.1515 bohr
 

     total cpu time spent up to now is      406.3 secs

     total energy              =   -7738.32083609 Ry
     estimated scf accuracy    <       0.03888472 Ry

     total magnetization       =    88.43 Bohr mag/cell
     absolute magnetization    =    89.91 Bohr mag/cell

     iteration # 31     ecut=    50.00 Ry     beta= 0.10
     Davidson diagonalization with overlap
     ethr =  3.56E-06,  avg # of iterations =  2.0

     negative rho (up, down):  2.921E-03 3.219E-03
 
     Adding external electric field

     Computed dipole along edir(3) : 
        Dipole               -1.1004 Ry au,         -2.7968 Debye
        Dipole field         -0.0007 Ry au, 
 
        Potential amp.        0.0743 Ry
        Total length         55.1515 bohr
 
 
     Adding external electric field

     Computed dipole along edir(3) : 
        Dipole               -1.1004 Ry au,         -2.7968 Debye
        Dipole field         -0.0007 Ry au, 
 
        Potential amp.        0.0743 Ry
        Total length         55.1515 bohr
 

     total cpu time spent up to now is      418.3 secs

     total energy              =   -7738.32098629 Ry
     estimated scf accuracy    <       0.02939098 Ry

     total magnetization       =    88.47 Bohr mag/cell
     absolute magnetization    =    89.95 Bohr mag/cell

     iteration # 32     ecut=    50.00 Ry     beta= 0.10
     Davidson diagonalization with overlap
     c_bands:  5 eigenvalues not converged
     ethr =  2.69E-06,  avg # of iterations = 11.0

     negative rho (up, down):  3.005E-03 3.160E-03
 
     Adding external electric field

     Computed dipole along edir(3) : 
        Dipole               -1.1315 Ry au,         -2.8760 Debye
        Dipole field         -0.0007 Ry au, 
 
        Potential amp.        0.0764 Ry
        Total length         55.1515 bohr
 
 
     Adding external electric field

     Computed dipole along edir(3) : 
        Dipole               -1.1315 Ry au,         -2.8760 Debye
        Dipole field         -0.0007 Ry au, 
 
        Potential amp.        0.0764 Ry
        Total length         55.1515 bohr
 

     total cpu time spent up to now is      437.3 secs

     total energy              =   -7738.32074539 Ry
     estimated scf accuracy    <       0.03979641 Ry

     total magnetization       =    88.49 Bohr mag/cell
     absolute magnetization    =    89.92 Bohr mag/cell

     iteration # 33     ecut=    50.00 Ry     beta= 0.10
     Davidson diagonalization with overlap
     c_bands:  1 eigenvalues not converged
     ethr =  2.69E-06,  avg # of iterations = 11.5

     negative rho (up, down):  2.965E-03 3.050E-03
 
     Adding external electric field

     Computed dipole along edir(3) : 
        Dipole               -1.1442 Ry au,         -2.9082 Debye
        Dipole field         -0.0007 Ry au, 
 
        Potential amp.        0.0773 Ry
        Total length         55.1515 bohr
 
 
     Adding external electric field

     Computed dipole along edir(3) : 
        Dipole               -1.1442 Ry au,         -2.9082 Debye
        Dipole field         -0.0007 Ry au, 
 
        Potential amp.        0.0773 Ry
        Total length         55.1515 bohr
 

     total cpu time spent up to now is      453.5 secs

     total energy              =   -7738.32067191 Ry
     estimated scf accuracy    <       0.03196211 Ry

     total magnetization       =    88.57 Bohr mag/cell
     absolute magnetization    =    90.00 Bohr mag/cell

     iteration # 34     ecut=    50.00 Ry     beta= 0.10
     Davidson diagonalization with overlap
     ethr =  2.69E-06,  avg # of iterations =  2.0

     negative rho (up, down):  2.576E-03 2.740E-03
 
     Adding external electric field

     Computed dipole along edir(3) : 
        Dipole               -1.1427 Ry au,         -2.9044 Debye
        Dipole field         -0.0007 Ry au, 
 
        Potential amp.        0.0772 Ry
        Total length         55.1515 bohr
 
 
     Adding external electric field

     Computed dipole along edir(3) : 
        Dipole               -1.1427 Ry au,         -2.9044 Debye
        Dipole field         -0.0007 Ry au, 
 
        Potential amp.        0.0772 Ry
        Total length         55.1515 bohr
 

     total cpu time spent up to now is      465.1 secs

     total energy              =   -7738.32065937 Ry
     estimated scf accuracy    <       0.02896985 Ry

     total magnetization       =    88.51 Bohr mag/cell
     absolute magnetization    =    89.95 Bohr mag/cell

     iteration # 35     ecut=    50.00 Ry     beta= 0.10
     Davidson diagonalization with overlap
     ethr =  2.65E-06,  avg # of iterations =  1.0

     negative rho (up, down):  2.965E-03 3.025E-03
 
     Adding external electric field

     Computed dipole along edir(3) : 
        Dipole               -1.1461 Ry au,         -2.9130 Debye
        Dipole field         -0.0007 Ry au, 
 
        Potential amp.        0.0774 Ry
        Total length         55.1515 bohr
 
 
     Adding external electric field

     Computed dipole along edir(3) : 
        Dipole               -1.1461 Ry au,         -2.9130 Debye
        Dipole field         -0.0007 Ry au, 
 
        Potential amp.        0.0774 Ry
        Total length         55.1515 bohr
 

     total cpu time spent up to now is      475.7 secs

     total energy              =   -7738.32070931 Ry
     estimated scf accuracy    <       0.03128040 Ry

     total magnetization       =    88.49 Bohr mag/cell
     absolute magnetization    =    89.96 Bohr mag/cell

     iteration # 36     ecut=    50.00 Ry     beta= 0.10
     Davidson diagonalization with overlap
     ethr =  2.65E-06,  avg # of iterations =  2.0

     negative rho (up, down):  2.857E-03 2.901E-03
 
     Adding external electric field

     Computed dipole along edir(3) : 
        Dipole               -1.1454 Ry au,         -2.9113 Debye
        Dipole field         -0.0007 Ry au, 
 
        Potential amp.        0.0773 Ry
        Total length         55.1515 bohr
 
 
     Adding external electric field

     Computed dipole along edir(3) : 
        Dipole               -1.1454 Ry au,         -2.9113 Debye
        Dipole field         -0.0007 Ry au, 
 
        Potential amp.        0.0773 Ry
        Total length         55.1515 bohr
 

     total cpu time spent up to now is      487.1 secs

     total energy              =   -7738.32064607 Ry
     estimated scf accuracy    <       0.02876884 Ry

     total magnetization       =    88.49 Bohr mag/cell
     absolute magnetization    =    89.92 Bohr mag/cell

     iteration # 37     ecut=    50.00 Ry     beta= 0.10
     Davidson diagonalization with overlap
     ethr =  2.63E-06,  avg # of iterations =  1.0

     negative rho (up, down):  2.991E-03 2.975E-03
 
     Adding external electric field

     Computed dipole along edir(3) : 
        Dipole               -1.1487 Ry au,         -2.9198 Debye
        Dipole field         -0.0007 Ry au, 
 
        Potential amp.        0.0776 Ry
        Total length         55.1515 bohr
 
 
     Adding external electric field

     Computed dipole along edir(3) : 
        Dipole               -1.1487 Ry au,         -2.9198 Debye
        Dipole field         -0.0007 Ry au, 
 
        Potential amp.        0.0776 Ry
        Total length         55.1515 bohr
 

     total cpu time spent up to now is      497.6 secs

     total energy              =   -7738.32057018 Ry
     estimated scf accuracy    <       0.02890218 Ry

     total magnetization       =    88.50 Bohr mag/cell
     absolute magnetization    =    89.95 Bohr mag/cell

     iteration # 38     ecut=    50.00 Ry     beta= 0.10
     Davidson diagonalization with overlap
     ethr =  2.63E-06,  avg # of iterations =  1.0

     negative rho (up, down):  2.986E-03 3.030E-03
 
     Adding external electric field

     Computed dipole along edir(3) : 
        Dipole               -1.1471 Ry au,         -2.9157 Debye
        Dipole field         -0.0007 Ry au, 
 
        Potential amp.        0.0775 Ry
        Total length         55.1515 bohr
 
 
     Adding external electric field

     Computed dipole along edir(3) : 
        Dipole               -1.1471 Ry au,         -2.9157 Debye
        Dipole field         -0.0007 Ry au, 
 
        Potential amp.        0.0775 Ry
        Total length         55.1515 bohr
 

     total cpu time spent up to now is      507.9 secs

     total energy              =   -7738.32069992 Ry
     estimated scf accuracy    <       0.02945481 Ry

     total magnetization       =    88.53 Bohr mag/cell
     absolute magnetization    =    89.96 Bohr mag/cell

     iteration # 39     ecut=    50.00 Ry     beta= 0.10
     Davidson diagonalization with overlap
     ethr =  2.63E-06,  avg # of iterations =  1.0

     negative rho (up, down):  2.796E-03 2.738E-03
 
     Adding external electric field

     Computed dipole along edir(3) : 
        Dipole               -1.1664 Ry au,         -2.9646 Debye
        Dipole field         -0.0007 Ry au, 
 
        Potential amp.        0.0787 Ry
        Total length         55.1515 bohr
 
 
     Adding external electric field

     Computed dipole along edir(3) : 
        Dipole               -1.1664 Ry au,         -2.9646 Debye
        Dipole field         -0.0007 Ry au, 
 
        Potential amp.        0.0787 Ry
        Total length         55.1515 bohr
 

     total cpu time spent up to now is      518.3 secs

     total energy              =   -7738.32026264 Ry
     estimated scf accuracy    <       0.02957969 Ry

     total magnetization       =    88.50 Bohr mag/cell
     absolute magnetization    =    89.93 Bohr mag/cell

     iteration # 40     ecut=    50.00 Ry     beta= 0.10
     Davidson diagonalization with overlap
     ethr =  2.63E-06,  avg # of iterations =  2.0

     negative rho (up, down):  2.802E-03 2.748E-03
 
     Adding external electric field

     Computed dipole along edir(3) : 
        Dipole               -1.1760 Ry au,         -2.9891 Debye
        Dipole field         -0.0007 Ry au, 
 
        Potential amp.        0.0794 Ry
        Total length         55.1515 bohr
 
 
     Adding external electric field

     Computed dipole along edir(3) : 
        Dipole               -1.1760 Ry au,         -2.9891 Debye
        Dipole field         -0.0007 Ry au, 
 
        Potential amp.        0.0794 Ry
        Total length         55.1515 bohr
 

     total cpu time spent up to now is      530.0 secs

     total energy              =   -7738.32027489 Ry
     estimated scf accuracy    <       0.02899723 Ry

     total magnetization       =    88.52 Bohr mag/cell
     absolute magnetization    =    89.97 Bohr mag/cell

     iteration # 41     ecut=    50.00 Ry     beta= 0.10
     Davidson diagonalization with overlap
     ethr =  2.63E-06,  avg # of iterations =  1.0

     negative rho (up, down):  2.897E-03 2.812E-03
 
     Adding external electric field

     Computed dipole along edir(3) : 
        Dipole               -1.1757 Ry au,         -2.9884 Debye
        Dipole field         -0.0007 Ry au, 
 
        Potential amp.        0.0794 Ry
        Total length         55.1515 bohr
 
 
     Adding external electric field

     Computed dipole along edir(3) : 
        Dipole               -1.1757 Ry au,         -2.9884 Debye
        Dipole field         -0.0007 Ry au, 
 
        Potential amp.        0.0794 Ry
        Total length         55.1515 bohr
 

     total cpu time spent up to now is      540.8 secs

     total energy              =   -7738.32031756 Ry
     estimated scf accuracy    <       0.02910630 Ry

     total magnetization       =    88.51 Bohr mag/cell
     absolute magnetization    =    89.97 Bohr mag/cell

     iteration # 42     ecut=    50.00 Ry     beta= 0.10
     Davidson diagonalization with overlap
     ethr =  2.63E-06,  avg # of iterations =  2.0

     negative rho (up, down):  2.931E-03 2.548E-03
 
     Adding external electric field

     Computed dipole along edir(3) : 
        Dipole               -1.1389 Ry au,         -2.8948 Debye
        Dipole field         -0.0007 Ry au, 
 
        Potential amp.        0.0769 Ry
        Total length         55.1515 bohr
 
 
     Adding external electric field

     Computed dipole along edir(3) : 
        Dipole               -1.1389 Ry au,         -2.8948 Debye
        Dipole field         -0.0007 Ry au, 
 
        Potential amp.        0.0769 Ry
        Total length         55.1515 bohr
 

     total cpu time spent up to now is      552.6 secs

     total energy              =   -7738.31958938 Ry
     estimated scf accuracy    <       0.02795428 Ry

     total magnetization       =    88.51 Bohr mag/cell
     absolute magnetization    =    89.96 Bohr mag/cell

     iteration # 43     ecut=    50.00 Ry     beta= 0.10
     Davidson diagonalization with overlap
     ethr =  2.56E-06,  avg # of iterations =  1.0

     negative rho (up, down):  3.241E-03 3.184E-03
 
     Adding external electric field

     Computed dipole along edir(3) : 
        Dipole               -1.1795 Ry au,         -2.9980 Debye
        Dipole field         -0.0007 Ry au, 
 
        Potential amp.        0.0796 Ry
        Total length         55.1515 bohr
 
 
     Adding external electric field

     Computed dipole along edir(3) : 
        Dipole               -1.1795 Ry au,         -2.9980 Debye
        Dipole field         -0.0007 Ry au, 
 
        Potential amp.        0.0796 Ry
        Total length         55.1515 bohr
 

     total cpu time spent up to now is      563.2 secs

     total energy              =   -7738.32027064 Ry
     estimated scf accuracy    <       0.02813060 Ry

     total magnetization       =    88.57 Bohr mag/cell
     absolute magnetization    =    89.97 Bohr mag/cell

     iteration # 44     ecut=    50.00 Ry     beta= 0.10
     Davidson diagonalization with overlap
     ethr =  2.56E-06,  avg # of iterations =  2.0

     negative rho (up, down):  1.502E-03 1.422E-03
 
     Adding external electric field

     Computed dipole along edir(3) : 
        Dipole               -1.1065 Ry au,         -2.8126 Debye
        Dipole field         -0.0007 Ry au, 
 
        Potential amp.        0.0747 Ry
        Total length         55.1515 bohr
 
 
     Adding external electric field

     Computed dipole along edir(3) : 
        Dipole               -1.1065 Ry au,         -2.8126 Debye
        Dipole field         -0.0007 Ry au, 
 
        Potential amp.        0.0747 Ry
        Total length         55.1515 bohr
 

     total cpu time spent up to now is      574.9 secs

     total energy              =   -7738.32055094 Ry
     estimated scf accuracy    <       0.02769438 Ry

     total magnetization       =    88.53 Bohr mag/cell
     absolute magnetization    =    89.96 Bohr mag/cell

     iteration # 45     ecut=    50.00 Ry     beta= 0.10
     Davidson diagonalization with overlap
     ethr =  2.53E-06,  avg # of iterations =  1.0

     negative rho (up, down):  2.146E-03 1.986E-03
 
     Adding external electric field

     Computed dipole along edir(3) : 
        Dipole               -1.1449 Ry au,         -2.9102 Debye
        Dipole field         -0.0007 Ry au, 
 
        Potential amp.        0.0773 Ry
        Total length         55.1515 bohr
 
 
     Adding external electric field

     Computed dipole along edir(3) : 
        Dipole               -1.1449 Ry au,         -2.9102 Debye
        Dipole field         -0.0007 Ry au, 
 
        Potential amp.        0.0773 Ry
        Total length         55.1515 bohr
 

     total cpu time spent up to now is      585.4 secs

     total energy              =   -7738.32013532 Ry
     estimated scf accuracy    <       0.03277820 Ry

     total magnetization       =    88.54 Bohr mag/cell
     absolute magnetization    =    89.99 Bohr mag/cell

     iteration # 46     ecut=    50.00 Ry     beta= 0.10
     Davidson diagonalization with overlap
     ethr =  2.53E-06,  avg # of iterations =  1.0

     negative rho (up, down):  4.025E-03 3.928E-03
 
     Adding external electric field

     Computed dipole along edir(3) : 
        Dipole               -1.1974 Ry au,         -3.0436 Debye
        Dipole field         -0.0007 Ry au, 
 
        Potential amp.        0.0808 Ry
        Total length         55.1515 bohr
 
 
     Adding external electric field

     Computed dipole along edir(3) : 
        Dipole               -1.1974 Ry au,         -3.0436 Debye
        Dipole field         -0.0007 Ry au, 
 
        Potential amp.        0.0808 Ry
        Total length         55.1515 bohr
 

     total cpu time spent up to now is      596.0 secs

     total energy              =   -7738.31994441 Ry
     estimated scf accuracy    <       0.03057717 Ry

     total magnetization       =    88.53 Bohr mag/cell
     absolute magnetization    =    90.01 Bohr mag/cell

     iteration # 47     ecut=    50.00 Ry     beta= 0.10
     Davidson diagonalization with overlap
     ethr =  2.53E-06,  avg # of iterations =  1.0

     negative rho (up, down):  1.816E-03 1.670E-03
 
     Adding external electric field

     Computed dipole along edir(3) : 
        Dipole               -1.0846 Ry au,         -2.7567 Debye
        Dipole field         -0.0007 Ry au, 
 
        Potential amp.        0.0732 Ry
        Total length         55.1515 bohr
 
 
     Adding external electric field

     Computed dipole along edir(3) : 
        Dipole               -1.0846 Ry au,         -2.7567 Debye
        Dipole field         -0.0007 Ry au, 
 
        Potential amp.        0.0732 Ry
        Total length         55.1515 bohr
 

     total cpu time spent up to now is      606.1 secs

     total energy              =   -7738.32050659 Ry
     estimated scf accuracy    <       0.02914971 Ry

     total magnetization       =    88.53 Bohr mag/cell
     absolute magnetization    =    89.88 Bohr mag/cell

     iteration # 48     ecut=    50.00 Ry     beta= 0.10
     Davidson diagonalization with overlap
     ethr =  2.53E-06,  avg # of iterations =  1.0

     negative rho (up, down):  1.817E-03 1.598E-03
 
     Adding external electric field

     Computed dipole along edir(3) : 
        Dipole               -1.1007 Ry au,         -2.7976 Debye
        Dipole field         -0.0007 Ry au, 
 
        Potential amp.        0.0743 Ry
        Total length         55.1515 bohr
 
 
     Adding external electric field

     Computed dipole along edir(3) : 
        Dipole               -1.1007 Ry au,         -2.7976 Debye
        Dipole field         -0.0007 Ry au, 
 
        Potential amp.        0.0743 Ry
        Total length         55.1515 bohr
 

     total cpu time spent up to now is      616.4 secs

     total energy              =   -7738.32035725 Ry
     estimated scf accuracy    <       0.03028328 Ry

     total magnetization       =    88.53 Bohr mag/cell
     absolute magnetization    =    89.92 Bohr mag/cell

     iteration # 49     ecut=    50.00 Ry     beta= 0.10
     Davidson diagonalization with overlap
     ethr =  2.53E-06,  avg # of iterations =  1.0

     negative rho (up, down):  2.511E-03 2.443E-03
 
     Adding external electric field

     Computed dipole along edir(3) : 
        Dipole               -1.1398 Ry au,         -2.8972 Debye
        Dipole field         -0.0007 Ry au, 
 
        Potential amp.        0.0770 Ry
        Total length         55.1515 bohr
 
 
     Adding external electric field

     Computed dipole along edir(3) : 
        Dipole               -1.1398 Ry au,         -2.8972 Debye
        Dipole field         -0.0007 Ry au, 
 
        Potential amp.        0.0770 Ry
        Total length         55.1515 bohr
 

     total cpu time spent up to now is      626.9 secs

     total energy              =   -7738.32061608 Ry
     estimated scf accuracy    <       0.03108370 Ry

     total magnetization       =    88.56 Bohr mag/cell
     absolute magnetization    =    89.98 Bohr mag/cell

     iteration # 50     ecut=    50.00 Ry     beta= 0.10
     Davidson diagonalization with overlap
     ethr =  2.53E-06,  avg # of iterations =  1.0

     negative rho (up, down):  2.205E-03 2.146E-03
 
     Adding external electric field

     Computed dipole along edir(3) : 
        Dipole               -1.1269 Ry au,         -2.8643 Debye
        Dipole field         -0.0007 Ry au, 
 
        Potential amp.        0.0761 Ry
        Total length         55.1515 bohr
 
 
     Adding external electric field

     Computed dipole along edir(3) : 
        Dipole               -1.1269 Ry au,         -2.8643 Debye
        Dipole field         -0.0007 Ry au, 
 
        Potential amp.        0.0761 Ry
        Total length         55.1515 bohr
 

     total cpu time spent up to now is      637.2 secs

     total energy              =   -7738.32061693 Ry
     estimated scf accuracy    <       0.02793010 Ry

     total magnetization       =    88.52 Bohr mag/cell
     absolute magnetization    =    89.92 Bohr mag/cell

     iteration # 51     ecut=    50.00 Ry     beta= 0.10
     Davidson diagonalization with overlap
     ethr =  2.53E-06,  avg # of iterations =  1.5

     negative rho (up, down):  3.323E-03 3.234E-03
 
     Adding external electric field

     Computed dipole along edir(3) : 
        Dipole               -1.1429 Ry au,         -2.9049 Debye
        Dipole field         -0.0007 Ry au, 
 
        Potential amp.        0.0772 Ry
        Total length         55.1515 bohr
 
 
     Adding external electric field

     Computed dipole along edir(3) : 
        Dipole               -1.1429 Ry au,         -2.9049 Debye
        Dipole field         -0.0007 Ry au, 
 
        Potential amp.        0.0772 Ry
        Total length         55.1515 bohr
 

     total cpu time spent up to now is      648.2 secs

     total energy              =   -7738.32040972 Ry
     estimated scf accuracy    <       0.03210165 Ry

     total magnetization       =    88.47 Bohr mag/cell
     absolute magnetization    =    89.90 Bohr mag/cell

     iteration # 52     ecut=    50.00 Ry     beta= 0.10
     Davidson diagonalization with overlap
     ethr =  2.53E-06,  avg # of iterations =  1.0

     negative rho (up, down):  3.444E-03 3.452E-03
 
     Adding external electric field

     Computed dipole along edir(3) : 
        Dipole               -1.1593 Ry au,         -2.9468 Debye
        Dipole field         -0.0007 Ry au, 
 
        Potential amp.        0.0783 Ry
        Total length         55.1515 bohr
 
 
     Adding external electric field

     Computed dipole along edir(3) : 
        Dipole               -1.1593 Ry au,         -2.9468 Debye
        Dipole field         -0.0007 Ry au, 
 
        Potential amp.        0.0783 Ry
        Total length         55.1515 bohr
 

     total cpu time spent up to now is      659.0 secs

     total energy              =   -7738.32055693 Ry
     estimated scf accuracy    <       0.02568637 Ry

     total magnetization       =    88.59 Bohr mag/cell
     absolute magnetization    =    89.97 Bohr mag/cell

     iteration # 53     ecut=    50.00 Ry     beta= 0.10
     Davidson diagonalization with overlap
     ethr =  2.35E-06,  avg # of iterations =  1.0

     negative rho (up, down):  3.133E-03 2.829E-03
 
     Adding external electric field

     Computed dipole along edir(3) : 
        Dipole               -1.1216 Ry au,         -2.8509 Debye
        Dipole field         -0.0007 Ry au, 
 
        Potential amp.        0.0757 Ry
        Total length         55.1515 bohr
 
 
     Adding external electric field

     Computed dipole along edir(3) : 
        Dipole               -1.1216 Ry au,         -2.8509 Debye
        Dipole field         -0.0007 Ry au, 
 
        Potential amp.        0.0757 Ry
        Total length         55.1515 bohr
 

     total cpu time spent up to now is      669.5 secs

     total energy              =   -7738.32009748 Ry
     estimated scf accuracy    <       0.02639562 Ry

     total magnetization       =    88.57 Bohr mag/cell
     absolute magnetization    =    89.95 Bohr mag/cell

     iteration # 54     ecut=    50.00 Ry     beta= 0.10
     Davidson diagonalization with overlap
     ethr =  2.35E-06,  avg # of iterations =  1.0

     negative rho (up, down):  2.900E-03 2.930E-03
 
     Adding external electric field

     Computed dipole along edir(3) : 
        Dipole               -1.1259 Ry au,         -2.8616 Debye
        Dipole field         -0.0007 Ry au, 
 
        Potential amp.        0.0760 Ry
        Total length         55.1515 bohr
 
 
     Adding external electric field

     Computed dipole along edir(3) : 
        Dipole               -1.1259 Ry au,         -2.8616 Debye
        Dipole field         -0.0007 Ry au, 
 
        Potential amp.        0.0760 Ry
        Total length         55.1515 bohr
 

     total cpu time spent up to now is      679.8 secs

     total energy              =   -7738.32091189 Ry
     estimated scf accuracy    <       0.02618826 Ry

     total magnetization       =    88.60 Bohr mag/cell
     absolute magnetization    =    89.94 Bohr mag/cell

     iteration # 55     ecut=    50.00 Ry     beta= 0.10
     Davidson diagonalization with overlap
     ethr =  2.35E-06,  avg # of iterations =  1.0

     negative rho (up, down):  3.445E-03 3.218E-03
 
     Adding external electric field

     Computed dipole along edir(3) : 
        Dipole               -1.1229 Ry au,         -2.8542 Debye
        Dipole field         -0.0007 Ry au, 
 
        Potential amp.        0.0758 Ry
        Total length         55.1515 bohr
 
 
     Adding external electric field

     Computed dipole along edir(3) : 
        Dipole               -1.1229 Ry au,         -2.8542 Debye
        Dipole field         -0.0007 Ry au, 
 
        Potential amp.        0.0758 Ry
        Total length         55.1515 bohr
 

     total cpu time spent up to now is      690.3 secs

     total energy              =   -7738.32011011 Ry
     estimated scf accuracy    <       0.02688413 Ry

     total magnetization       =    88.60 Bohr mag/cell
     absolute magnetization    =    89.96 Bohr mag/cell

     iteration # 56     ecut=    50.00 Ry     beta= 0.10
     Davidson diagonalization with overlap
     ethr =  2.35E-06,  avg # of iterations =  1.0

     negative rho (up, down):  1.519E-03 1.401E-03
 
     Adding external electric field

     Computed dipole along edir(3) : 
        Dipole               -1.0974 Ry au,         -2.7894 Debye
        Dipole field         -0.0007 Ry au, 
 
        Potential amp.        0.0741 Ry
        Total length         55.1515 bohr
 
 
     Adding external electric field

     Computed dipole along edir(3) : 
        Dipole               -1.0974 Ry au,         -2.7894 Debye
        Dipole field         -0.0007 Ry au, 
 
        Potential amp.        0.0741 Ry
        Total length         55.1515 bohr
 

     total cpu time spent up to now is      700.9 secs

     total energy              =   -7738.32066891 Ry
     estimated scf accuracy    <       0.02733584 Ry

     total magnetization       =    88.60 Bohr mag/cell
     absolute magnetization    =    89.95 Bohr mag/cell

     iteration # 57     ecut=    50.00 Ry     beta= 0.10
     Davidson diagonalization with overlap
     ethr =  2.35E-06,  avg # of iterations =  1.0

     negative rho (up, down):  2.487E-03 2.269E-03
 
     Adding external electric field

     Computed dipole along edir(3) : 
        Dipole               -1.1786 Ry au,         -2.9958 Debye
        Dipole field         -0.0007 Ry au, 
 
        Potential amp.        0.0796 Ry
        Total length         55.1515 bohr
 
 
     Adding external electric field

     Computed dipole along edir(3) : 
        Dipole               -1.1786 Ry au,         -2.9958 Debye
        Dipole field         -0.0007 Ry au, 
 
        Potential amp.        0.0796 Ry
        Total length         55.1515 bohr
 

     total cpu time spent up to now is      711.4 secs

     total energy              =   -7738.32013350 Ry
     estimated scf accuracy    <       0.02821599 Ry

     total magnetization       =    88.57 Bohr mag/cell
     absolute magnetization    =    90.02 Bohr mag/cell

     iteration # 58     ecut=    50.00 Ry     beta= 0.10
     Davidson diagonalization with overlap
     ethr =  2.35E-06,  avg # of iterations =  1.0

     negative rho (up, down):  2.213E-03 2.177E-03
 
     Adding external electric field

     Computed dipole along edir(3) : 
        Dipole               -1.1264 Ry au,         -2.8631 Debye
[...]
    -5.9790  -5.9649  -5.9150  -5.9049  -5.8833  -5.8754  -5.8730  -5.8436
    -5.8239  -5.7992  -5.7487  -5.7377  -5.7177  -5.6895  -5.6747  -5.6438
    -5.6388  -5.6289  -5.5903  -5.5742  -5.5668  -5.5581  -5.5546  -5.5304
    -5.5150  -5.5030  -5.4802  -5.4419  -5.3997  -5.3561  -5.3303  -5.3156
    -5.2947  -5.2638  -5.2329  -5.1642  -5.1493  -5.1454  -5.1316  -5.1019
    -5.0537  -5.0100  -4.9689  -4.9428  -4.8981  -4.8872  -4.8584  -4.8547
    -4.8127  -4.7936  -4.7793  -4.7413  -4.7074  -4.6882  -4.6478  -4.6026
    -4.5502  -4.4730  -4.4421  -4.4243  -4.4158  -4.3998  -4.3580  -4.3517
    -4.3113  -4.2820  -4.2545  -4.2338  -4.2023  -4.1699  -4.1163  -4.1047
    -4.0757  -4.0473  -4.0451  -4.0143  -3.9560  -3.9321  -3.9182  -3.8764
    -3.8664  -3.8180  -3.8093  -3.7975  -3.7865  -3.7464  -3.7217  -3.6932
    -3.6903  -3.6619  -3.6454  -3.5956  -3.5828  -3.5760  -3.5720  -3.5456
    -3.5415  -3.5192  -3.5004  -3.4761  -3.4565  -3.4406  -3.4258  -3.4114
    -3.4080  -3.3680  -3.3579  -3.3516  -3.3363  -3.3024  -3.2731  -3.2567
    -3.2522  -3.2105  -3.1949  -3.1802  -3.1473  -3.1141  -3.1021  -3.0797
    -3.0715  -3.0657  -3.0423  -3.0359  -3.0201  -3.0013  -2.9770  -2.9641
    -2.9279  -2.9161  -2.8943  -2.8865  -2.8669  -2.8513  -2.8121  -2.7942
    -2.7857  -2.7579  -2.7520  -2.7440  -2.7265  -2.7151  -2.7012  -2.6939
    -2.6859  -2.6752  -2.6595  -2.6455  -2.6398  -2.6064  -2.6002  -2.5952
    -2.5715  -2.5655  -2.5404  -2.5265  -2.5158  -2.4857  -2.4722  -2.4556
    -2.4438  -2.4201  -2.4080  -2.3778  -2.3562  -2.3519  -2.3192  -2.2853
    -2.2758  -2.2653  -2.2267  -2.2090  -2.1936  -2.1784  -2.1456  -2.1411
    -2.1132  -2.0860  -2.0670  -2.0619  -2.0562  -2.0411  -2.0296  -2.0207
    -1.9965  -1.9771  -1.9391  -1.9168  -1.9118  -1.9102  -1.8773  -1.8558
    -1.8404  -1.8348  -1.8236  -1.8088  -1.7883  -1.7150  -1.7075  -1.6906
    -1.6705  -1.6551  -1.6341  -1.6276  -1.6142  -1.6134  -1.5905  -1.5698
    -1.5485  -1.5328  -1.5146  -1.4873  -1.4846  -1.4544  -1.4350  -1.4272
    -1.3990  -1.3957  -1.3809  -1.3745  -1.3563  -1.3480  -1.3033  -1.2617
    -1.2327  -1.2114  -1.1700  -1.1485  -1.1354  -1.1311  -1.0920  -1.0552
    -1.0426  -0.9946  -0.9285  -0.8460  -0.7377  -0.7288  -0.6172  -0.5557
    -0.5225  -0.5088  -0.3564  -0.2329   0.1787   0.2203   0.2426   0.2476
     0.2995   0.3114   0.3144   0.3212   0.3304   0.3496   0.3588   0.3691
     0.3757   0.3895   0.3969   0.4032   0.4058   0.4146   0.4195   0.4268
     0.4331   0.4408   0.4626   0.4663   0.4759   0.4840   0.4912   0.4919
     0.4965   0.5024   0.5098   0.5168   0.5257   0.5335   0.5366   0.5437
     0.5451   0.5632   0.5671   0.5749   0.5843   0.6000   0.6036   0.6185
     0.6237   0.6250   0.6412   0.6484   0.6535   0.6617   0.6665   0.6784
     0.6848   0.6927   0.7008   0.7028   0.7132   0.7296   0.7327   0.7432
     0.7477   0.7586   0.7671   0.7687   0.7760   0.7916   0.8007   0.8114
     0.8131   0.8223   0.8393   0.8560   0.8669   0.8675   0.8698   0.8754
     0.8831   0.8895   0.9073   0.9100   0.9188   0.9528   0.9861   0.9958
     1.0190   1.0491   1.0893   1.1122   1.1230   1.6738   1.7358   1.7481
     1.7691   1.7902   1.8007   1.8158   1.8290   1.8433   1.9048   1.9199
     1.9397   1.9672   1.9909   2.0101   2.0435   2.0459   2.0957   2.1068
     2.1315   2.1437   2.1458   2.1803   2.1910   2.1964   2.2068   2.2343
     2.2681   2.2766   2.2963   2.3004   2.3131   2.3230   2.3314   2.3503
     2.3723   2.3748   2.3892   2.3926   2.4167   2.4198   2.4318   2.4938
     2.5022   2.5304   2.5363   2.5404   2.5528   2.5687   2.5885   2.5980
     2.6220   2.6816   2.7066   2.7211   2.7431   2.8021   2.8042   2.8645
     2.8757   2.9531   3.6527   3.7080   3.7214   3.7485   3.7839   3.7983
     3.8462   3.9045   3.9280   3.9499   3.9600   3.9824   4.0007   4.0063
     4.0538   4.0595   4.1440   4.1475   4.1572   4.1792   4.6505   4.6639
     4.7711   4.8142   4.8608   4.8961   4.9183   4.9617   5.0386   5.0950
     5.1139   5.1455   5.4268   6.2442   6.3746   6.6122   6.6610   6.7520
     6.8469   6.8658   6.8905   6.9667   6.9892   7.0683   7.1193   7.1309
     7.2710   7.3519   7.3572   7.4211   7.4816   7.5417   7.5746   7.6294
     7.6578   7.6681   7.7445   7.7694   7.8035   7.8629   7.8946   7.9693
     8.0019   8.0501   8.0546   8.0925   8.1074   8.1657   8.1821   8.2136
     8.2463   8.2860   8.3046   8.3327   8.4047   8.4301   8.4317   8.4535
     8.4593   8.4799   8.4992   8.5403   8.5553   8.5738   8.5986   8.6234
     8.6706   8.7077   8.7257   8.7576   8.7719   8.7831   8.8399   8.8469

     the Fermi energy is     1.6604 ev

!    total energy              =   -7738.31720632 Ry
     estimated scf accuracy    <       0.00000084 Ry
     smearing contrib. (-TS)   =      -0.02291103 Ry
     internal energy E=F+TS    =   -7738.29429529 Ry

     The total energy is F=E-TS. E is the sum of the following terms:
     one-electron contribution =  -94545.44908201 Ry
     hartree contribution      =   47889.92588053 Ry
     xc contribution           =   -2218.69487023 Ry
     ewald contribution        =   41137.72869980 Ry
     Dispersion Correction     =      -1.80498557 Ry
     electric field correction =       0.00006219 Ry

     total magnetization       =    88.47 Bohr mag/cell
     absolute magnetization    =    89.84 Bohr mag/cell

     convergence has been achieved in 101 iterations

     negative rho (up, down):  1.051E-03 5.882E-04

     Forces acting on atoms (cartesian axes, Ry/au):

     atom    1 type  1   force =    -0.00028388   -0.00026815    0.00010464
     atom    2 type  2   force =    -0.00029952    0.00049023   -0.00000813
     atom    3 type  1   force =     0.00023358    0.00022396    0.00022130
     atom    4 type  1   force =    -0.00040458    0.00084463   -0.00041978
     atom    5 type  1   force =    -0.00030125    0.00068264   -0.00020307
     atom    6 type  1   force =     0.00062618    0.00059944   -0.00074786
     atom    7 type  3   force =     0.00024909    0.00034498   -0.00037304
     atom    8 type  3   force =     0.00043357    0.00050306   -0.00051635
     atom    9 type  3   force =    -0.00010292    0.00072115   -0.00009130
     atom   10 type  3   force =    -0.00099776    0.00032198    0.00020066
     atom   11 type  4   force =     0.00034542    0.00033503   -0.00034992
     atom   12 type  4   force =    -0.00048434    0.00048333   -0.00062655
     atom   13 type  4   force =     0.00028358    0.00002805   -0.00026389
     atom   14 type  4   force =    -0.00037032    0.00023002   -0.00021839
     atom   15 type  4   force =    -0.00040078    0.00047849   -0.00012992
     atom   16 type  4   force =    -0.00038694    0.00018430   -0.00033296
     atom   17 type  4   force =     0.00001348    0.00035569    0.00020077
     atom   18 type  4   force =     0.00041203    0.00018108   -0.00002837
     atom   19 type  4   force =     0.00053284   -0.00015844   -0.00059867
     atom   20 type  4   force =    -0.00000904    0.00006607    0.00018121
     atom   21 type  4   force =    -0.00046720    0.00022690    0.00030036
     atom   22 type  4   force =     0.00054819    0.00020243    0.00045287
     atom   23 type  4   force =    -0.00016553    0.00025927    0.00024654
     atom   24 type  4   force =     0.00017837    0.00027961    0.00033134
     atom   25 type  4   force =    -0.00100332    0.00038612   -0.00062679
     atom   26 type  4   force =     0.00033308    0.00028969    0.00058952
     atom   27 type  1   force =    -0.00644712   -0.00902967   -0.00278166
     atom   28 type  2   force =    -0.01200978    0.00006633   -0.00200231
     atom   29 type  1   force =     0.00337357   -0.00453418   -0.00051154
     atom   30 type  1   force =     0.00229263    0.00405813   -0.00199701
     atom   31 type  1   force =     0.00204109   -0.00484374   -0.00048669
     atom   32 type  1   force =    -0.00129784    0.00112181    0.00173166
     atom   33 type  3   force =    -0.00717553   -0.00079609   -0.00040879
     atom   34 type  3   force =    -0.00573643    0.00371339   -0.00120992
     atom   35 type  3   force =     0.00353863   -0.00145390   -0.00450214
     atom   36 type  3   force =     0.00104987   -0.00121238    0.00292523
     atom   37 type  4   force =     0.00882522    0.00524579   -0.00760077
     atom   38 type  4   force =     0.00372272   -0.00109253    0.02013503
     atom   39 type  4   force =    -0.00146661    0.00385649    0.01075509
     atom   40 type  4   force =    -0.00160750   -0.00230168   -0.00894634
     atom   41 type  4   force =     0.00214417    0.00857535    0.00651065
     atom   42 type  4   force =    -0.00457077   -0.00344596   -0.01678793
     atom   43 type  4   force =     0.01057707    0.00507736   -0.00753435
     atom   44 type  4   force =     0.00723141   -0.00302545    0.00607427
     atom   45 type  4   force =     0.00231369    0.00581837   -0.00070037
     atom   46 type  4   force =     0.00260026    0.00061964    0.00602266
     atom   47 type  4   force =    -0.01323449    0.00020506    0.00331199
     atom   48 type  4   force =    -0.01417307    0.00206866   -0.00314407
     atom   49 type  4   force =     0.01308984    0.00232394   -0.00480253
     atom   50 type  4   force =    -0.00348766   -0.00481963    0.00054143
     atom   51 type  4   force =    -0.00430642    0.00269091   -0.00073663
     atom   52 type  4   force =     0.01637621   -0.00321360    0.00418507
     atom   53 type  1   force =    -0.00757521   -0.00714089   -0.00865138
     atom   54 type  2   force =     0.01576038    0.01739610   -0.00957384
     atom   55 type  1   force =     0.00574596   -0.00487500   -0.00599646
     atom   56 type  1   force =    -0.02055930    0.01915384    0.02009183
     atom   57 type  1   force =     0.00446047   -0.00754609   -0.00143779
     atom   58 type  1   force =    -0.00392063   -0.00535908   -0.00068522
     atom   59 type  3   force =    -0.03902431   -0.03835833   -0.05604564
     atom   60 type  3   force =    -0.00495725   -0.00127402   -0.00116299
     atom   61 type  3   force =     0.00272228   -0.00101981   -0.01011796
     atom   62 type  3   force =     0.02910850   -0.04951395   -0.06058821
     atom   63 type  4   force =     0.00630935    0.00356519    0.02090641
     atom   64 type  4   force =     0.00453464    0.00224907    0.01467639
     atom   65 type  4   force =    -0.00070457    0.00285607    0.01284183
     atom   66 type  4   force =     0.00009459    0.00219219    0.01611106
     atom   67 type  4   force =     0.00107904   -0.00060128    0.03917236
     atom   68 type  4   force =    -0.00565178   -0.00399439   -0.01730870
     atom   69 type  4   force =     0.00777181    0.00445672   -0.00271976
     atom   70 type  4   force =     0.00173922   -0.00734382    0.03546663
     atom   71 type  4   force =    -0.00913445    0.03911255    0.00097384
     atom   72 type  4   force =     0.00223488   -0.00034500    0.00789377
     atom   73 type  4   force =    -0.03001626    0.00085512    0.00766928
     atom   74 type  4   force =    -0.01336990    0.00144521   -0.00046800
     atom   75 type  4   force =     0.01179218    0.00349022   -0.00254504
     atom   76 type  4   force =    -0.00233186   -0.00277081    0.00253230
     atom   77 type  4   force =     0.00922834    0.02568582   -0.00251871
     atom   78 type  4   force =     0.03342253   -0.00636740    0.00621548
     atom   79 type  1   force =     0.00014523   -0.00178588   -0.00086994
     atom   80 type  2   force =    -0.00001701    0.00032394   -0.00011508
     atom   81 type  1   force =     0.00060975    0.00020438    0.00009451
     atom   82 type  1   force =    -0.00007794    0.00091267   -0.00018528
     atom   83 type  1   force =    -0.00073405    0.00081198    0.00039343
     atom   84 type  1   force =     0.00027565    0.00007884   -0.00040178
     atom   85 type  3   force =     0.00018800    0.00043293   -0.00025608
     atom   86 type  3   force =     0.00011361   -0.00024788   -0.00103364
     atom   87 type  3   force =    -0.00027451    0.00057250   -0.00014097
     atom   88 type  3   force =    -0.00079197    0.00088717    0.00027090
     atom   89 type  4   force =    -0.00010443    0.00060155   -0.00029310
     atom   90 type  4   force =    -0.00053024    0.00029187   -0.00032851
     atom   91 type  4   force =     0.00062872   -0.00057225    0.00027635
     atom   92 type  4   force =    -0.00054322    0.00024584   -0.00030706
     atom   93 type  4   force =    -0.00011899    0.00035968   -0.00001245
     atom   94 type  4   force =    -0.00005603    0.00040409   -0.00004513
     atom   95 type  4   force =     0.00004717   -0.00025237   -0.00008984
     atom   96 type  4   force =     0.00024220    0.00024832   -0.00054677
     atom   97 type  4   force =     0.00027413   -0.00016667   -0.00023639
     atom   98 type  4   force =     0.00009674    0.00056780    0.00000387
     atom   99 type  4   force =    -0.00033975    0.00011691    0.00066230
     atom  100 type  4   force =    -0.00062205    0.00003777    0.00016998
     atom  101 type  4   force =    -0.00038990    0.00003286   -0.00002606
     atom  102 type  4   force =     0.00000668    0.00034198    0.00045460
     atom  103 type  4   force =    -0.00053554    0.00032135   -0.00046757
     atom  104 type  4   force =     0.00056831    0.00029167   -0.00004918
     atom  105 type  1   force =    -0.00674745   -0.00747265   -0.00187093
     atom  106 type  2   force =    -0.01230868   -0.00017011   -0.00183572
     atom  107 type  1   force =     0.00385668   -0.00435616    0.00009782
     atom  108 type  1   force =     0.00243149    0.00404498   -0.00189988
     atom  109 type  1   force =     0.00150038   -0.00476314   -0.00031144
     atom  110 type  1   force =    -0.00103666    0.00128872    0.00182272
     atom  111 type  3   force =    -0.00698297   -0.00092950    0.00012360
     atom  112 type  3   force =    -0.00675813    0.00426708   -0.00242303
     atom  113 type  3   force =     0.00390861   -0.00301684   -0.00322476
     atom  114 type  3   force =     0.00118317   -0.00123897    0.00294409
     atom  115 type  4   force =     0.00863117    0.00510398   -0.00785707
     atom  116 type  4   force =     0.00465488   -0.00229423    0.01984510
     atom  117 type  4   force =    -0.00112534    0.00414334    0.01039255
     atom  118 type  4   force =    -0.00163412   -0.00247502   -0.00900133
     atom  119 type  4   force =     0.00204952    0.00836995    0.00617579
     atom  120 type  4   force =    -0.00468137   -0.00381024   -0.01883748
     atom  121 type  4   force =     0.00993612    0.00545398   -0.00684209
     atom  122 type  4   force =     0.00701868   -0.00300533    0.00605690
     atom  123 type  4   force =     0.00205800    0.00586870   -0.00064866
     atom  124 type  4   force =     0.00296930    0.00168201    0.00506298
     atom  125 type  4   force =    -0.01305860    0.00015264    0.00323062
     atom  126 type  4   force =    -0.01477709    0.00244106   -0.00306039
     atom  127 type  4   force =     0.01246967    0.00190536   -0.00477286
     atom  128 type  4   force =    -0.00369775   -0.00463920    0.00041313
     atom  129 type  4   force =    -0.00441995    0.00271279   -0.00063837
     atom  130 type  4   force =     0.01642208   -0.00324696    0.00396792
     atom  131 type  1   force =    -0.00747296   -0.00718360   -0.00861662
     atom  132 type  2   force =     0.01581125    0.01743465   -0.00959117
     atom  133 type  1   force =     0.00574322   -0.00488494   -0.00603038
     atom  134 type  1   force =    -0.02053007    0.01915463    0.02009689
     atom  135 type  1   force =     0.00447423   -0.00757238   -0.00145449
     atom  136 type  1   force =    -0.00385502   -0.00538008   -0.00069345
     atom  137 type  3   force =    -0.03899199   -0.03830817   -0.05610679
     atom  138 type  3   force =    -0.00478290   -0.00134967   -0.00110094
     atom  139 type  3   force =     0.00270429   -0.00093469   -0.01012587
     atom  140 type  3   force =     0.02908954   -0.04950746   -0.06059320
     atom  141 type  4   force =     0.00626216    0.00356117    0.02105270
     atom  142 type  4   force =     0.00433250    0.00235973    0.01476272
     atom  143 type  4   force =    -0.00064307    0.00274296    0.01290282
     atom  144 type  4   force =     0.00015041    0.00227714    0.01632558
     atom  145 type  4   force =     0.00123230   -0.00060592    0.03916612
     atom  146 type  4   force =    -0.00548076   -0.00394142   -0.01737787
     atom  147 type  4   force =     0.00775599    0.00449194   -0.00291693
     atom  148 type  4   force =     0.00163790   -0.00738600    0.03551250
     atom  149 type  4   force =    -0.00930632    0.03911511    0.00096922
     atom  150 type  4   force =     0.00201801   -0.00042405    0.00790142
     atom  151 type  4   force =    -0.02990318    0.00085931    0.00767864
     atom  152 type  4   force =    -0.01345637    0.00143196   -0.00047038
     atom  153 type  4   force =     0.01205722    0.00363828   -0.00253759
     atom  154 type  4   force =    -0.00238931   -0.00263000    0.00243517
     atom  155 type  4   force =     0.00913826    0.02569197   -0.00257484
     atom  156 type  4   force =     0.03336762   -0.00619173    0.00606019
     atom  157 type  4   force =     0.00741124    0.00845682   -0.00151211
     atom  158 type  5   force =    -0.00723019   -0.00590508    0.00294263

     Total force =     0.237159     Total SCF correction =     0.003988
 
     init_run     :      7.03s CPU      7.69s WALL (       1 calls)
     electrons    :   1162.20s CPU   1220.22s WALL (       1 calls)
     forces       :      3.55s CPU      3.91s WALL (       1 calls)
     force_london :      0.09s CPU      0.09s WALL (       1 calls)

     Called by init_run:
     wfcinit      :      4.24s CPU      4.43s WALL (       1 calls)
     potinit      :      0.51s CPU      0.69s WALL (       1 calls)
     hinit0       :      1.28s CPU      1.35s WALL (       1 calls)

     Called by electrons:
     c_bands      :    905.85s CPU    935.97s WALL (     101 calls)
     sum_band     :    160.96s CPU    176.11s WALL (     101 calls)
     v_of_rho     :     22.63s CPU     23.89s WALL (     102 calls)
     newd         :     46.70s CPU     58.23s WALL (     102 calls)
     mix_rho      :     24.71s CPU     24.86s WALL (     101 calls)
     energy_londo :      0.08s CPU      0.08s WALL (       1 calls)

     Called by c_bands:
     init_us_2    :      2.81s CPU      2.88s WALL (     408 calls)
     init_us_2:cp :      2.80s CPU      2.88s WALL (     408 calls)
     regterg      :    885.32s CPU    915.21s WALL (     203 calls)

     Called by *egterg:
     rdiaghg      :    245.64s CPU    259.54s WALL (     692 calls)
     h_psi        :    357.88s CPU    365.81s WALL (     694 calls)
     s_psi        :     65.32s CPU     65.36s WALL (     694 calls)
     g_psi        :      0.47s CPU      0.47s WALL (     489 calls)

     Called by h_psi:
     h_psi:calbec :     90.64s CPU     97.04s WALL (     694 calls)
     vloc_psi     :    200.01s CPU    200.86s WALL (     694 calls)
     add_vuspsi   :     66.43s CPU     67.08s WALL (     694 calls)

     General routines
     calbec       :    134.36s CPU    143.78s WALL (     904 calls)
     fft          :     21.67s CPU     23.19s WALL (    1849 calls)
     ffts         :     15.66s CPU     15.71s WALL (   12605 calls)
     fftw         :    226.95s CPU    227.89s WALL (  339778 calls)
     interpolate  :      1.75s CPU      1.85s WALL (     204 calls)
 
     Parallel routines
 
     PWSCF        :  19m34.80s CPU  20m34.12s WALL

 
   This run was terminated on:  23:21:57  17Nov2025            

=------------------------------------------------------------------------------=
   JOB DONE.
=------------------------------------------------------------------------------=
