
     Program PWSCF v.7.2 starts on 20Nov2025 at  0: 2:51 

     This program is part of the open-source Quantum ESPRESSO suite
     for quantum simulation of materials; please cite
         "P. Giannozzi et al., J. Phys.:Condens. Matter 21 395502 (2009);
         "P. Giannozzi et al., J. Phys.:Condens. Matter 29 465901 (2017);
         "P. Giannozzi et al., J. Chem. Phys. 152 154105 (2020);
          URL http://www.quantum-espresso.org", 
     in publications or presentations arising from this work. More details at
     http://www.quantum-espresso.org/quote

     Parallel version (MPI), running on    64 processors

     MPI processes distributed on     4 nodes
     400400 MiB available memory on the printing compute node when the environment starts
 
     Reading input from PWINPUT_atm158_ym

     Current dimensions of program PWSCF are:
     Max number of different atomic species (ntypx) = 10
     Max number of k-points (npk) =  40000
     Max angular momentum in pseudopotentials (lmaxx) =  4
     Presently no symmetry can be used with electric field

     file Ni.pbe-n-rrkjus_psl.1.0.0.UPF: wavefunction(s)  3D renormalized
     file Mn.pbe-spn-rrkjus_psl.0.3.1.UPF: wavefunction(s)  3D renormalized
     file O.pbe-rrkjus.UPF: wavefunction(s)  2S renormalized
     file H.pbe-rrkjus.UPF: wavefunction(s)  1S renormalized

     gamma-point specific algorithms are used
 
     R & G space division:  proc/nbgrp/npool/nimage =      64
     Subspace diagonalization in iterative solution of the eigenvalue problem:
     one sub-group per band group will be used
     custom distributed-memory algorithm (size of sub-group:  7*  7 procs)

 
     Parallelization info
     --------------------
     sticks:   dense  smooth     PW     G-vecs:    dense   smooth      PW
     Min         207      82     20                60552    15302    1896
     Max         210      84     22                60574    15336    1950
     Sum       13325    5345   1333              3876045   980655  122653
 
     Using Slab Decomposition
 


     bravais-lattice index     =            0
     lattice parameter (alat)  =      17.4067  a.u.
     unit-cell volume          =   20529.8182 (a.u.)^3
     number of atoms/cell      =          158
     number of atomic types    =            5
     number of electrons       =      1093.00
     number of Kohn-Sham states=          656
     kinetic-energy cutoff     =      50.0000  Ry
     charge density cutoff     =     500.0000  Ry
     scf convergence threshold =      1.0E-06
     mixing beta               =       0.5000
     number of iterations used =            8  local-TF  mixing
     Exchange-correlation=  SLA  PW   PBE  PBE
                           (   1   4   3   4   0   0   0)

     celldm(1)=  17.406729  celldm(2)=   0.000000  celldm(3)=   0.000000
     celldm(4)=   0.000000  celldm(5)=   0.000000  celldm(6)=   0.000000

     crystal axes: (cart. coord. in units of alat)
               a(1) = (   1.000000   0.000000   0.000000 )  
               a(2) = (  -0.001404   1.105696   0.000000 )  
               a(3) = (   0.000000   0.000000   3.520448 )  

     reciprocal axes: (cart. coord. in units 2 pi/alat)
               b(1) = (  1.000000  0.001270  0.000000 )  
               b(2) = (  0.000000  0.904408  0.000000 )  
               b(3) = (  0.000000  0.000000  0.284055 )  


     PseudoPot. # 1 for Ni read from file:
     ~/PSEUDO/Ni.pbe-n-rrkjus_psl.1.0.0.UPF
     MD5 check sum: Not computed, couldn't open file
     Pseudo is Ultrasoft + core correction, Zval = 10.0
     Generated using "atomic" code by A. Dal Corso  v.5.1.2
     Using radial grid of 1195 points,  6 beta functions with: 
                l(1) =   0
                l(2) =   0
                l(3) =   1
                l(4) =   1
                l(5) =   2
                l(6) =   2
     Q(r) pseudized with 0 coefficients 


     PseudoPot. # 2 for Mn read from file:
     ~/PSEUDO/Mn.pbe-spn-rrkjus_psl.0.3.1.UPF
     MD5 check sum: Not computed, couldn't open file
     Pseudo is Ultrasoft + core correction, Zval = 15.0
     Generated using &quot;atomic&quot; code by A. Dal Corso  v.6.2.2
     Using radial grid of 1187 points,  6 beta functions with: 
                l(1) =   0
                l(2) =   0
                l(3) =   1
                l(4) =   1
                l(5) =   2
                l(6) =   2
     Q(r) pseudized with 0 coefficients 


     PseudoPot. # 3 for P  read from file:
     ~/PSEUDO/P.pbe-n-rrkjus_psl.1.0.0.UPF
     MD5 check sum: Not computed, couldn't open file
     Pseudo is Ultrasoft + core correction, Zval =  5.0
     Generated using "atomic" code by A. Dal Corso  v.5.1
     Using radial grid of 1147 points,  6 beta functions with: 
                l(1) =   0
                l(2) =   0
                l(3) =   1
                l(4) =   1
                l(5) =   2
                l(6) =   2
     Q(r) pseudized with 0 coefficients 


     PseudoPot. # 4 for O  read from file:
     ~/PSEUDO/O.pbe-rrkjus.UPF
     MD5 check sum: Not computed, couldn't open file
     Pseudo is Ultrasoft, Zval =  6.0
     Generated by new atomic code, or converted to UPF format
     Using radial grid of 1269 points,  4 beta functions with: 
                l(1) =   0
                l(2) =   0
                l(3) =   1
                l(4) =   1
     Q(r) pseudized with 0 coefficients 


     PseudoPot. # 5 for H  read from file:
     ~/PSEUDO/H.pbe-rrkjus.UPF
     MD5 check sum: Not computed, couldn't open file
     Pseudo is Ultrasoft, Zval =  1.0
     Generated by new atomic code, or converted to UPF format
     Using radial grid of 1061 points,  2 beta functions with: 
                l(1) =   0
                l(2) =   0
     Q(r) pseudized with 0 coefficients 


     atomic species   valence    mass     pseudopotential
     Ni               10.00    58.69300     Ni( 1.00)
     Mn               15.00    54.93800     Mn( 1.00)
     P                 5.00    30.97300     P ( 1.00)
     O                 6.00    15.99900     O ( 1.00)
     H                 1.00     1.00790     H ( 1.00)

     Starting magnetic structure 
     atomic species   magnetization
     Ni              1.000
     Mn              1.000
     P               1.000
     O               1.000
     H               0.000

     No symmetry found



   Cartesian axes

     site n.     atom                  positions (alat units)
         1        Ni     tau(   1) = (   0.2506653   0.8550566   1.7482270  )
         2        Mn     tau(   2) = (   0.4868615   0.7893541   1.4308660  )
         3        Ni     tau(   3) = (  -0.0020905   0.3037554   1.7430097  )
         4        Ni     tau(   4) = (   0.2581845   0.2397011   1.4315278  )
         5        Ni     tau(   5) = (   0.4980783   1.1004513   1.6017203  )
         6        Ni     tau(   6) = (   0.2518422   0.5462731   1.6005047  )
         7        P      tau(   7) = (   0.2086760   0.9985220   1.4334561  )
         8        P      tau(   8) = (   0.4610745   0.6542330   1.7693768  )
         9        P      tau(   9) = (   0.2852120   0.1078232   1.7622391  )
        10        P      tau(  10) = (   0.0403977   0.4405659   1.4311024  )
        11        O      tau(  11) = (   0.1336577   0.9255702   1.5727005  )
        12        O      tau(  12) = (   0.3859844   0.7230279   1.6232271  )
        13        O      tau(  13) = (   0.3640826   0.1694454   1.6133293  )
        14        O      tau(  14) = (   0.1188105   0.3688923   1.5703532  )
        15        O      tau(  15) = (   0.1503492   0.9077861   1.3047839  )
        16        O      tau(  16) = (   0.3958379   0.7487419   1.8889350  )
        17        O      tau(  17) = (   0.3469236   0.2073723   1.8785519  )
        18        O      tau(  18) = (   0.1007453   0.3527083   1.3018906  )
        19        O      tau(  19) = (   0.0999278   0.5992574   1.4366202  )
        20        O      tau(  20) = (   0.3385595   1.0523920   1.7620033  )
        21        O      tau(  21) = (   0.3744945   0.4340276   1.4450679  )
        22        O      tau(  22) = (   0.1180138   0.1150013   1.7458001  )
        23        O      tau(  23) = (   0.1304815   0.6665087   1.7470642  )
        24        O      tau(  24) = (   0.4037610   0.4941012   1.7602096  )
        25        O      tau(  25) = (   0.1493555   0.0500451   1.4360519  )
        26        O      tau(  26) = (   0.3753238   0.9895344   1.4462146  )
        27        Ni     tau(  27) = (   0.2413539   0.8509941   1.1121345  )
        28        Mn     tau(  28) = (   0.4917018   0.7787406   0.7768134  )
        29        Ni     tau(  29) = (   0.0044877   0.2932623   1.1138982  )
        30        Ni     tau(  30) = (   0.2563139   0.2275682   0.7805625  )
        31        Ni     tau(  31) = (   0.4969120   1.0949007   0.9459116  )
        32        Ni     tau(  32) = (   0.2488318   0.5341111   0.9469721  )
        33        P      tau(  33) = (   0.2076029   0.9882917   0.7835381  )
        34        P      tau(  34) = (   0.4577012   0.6460068   1.1076436  )
        35        P      tau(  35) = (   0.2881931   0.0932770   1.1104179  )
        36        P      tau(  36) = (   0.0392916   0.4238898   0.7837243  )
        37        O      tau(  37) = (   0.1306755   0.9148866   0.9233554  )
        38        O      tau(  38) = (   0.3789780   0.7172835   0.9680652  )
        39        O      tau(  39) = (   0.3654852   0.1662865   0.9702638  )
        40        O      tau(  40) = (   0.1163776   0.3546954   0.9254186  )
        41        O      tau(  41) = (   0.1502901   0.8969129   0.6541592  )
        42        O      tau(  42) = (   0.3974525   0.7354243   1.2370031  )
        43        O      tau(  43) = (   0.3483097   0.1789497   1.2412670  )
        44        O      tau(  44) = (   0.0974932   0.3376387   0.6529083  )
        45        O      tau(  45) = (   0.0984699   0.5818903   0.7881021  )
        46        O      tau(  46) = (   0.3459978   1.0405493   1.1018526  )
        47        O      tau(  47) = (   0.3731719   0.4204123   0.7945555  )
        48        O      tau(  48) = (   0.1223503   0.0989699   1.1000566  )
        49        O      tau(  49) = (   0.1235438   0.6536772   1.0980598  )
        50        O      tau(  50) = (   0.4004339   0.4872435   1.1047245  )
        51        O      tau(  51) = (   0.1476543   0.0398268   0.7872561  )
        52        O      tau(  52) = (   0.3728637   0.9843360   0.7931368  )
        53        Ni     tau(  53) = (   0.2406075   0.8410745   0.4603118  )
        54        Mn     tau(  54) = (   0.4909555   0.7688210   0.1249907  )
        55        Ni     tau(  55) = (   0.0037414   0.2833427   0.4620755  )
        56        Ni     tau(  56) = (   0.2555676   0.2176485   0.1287398  )
        57        Ni     tau(  57) = (   0.4961657   1.0849810   0.2940889  )
        58        Ni     tau(  58) = (   0.2480854   0.5241915   0.2951494  )
        59        P      tau(  59) = (   0.2068565   0.9783721   0.1317154  )
        60        P      tau(  60) = (   0.4569549   0.6360871   0.4558210  )
        61        P      tau(  61) = (   0.2874467   0.0833574   0.4585952  )
        62        P      tau(  62) = (   0.0385452   0.4139702   0.1319017  )
        63        O      tau(  63) = (   0.1299291   0.9049669   0.2715327  )
        64        O      tau(  64) = (   0.3782317   0.7073639   0.3162425  )
        65        O      tau(  65) = (   0.3647389   0.1563669   0.3184411  )
        66        O      tau(  66) = (   0.1156313   0.3447757   0.2735959  )
        67        O      tau(  67) = (   0.1495437   0.8869933   0.0023366  )
        68        O      tau(  68) = (   0.3967062   0.7255047   0.5851804  )
        69        O      tau(  69) = (   0.3475634   0.1690300   0.5894443  )
        70        O      tau(  70) = (   0.0967469   0.3277190   0.0010856  )
        71        O      tau(  71) = (   0.0977236   0.5719706   0.1362794  )
        72        O      tau(  72) = (   0.3452514   1.0306297   0.4500300  )
        73        O      tau(  73) = (   0.3724256   0.4104926   0.1427328  )
        74        O      tau(  74) = (   0.1216040   0.0890503   0.4482339  )
        75        O      tau(  75) = (   0.1227974   0.6437575   0.4462371  )
        76        O      tau(  76) = (   0.3996875   0.4773239   0.4529018  )
        77        O      tau(  77) = (   0.1469079   0.0299071   0.1354334  )
        78        O      tau(  78) = (   0.3721173   0.9744163   0.1413141  )
        79        Ni     tau(  79) = (   0.7414379   0.8631934   1.7811905  )
        80        Mn     tau(  80) = (   0.9841778   0.7888082   1.4314224  )
        81        Ni     tau(  81) = (   0.4981575   0.2996622   1.7438399  )
        82        Ni     tau(  82) = (   0.7578892   0.2404171   1.4315495  )
        83        Ni     tau(  83) = (   0.9960243   1.1035763   1.5974106  )
        84        Ni     tau(  84) = (   0.7511014   0.5491218   1.6034046  )
        85        P      tau(  85) = (   0.7087866   0.9973915   1.4351950  )
        86        P      tau(  86) = (   0.9628486   0.6621696   1.7637363  )
        87        P      tau(  87) = (   0.7871746   0.1114899   1.7616375  )
        88        P      tau(  88) = (   0.5410567   0.4395544   1.4323437  )
        89        O      tau(  89) = (   0.6354630   0.9223360   1.5730365  )
        90        O      tau(  90) = (   0.8842257   0.7257126   1.6195033  )
        91        O      tau(  91) = (   0.8650973   0.1749877   1.6118653  )
        92        O      tau(  92) = (   0.6191862   0.3687812   1.5717219  )
        93        O      tau(  93) = (   0.6506723   0.9089988   1.3043577  )
        94        O      tau(  94) = (   0.9054210   0.7593145   1.8845788  )
        95        O      tau(  95) = (   0.8458988   0.2143962   1.8769408  )
        96        O      tau(  96) = (   0.6009712   0.3522741   1.3025522  )
        97        O      tau(  97) = (   0.5994071   0.5984853   1.4384741  )
        98        O      tau(  98) = (   0.8467958   1.0589836   1.7578834  )
        99        O      tau(  99) = (   0.8740438   0.4364663   1.4443826  )
       100        O      tau( 100) = (   0.6200794   0.1160167   1.7440992  )
       101        O      tau( 101) = (   0.6282264   0.6595953   1.7561119  )
       102        O      tau( 102) = (   0.9078379   0.5006245   1.7604184  )
       103        O      tau( 103) = (   0.6500092   0.0493715   1.4390795  )
       104        O      tau( 104) = (   0.8760524   0.9898930   1.4442019  )
       105        Ni     tau( 105) = (   0.7413539   0.8509941   1.1121345  )
       106        Mn     tau( 106) = (   0.9917018   0.7787406   0.7768134  )
       107        Ni     tau( 107) = (   0.5044877   0.2932623   1.1138982  )
       108        Ni     tau( 108) = (   0.7563139   0.2275682   0.7805625  )
       109        Ni     tau( 109) = (   0.9969120   1.0949007   0.9459116  )
       110        Ni     tau( 110) = (   0.7488318   0.5341111   0.9469721  )
       111        P      tau( 111) = (   0.7076029   0.9882917   0.7835381  )
       112        P      tau( 112) = (   0.9577012   0.6460068   1.1076436  )
       113        P      tau( 113) = (   0.7881931   0.0932770   1.1104179  )
       114        P      tau( 114) = (   0.5392916   0.4238898   0.7837243  )
       115        O      tau( 115) = (   0.6306755   0.9148866   0.9233554  )
       116        O      tau( 116) = (   0.8789780   0.7172835   0.9680652  )
       117        O      tau( 117) = (   0.8654852   0.1662865   0.9702638  )
       118        O      tau( 118) = (   0.6163776   0.3546954   0.9254186  )
       119        O      tau( 119) = (   0.6502901   0.8969129   0.6541592  )
       120        O      tau( 120) = (   0.8974525   0.7354243   1.2370031  )
       121        O      tau( 121) = (   0.8483097   0.1789497   1.2412670  )
       122        O      tau( 122) = (   0.5974932   0.3376387   0.6529083  )
       123        O      tau( 123) = (   0.5984699   0.5818903   0.7881021  )
       124        O      tau( 124) = (   0.8459978   1.0405493   1.1018526  )
       125        O      tau( 125) = (   0.8731719   0.4204123   0.7945555  )
       126        O      tau( 126) = (   0.6223503   0.0989699   1.1000566  )
       127        O      tau( 127) = (   0.6235438   0.6536772   1.0980598  )
       128        O      tau( 128) = (   0.9004339   0.4872435   1.1047245  )
       129        O      tau( 129) = (   0.6476543   0.0398268   0.7872561  )
       130        O      tau( 130) = (   0.8728637   0.9843360   0.7931368  )
       131        Ni     tau( 131) = (   0.7406075   0.8410745   0.4603118  )
       132        Mn     tau( 132) = (   0.9909555   0.7688210   0.1249907  )
       133        Ni     tau( 133) = (   0.5037414   0.2833427   0.4620755  )
       134        Ni     tau( 134) = (   0.7555676   0.2176485   0.1287398  )
       135        Ni     tau( 135) = (   0.9961657   1.0849810   0.2940889  )
       136        Ni     tau( 136) = (   0.7480854   0.5241915   0.2951494  )
       137        P      tau( 137) = (   0.7068565   0.9783721   0.1317154  )
       138        P      tau( 138) = (   0.9569549   0.6360871   0.4558210  )
       139        P      tau( 139) = (   0.7874467   0.0833574   0.4585952  )
       140        P      tau( 140) = (   0.5385452   0.4139702   0.1319017  )
       141        O      tau( 141) = (   0.6299291   0.9049669   0.2715327  )
       142        O      tau( 142) = (   0.8782317   0.7073639   0.3162425  )
       143        O      tau( 143) = (   0.8647389   0.1563669   0.3184411  )
       144        O      tau( 144) = (   0.6156313   0.3447757   0.2735959  )
       145        O      tau( 145) = (   0.6495437   0.8869933   0.0023366  )
       146        O      tau( 146) = (   0.8967062   0.7255047   0.5851804  )
       147        O      tau( 147) = (   0.8475634   0.1690300   0.5894443  )
       148        O      tau( 148) = (   0.5967469   0.3277190   0.0010856  )
       149        O      tau( 149) = (   0.5977236   0.5719706   0.1362794  )
       150        O      tau( 150) = (   0.8452514   1.0306297   0.4500300  )
       151        O      tau( 151) = (   0.8724256   0.4104926   0.1427328  )
       152        O      tau( 152) = (   0.6216040   0.0890503   0.4482339  )
       153        O      tau( 153) = (   0.6227974   0.6437575   0.4462371  )
       154        O      tau( 154) = (   0.8996875   0.4773239   0.4529018  )
       155        O      tau( 155) = (   0.6469079   0.0299071   0.1354334  )
       156        O      tau( 156) = (   0.8721173   0.9744163   0.1413141  )
       157        O      tau( 157) = (   0.6206852   0.9487225   1.9111104  )
       158        H      tau( 158) = (   0.5390407   0.8833974   1.9390630  )

     -------------------------------------------------
     Parameters for Dispersion (Grimme-D2) Correction:
     -------------------------------------------------
       atom      VdW radius       C_6     

        Ni         2.952        374.666
        Mn         2.952        374.666
        P          3.222        271.980
        O          2.536         24.284
        H          1.892          4.857

     number of k points=     1  Gaussian smearing, width (Ry)=  0.0100
                       cart. coord. in units 2pi/alat
        k(    1) = (   0.0000000   0.0000000   0.0000000), wk =   1.0000000

     Dense  grid:  1938023 G-vectors     FFT dimensions: ( 125, 144, 450)

     Smooth grid:   490328 G-vectors     FFT dimensions: (  80,  90, 288)

     Estimated max dynamical RAM per process >     326.29 MB

     Estimated total dynamical RAM >      20.39 GB

     Check: negative core charge=   -0.000001
     Generating pointlists ...
     new r_m :   0.0812 (alat units)  1.4139 (a.u.) for type    1
     new r_m :   0.0905 (alat units)  1.5759 (a.u.) for type    2
     new r_m :   0.0681 (alat units)  1.1852 (a.u.) for type    3
     new r_m :   0.0446 (alat units)  0.7771 (a.u.) for type    4
     new r_m :   0.0446 (alat units)  0.7771 (a.u.) for type    5

     Initial potential from superposition of free atoms

     starting charge    1092.8893, renormalised to    1093.0000

     negative rho (up, down):  1.393E-03 4.571E-04
 
     Adding external electric field

     Computed dipole along edir(3) : 
        Dipole                1.6566 Ry au,          4.2107 Debye
        Dipole field          0.0010 Ry au, 
 
        Potential amp.       -0.1118 Ry
        Total length         55.1515 bohr
 
 
     Adding external electric field

     Computed dipole along edir(3) : 
        Dipole                1.6566 Ry au,          4.2107 Debye
        Dipole field          0.0010 Ry au, 
 
        Potential amp.       -0.1118 Ry
        Total length         55.1515 bohr
 
     Starting wfcs are  815 randomized atomic wfcs

     total cpu time spent up to now is       14.7 secs

     Self-consistent Calculation

     iteration #  1     ecut=    50.00 Ry     beta= 0.50
     Davidson diagonalization with overlap
     ethr =  1.00E-02,  avg # of iterations =  6.0

     negative rho (up, down):  2.646E+00 3.182E-05
 
     Adding external electric field

     Computed dipole along edir(3) : 
        Dipole              -23.3201 Ry au,        -59.2737 Debye
        Dipole field         -0.0143 Ry au, 
 
        Potential amp.        1.5745 Ry
        Total length         55.1515 bohr
 
 
     Adding external electric field

     Computed dipole along edir(3) : 
        Dipole              -23.3201 Ry au,        -59.2737 Debye
        Dipole field         -0.0143 Ry au, 
 
        Potential amp.        1.5745 Ry
        Total length         55.1515 bohr
 

     total cpu time spent up to now is       44.6 secs

     total energy              =   -7553.65290260 Ry
     estimated scf accuracy    <     800.44886957 Ry

     total magnetization       =   219.00 Bohr mag/cell
     absolute magnetization    =   308.01 Bohr mag/cell

     iteration #  2     ecut=    50.00 Ry     beta= 0.50
     Davidson diagonalization with overlap
     ethr =  1.00E-02,  avg # of iterations =  9.5

     negative rho (up, down):  2.416E+00 3.490E-04
 
     Adding external electric field

     Computed dipole along edir(3) : 
        Dipole                0.7973 Ry au,          2.0265 Debye
        Dipole field          0.0005 Ry au, 
 
        Potential amp.       -0.0538 Ry
        Total length         55.1515 bohr
 
 
     Adding external electric field

     Computed dipole along edir(3) : 
        Dipole                0.7973 Ry au,          2.0265 Debye
        Dipole field          0.0005 Ry au, 
 
        Potential amp.       -0.0538 Ry
        Total length         55.1515 bohr
 

     total cpu time spent up to now is       77.6 secs

     total energy              =   -7632.48567882 Ry
     estimated scf accuracy    <    9040.66859818 Ry

     total magnetization       =   136.68 Bohr mag/cell
     absolute magnetization    =   172.66 Bohr mag/cell

     iteration #  3     ecut=    50.00 Ry     beta= 0.50
     Davidson diagonalization with overlap
     ethr =  1.00E-02,  avg # of iterations =  7.0

     negative rho (up, down):  1.655E+00 9.901E-04
 
     Adding external electric field

     Computed dipole along edir(3) : 
        Dipole               -1.5933 Ry au,         -4.0497 Debye
        Dipole field         -0.0010 Ry au, 
 
        Potential amp.        0.1076 Ry
        Total length         55.1515 bohr
 
 
     Adding external electric field

     Computed dipole along edir(3) : 
        Dipole               -1.5933 Ry au,         -4.0497 Debye
        Dipole field         -0.0010 Ry au, 
 
        Potential amp.        0.1076 Ry
        Total length         55.1515 bohr
 

     total cpu time spent up to now is       98.4 secs

     total energy              =   -7705.24985124 Ry
     estimated scf accuracy    <     633.82664247 Ry

     total magnetization       =   129.49 Bohr mag/cell
     absolute magnetization    =   168.63 Bohr mag/cell

     iteration #  4     ecut=    50.00 Ry     beta= 0.50
     Davidson diagonalization with overlap
     ethr =  1.00E-02,  avg # of iterations =  2.0

     negative rho (up, down):  1.127E+00 7.197E-04
 
     Adding external electric field

     Computed dipole along edir(3) : 
        Dipole               -1.9235 Ry au,         -4.8890 Debye
        Dipole field         -0.0012 Ry au, 
 
        Potential amp.        0.1299 Ry
        Total length         55.1515 bohr
 
 
     Adding external electric field

     Computed dipole along edir(3) : 
        Dipole               -1.9235 Ry au,         -4.8890 Debye
        Dipole field         -0.0012 Ry au, 
 
        Potential amp.        0.1299 Ry
        Total length         55.1515 bohr
 

     total cpu time spent up to now is      112.9 secs

     total energy              =   -7720.88427052 Ry
     estimated scf accuracy    <      88.65205649 Ry

     total magnetization       =    92.97 Bohr mag/cell
     absolute magnetization    =   138.51 Bohr mag/cell

     iteration #  5     ecut=    50.00 Ry     beta= 0.50
     Davidson diagonalization with overlap
     ethr =  8.11E-03,  avg # of iterations =  2.0

     negative rho (up, down):  5.527E-01 5.456E-06
 
     Adding external electric field

     Computed dipole along edir(3) : 
        Dipole               -2.2798 Ry au,         -5.7948 Debye
        Dipole field         -0.0014 Ry au, 
 
        Potential amp.        0.1539 Ry
        Total length         55.1515 bohr
 
 
     Adding external electric field

     Computed dipole along edir(3) : 
        Dipole               -2.2798 Ry au,         -5.7948 Debye
        Dipole field         -0.0014 Ry au, 
 
        Potential amp.        0.1539 Ry
        Total length         55.1515 bohr
 

     total cpu time spent up to now is      127.7 secs

     total energy              =   -7729.69208275 Ry
     estimated scf accuracy    <      70.95377048 Ry

     total magnetization       =    91.00 Bohr mag/cell
     absolute magnetization    =   126.72 Bohr mag/cell

     iteration #  6     ecut=    50.00 Ry     beta= 0.50
     Davidson diagonalization with overlap
     ethr =  6.49E-03,  avg # of iterations =  1.5

     negative rho (up, down):  2.018E-01 2.501E-06
 
     Adding external electric field

     Computed dipole along edir(3) : 
        Dipole               -2.5747 Ry au,         -6.5443 Debye
        Dipole field         -0.0016 Ry au, 
 
        Potential amp.        0.1738 Ry
        Total length         55.1515 bohr
 
 
     Adding external electric field

     Computed dipole along edir(3) : 
        Dipole               -2.5747 Ry au,         -6.5443 Debye
        Dipole field         -0.0016 Ry au, 
 
        Potential amp.        0.1738 Ry
        Total length         55.1515 bohr
 

     total cpu time spent up to now is      141.4 secs

     total energy              =   -7733.64131565 Ry
     estimated scf accuracy    <      41.35536319 Ry

     total magnetization       =    91.00 Bohr mag/cell
     absolute magnetization    =   116.11 Bohr mag/cell

     iteration #  7     ecut=    50.00 Ry     beta= 0.50
     Davidson diagonalization with overlap
     ethr =  3.78E-03,  avg # of iterations =  2.0

     negative rho (up, down):  3.000E-02 3.225E-06
 
     Adding external electric field

     Computed dipole along edir(3) : 
        Dipole               -2.9502 Ry au,         -7.4986 Debye
        Dipole field         -0.0018 Ry au, 
 
        Potential amp.        0.1992 Ry
        Total length         55.1515 bohr
 
 
     Adding external electric field

     Computed dipole along edir(3) : 
        Dipole               -2.9502 Ry au,         -7.4986 Debye
        Dipole field         -0.0018 Ry au, 
 
        Potential amp.        0.1992 Ry
        Total length         55.1515 bohr
 

     total cpu time spent up to now is      155.8 secs

     total energy              =   -7735.45753819 Ry
     estimated scf accuracy    <      53.71541172 Ry

     total magnetization       =    81.49 Bohr mag/cell
     absolute magnetization    =    99.62 Bohr mag/cell

     iteration #  8     ecut=    50.00 Ry     beta= 0.50
     Davidson diagonalization with overlap
     ethr =  3.78E-03,  avg # of iterations =  1.5

     negative rho (up, down):  6.914E-05 2.837E-05
 
     Adding external electric field

     Computed dipole along edir(3) : 
        Dipole               -3.1188 Ry au,         -7.9272 Debye
        Dipole field         -0.0019 Ry au, 
 
        Potential amp.        0.2106 Ry
        Total length         55.1515 bohr
 
 
     Adding external electric field

     Computed dipole along edir(3) : 
        Dipole               -3.1188 Ry au,         -7.9272 Debye
        Dipole field         -0.0019 Ry au, 
 
        Potential amp.        0.2106 Ry
        Total length         55.1515 bohr
 

     total cpu time spent up to now is      169.6 secs

     total energy              =   -7737.20044683 Ry
     estimated scf accuracy    <      26.28804993 Ry

     total magnetization       =    85.66 Bohr mag/cell
     absolute magnetization    =    98.23 Bohr mag/cell

     iteration #  9     ecut=    50.00 Ry     beta= 0.50
     Davidson diagonalization with overlap
     ethr =  2.41E-03,  avg # of iterations =  2.0

     negative rho (up, down):  5.122E-05 1.218E-04
 
     Adding external electric field

     Computed dipole along edir(3) : 
        Dipole               -3.1955 Ry au,         -8.1220 Debye
        Dipole field         -0.0020 Ry au, 
 
        Potential amp.        0.2157 Ry
        Total length         55.1515 bohr
 
 
     Adding external electric field

     Computed dipole along edir(3) : 
        Dipole               -3.1955 Ry au,         -8.1220 Debye
        Dipole field         -0.0020 Ry au, 
 
        Potential amp.        0.2157 Ry
        Total length         55.1515 bohr
 

     total cpu time spent up to now is      183.5 secs

     total energy              =   -7737.96622661 Ry
     estimated scf accuracy    <       5.96157877 Ry

     total magnetization       =    86.57 Bohr mag/cell
     absolute magnetization    =    94.60 Bohr mag/cell

     iteration # 10     ecut=    50.00 Ry     beta= 0.50
     Davidson diagonalization with overlap
     ethr =  5.45E-04,  avg # of iterations =  6.5

     negative rho (up, down):  9.037E-05 4.879E-04
 
     Adding external electric field

     Computed dipole along edir(3) : 
        Dipole               -3.2372 Ry au,         -8.2281 Debye
        Dipole field         -0.0020 Ry au, 
 
        Potential amp.        0.2186 Ry
        Total length         55.1515 bohr
 
 
     Adding external electric field

     Computed dipole along edir(3) : 
        Dipole               -3.2372 Ry au,         -8.2281 Debye
        Dipole field         -0.0020 Ry au, 
 
        Potential amp.        0.2186 Ry
        Total length         55.1515 bohr
 

     total cpu time spent up to now is      203.0 secs

     total energy              =   -7738.25269686 Ry
     estimated scf accuracy    <       1.89489662 Ry

     total magnetization       =    88.27 Bohr mag/cell
     absolute magnetization    =    94.28 Bohr mag/cell

     iteration # 11     ecut=    50.00 Ry     beta= 0.50
     Davidson diagonalization with overlap
     c_bands:  2 eigenvalues not converged
     ethr =  1.73E-04,  avg # of iterations = 11.0

     negative rho (up, down):  4.003E-07 2.668E-06
 
     Adding external electric field

     Computed dipole along edir(3) : 
        Dipole               -3.0784 Ry au,         -7.8245 Debye
        Dipole field         -0.0019 Ry au, 
 
        Potential amp.        0.2078 Ry
        Total length         55.1515 bohr
 
 
     Adding external electric field

     Computed dipole along edir(3) : 
        Dipole               -3.0784 Ry au,         -7.8245 Debye
        Dipole field         -0.0019 Ry au, 
 
        Potential amp.        0.2078 Ry
        Total length         55.1515 bohr
 

     total cpu time spent up to now is      222.6 secs

     total energy              =   -7738.31713419 Ry
     estimated scf accuracy    <       2.51504591 Ry

     total magnetization       =    87.21 Bohr mag/cell
     absolute magnetization    =    91.53 Bohr mag/cell

     iteration # 12     ecut=    50.00 Ry     beta= 0.50
     Davidson diagonalization with overlap
     ethr =  1.73E-04,  avg # of iterations =  1.5

     negative rho (up, down):  8.650E-06 1.515E-05
 
     Adding external electric field

     Computed dipole along edir(3) : 
        Dipole               -3.0977 Ry au,         -7.8735 Debye
        Dipole field         -0.0019 Ry au, 
 
        Potential amp.        0.2091 Ry
        Total length         55.1515 bohr
 
 
     Adding external electric field

     Computed dipole along edir(3) : 
        Dipole               -3.0977 Ry au,         -7.8735 Debye
        Dipole field         -0.0019 Ry au, 
 
        Potential amp.        0.2091 Ry
        Total length         55.1515 bohr
 

     total cpu time spent up to now is      235.3 secs

     total energy              =   -7738.28596382 Ry
     estimated scf accuracy    <       3.90623756 Ry

     total magnetization       =    86.69 Bohr mag/cell
     absolute magnetization    =    89.89 Bohr mag/cell

     iteration # 13     ecut=    50.00 Ry     beta= 0.50
     Davidson diagonalization with overlap
     ethr =  1.73E-04,  avg # of iterations =  1.0

     negative rho (up, down):  4.550E-07 2.101E-07
 
     Adding external electric field

     Computed dipole along edir(3) : 
        Dipole               -3.0321 Ry au,         -7.7067 Debye
        Dipole field         -0.0019 Ry au, 
 
        Potential amp.        0.2047 Ry
        Total length         55.1515 bohr
 
 
     Adding external electric field

     Computed dipole along edir(3) : 
        Dipole               -3.0321 Ry au,         -7.7067 Debye
        Dipole field         -0.0019 Ry au, 
 
        Potential amp.        0.2047 Ry
        Total length         55.1515 bohr
 

     total cpu time spent up to now is      248.2 secs

     total energy              =   -7738.30879828 Ry
     estimated scf accuracy    <       2.86950546 Ry

     total magnetization       =    86.79 Bohr mag/cell
     absolute magnetization    =    90.68 Bohr mag/cell

     iteration # 14     ecut=    50.00 Ry     beta= 0.50
     Davidson diagonalization with overlap
     ethr =  1.73E-04,  avg # of iterations =  1.5

     negative rho (up, down):  1.024E-07 1.023E-07
 
     Adding external electric field

     Computed dipole along edir(3) : 
        Dipole               -2.9843 Ry au,         -7.5854 Debye
        Dipole field         -0.0018 Ry au, 
 
        Potential amp.        0.2015 Ry
        Total length         55.1515 bohr
 
 
     Adding external electric field

     Computed dipole along edir(3) : 
        Dipole               -2.9843 Ry au,         -7.5854 Debye
        Dipole field         -0.0018 Ry au, 
 
        Potential amp.        0.2015 Ry
        Total length         55.1515 bohr
 

     total cpu time spent up to now is      261.8 secs

     total energy              =   -7738.34388878 Ry
     estimated scf accuracy    <       2.40648253 Ry

     total magnetization       =    87.07 Bohr mag/cell
     absolute magnetization    =    90.85 Bohr mag/cell

     iteration # 15     ecut=    50.00 Ry     beta= 0.50
     Davidson diagonalization with overlap
     ethr =  1.73E-04,  avg # of iterations =  1.5

     negative rho (up, down):  6.599E-08 5.069E-08
 
     Adding external electric field

     Computed dipole along edir(3) : 
        Dipole               -2.8197 Ry au,         -7.1670 Debye
        Dipole field         -0.0017 Ry au, 
 
        Potential amp.        0.1904 Ry
        Total length         55.1515 bohr
 
 
     Adding external electric field

     Computed dipole along edir(3) : 
        Dipole               -2.8197 Ry au,         -7.1670 Debye
        Dipole field         -0.0017 Ry au, 
 
        Potential amp.        0.1904 Ry
        Total length         55.1515 bohr
 

     total cpu time spent up to now is      274.9 secs

     total energy              =   -7738.32908361 Ry
     estimated scf accuracy    <       3.40212723 Ry

     total magnetization       =    87.92 Bohr mag/cell
     absolute magnetization    =    91.12 Bohr mag/cell

     iteration # 16     ecut=    50.00 Ry     beta= 0.50
     Davidson diagonalization with overlap
     ethr =  1.73E-04,  avg # of iterations =  1.5
 
     Adding external electric field

     Computed dipole along edir(3) : 
        Dipole               -2.7232 Ry au,         -6.9218 Debye
        Dipole field         -0.0017 Ry au, 
 
        Potential amp.        0.1839 Ry
        Total length         55.1515 bohr
 
 
     Adding external electric field

     Computed dipole along edir(3) : 
        Dipole               -2.7232 Ry au,         -6.9218 Debye
        Dipole field         -0.0017 Ry au, 
 
        Potential amp.        0.1839 Ry
        Total length         55.1515 bohr
 

     total cpu time spent up to now is      288.8 secs

     total energy              =   -7738.34248905 Ry
     estimated scf accuracy    <       1.18512170 Ry

     total magnetization       =    87.02 Bohr mag/cell
     absolute magnetization    =    89.70 Bohr mag/cell

     iteration # 17     ecut=    50.00 Ry     beta= 0.50
     Davidson diagonalization with overlap
     ethr =  1.08E-04,  avg # of iterations =  2.0
 
     Adding external electric field

     Computed dipole along edir(3) : 
        Dipole               -2.4732 Ry au,         -6.2863 Debye
        Dipole field         -0.0015 Ry au, 
 
        Potential amp.        0.1670 Ry
        Total length         55.1515 bohr
 
 
     Adding external electric field

     Computed dipole along edir(3) : 
        Dipole               -2.4732 Ry au,         -6.2863 Debye
        Dipole field         -0.0015 Ry au, 
 
        Potential amp.        0.1670 Ry
        Total length         55.1515 bohr
 

     total cpu time spent up to now is      303.5 secs

     total energy              =   -7738.36492311 Ry
     estimated scf accuracy    <       1.12413937 Ry

     total magnetization       =    88.09 Bohr mag/cell
     absolute magnetization    =    90.16 Bohr mag/cell

     iteration # 18     ecut=    50.00 Ry     beta= 0.50
     Davidson diagonalization with overlap
     ethr =  1.03E-04,  avg # of iterations =  2.0
 
     Adding external electric field

     Computed dipole along edir(3) : 
        Dipole               -2.3755 Ry au,         -6.0380 Debye
        Dipole field         -0.0015 Ry au, 
 
        Potential amp.        0.1604 Ry
        Total length         55.1515 bohr
 
 
     Adding external electric field

     Computed dipole along edir(3) : 
        Dipole               -2.3755 Ry au,         -6.0380 Debye
        Dipole field         -0.0015 Ry au, 
 
        Potential amp.        0.1604 Ry
        Total length         55.1515 bohr
 

     total cpu time spent up to now is      317.7 secs

     total energy              =   -7738.36429304 Ry
     estimated scf accuracy    <       0.34435700 Ry

     total magnetization       =    88.42 Bohr mag/cell
     absolute magnetization    =    89.98 Bohr mag/cell

     iteration # 19     ecut=    50.00 Ry     beta= 0.50
     Davidson diagonalization with overlap
     ethr =  3.15E-05,  avg # of iterations = 10.5
 
     Adding external electric field

     Computed dipole along edir(3) : 
        Dipole               -2.2460 Ry au,         -5.7087 Debye
        Dipole field         -0.0014 Ry au, 
 
        Potential amp.        0.1516 Ry
        Total length         55.1515 bohr
 
 
     Adding external electric field

     Computed dipole along edir(3) : 
        Dipole               -2.2460 Ry au,         -5.7087 Debye
        Dipole field         -0.0014 Ry au, 
 
        Potential amp.        0.1516 Ry
        Total length         55.1515 bohr
 

     total cpu time spent up to now is      343.4 secs

     total energy              =   -7738.36956935 Ry
     estimated scf accuracy    <       0.25187478 Ry

     total magnetization       =    88.29 Bohr mag/cell
     absolute magnetization    =    89.74 Bohr mag/cell

     iteration # 20     ecut=    50.00 Ry     beta= 0.50
     Davidson diagonalization with overlap
     ethr =  2.30E-05,  avg # of iterations = 18.5
 
     Adding external electric field

     Computed dipole along edir(3) : 
        Dipole               -2.1790 Ry au,         -5.5384 Debye
        Dipole field         -0.0013 Ry au, 
 
        Potential amp.        0.1471 Ry
        Total length         55.1515 bohr
 
 
     Adding external electric field

     Computed dipole along edir(3) : 
        Dipole               -2.1790 Ry au,         -5.5384 Debye
        Dipole field         -0.0013 Ry au, 
 
        Potential amp.        0.1471 Ry
        Total length         55.1515 bohr
 

     total cpu time spent up to now is      373.6 secs

     total energy              =   -7738.36797286 Ry
     estimated scf accuracy    <       0.17698092 Ry

     total magnetization       =    88.78 Bohr mag/cell
     absolute magnetization    =    90.07 Bohr mag/cell

     iteration # 21     ecut=    50.00 Ry     beta= 0.50
     Davidson diagonalization with overlap
     ethr =  1.62E-05,  avg # of iterations =  2.5
 
     Adding external electric field

     Computed dipole along edir(3) : 
        Dipole               -2.0937 Ry au,         -5.3215 Debye
        Dipole field         -0.0013 Ry au, 
 
        Potential amp.        0.1414 Ry
        Total length         55.1515 bohr
 
 
     Adding external electric field

     Computed dipole along edir(3) : 
        Dipole               -2.0937 Ry au,         -5.3215 Debye
        Dipole field         -0.0013 Ry au, 
 
        Potential amp.        0.1414 Ry
        Total length         55.1515 bohr
 

     total cpu time spent up to now is      388.0 secs

     total energy              =   -7738.35933722 Ry
     estimated scf accuracy    <       0.17169681 Ry

     total magnetization       =    88.69 Bohr mag/cell
     absolute magnetization    =    90.03 Bohr mag/cell

     iteration # 22     ecut=    50.00 Ry     beta= 0.50
     Davidson diagonalization with overlap
     ethr =  1.57E-05,  avg # of iterations =  2.5
 
     Adding external electric field

     Computed dipole along edir(3) : 
        Dipole               -1.9742 Ry au,         -5.0180 Debye
        Dipole field         -0.0012 Ry au, 
 
        Potential amp.        0.1333 Ry
        Total length         55.1515 bohr
 
 
     Adding external electric field

     Computed dipole along edir(3) : 
        Dipole               -1.9742 Ry au,         -5.0180 Debye
        Dipole field         -0.0012 Ry au, 
 
        Potential amp.        0.1333 Ry
        Total length         55.1515 bohr
 

     total cpu time spent up to now is      402.1 secs

     total energy              =   -7738.35508055 Ry
     estimated scf accuracy    <       0.16058105 Ry

     total magnetization       =    88.63 Bohr mag/cell
     absolute magnetization    =    90.08 Bohr mag/cell

     iteration # 23     ecut=    50.00 Ry     beta= 0.50
     Davidson diagonalization with overlap
     ethr =  1.47E-05,  avg # of iterations =  1.5
 
     Adding external electric field

     Computed dipole along edir(3) : 
        Dipole               -1.8765 Ry au,         -4.7696 Debye
        Dipole field         -0.0011 Ry au, 
 
        Potential amp.        0.1267 Ry
        Total length         55.1515 bohr
 
 
     Adding external electric field

     Computed dipole along edir(3) : 
        Dipole               -1.8765 Ry au,         -4.7696 Debye
        Dipole field         -0.0011 Ry au, 
 
        Potential amp.        0.1267 Ry
        Total length         55.1515 bohr
 

     total cpu time spent up to now is      416.2 secs

     total energy              =   -7738.35074593 Ry
     estimated scf accuracy    <       0.17970318 Ry

     total magnetization       =    88.64 Bohr mag/cell
     absolute magnetization    =    90.07 Bohr mag/cell

     iteration # 24     ecut=    50.00 Ry     beta= 0.50
     Davidson diagonalization with overlap
     ethr =  1.47E-05,  avg # of iterations =  1.5
 
     Adding external electric field

     Computed dipole along edir(3) : 
        Dipole               -1.7927 Ry au,         -4.5566 Debye
        Dipole field         -0.0011 Ry au, 
 
        Potential amp.        0.1210 Ry
        Total length         55.1515 bohr
 
 
     Adding external electric field

     Computed dipole along edir(3) : 
        Dipole               -1.7927 Ry au,         -4.5566 Debye
        Dipole field         -0.0011 Ry au, 
 
        Potential amp.        0.1210 Ry
        Total length         55.1515 bohr
 

     total cpu time spent up to now is      430.5 secs

     total energy              =   -7738.34244443 Ry
     estimated scf accuracy    <       0.14905133 Ry

     total magnetization       =    88.80 Bohr mag/cell
     absolute magnetization    =    90.28 Bohr mag/cell

     iteration # 25     ecut=    50.00 Ry     beta= 0.50
     Davidson diagonalization with overlap
     ethr =  1.36E-05,  avg # of iterations =  2.0
 
     Adding external electric field

     Computed dipole along edir(3) : 
        Dipole               -1.7343 Ry au,         -4.4082 Debye
        Dipole field         -0.0011 Ry au, 
 
        Potential amp.        0.1171 Ry
        Total length         55.1515 bohr
 
 
     Adding external electric field

     Computed dipole along edir(3) : 
        Dipole               -1.7343 Ry au,         -4.4082 Debye
        Dipole field         -0.0011 Ry au, 
 
        Potential amp.        0.1171 Ry
        Total length         55.1515 bohr
 

     total cpu time spent up to now is      444.6 secs

     total energy              =   -7738.33936210 Ry
     estimated scf accuracy    <       0.25785987 Ry

     total magnetization       =    87.96 Bohr mag/cell
     absolute magnetization    =    89.56 Bohr mag/cell

     iteration # 26     ecut=    50.00 Ry     beta= 0.50
     Davidson diagonalization with overlap
     ethr =  1.36E-05,  avg # of iterations =  1.5
 
     Adding external electric field

     Computed dipole along edir(3) : 
        Dipole               -1.6272 Ry au,         -4.1359 Debye
        Dipole field         -0.0010 Ry au, 
 
        Potential amp.        0.1099 Ry
        Total length         55.1515 bohr
 
 
     Adding external electric field

     Computed dipole along edir(3) : 
        Dipole               -1.6272 Ry au,         -4.1359 Debye
        Dipole field         -0.0010 Ry au, 
 
        Potential amp.        0.1099 Ry
        Total length         55.1515 bohr
 

     total cpu time spent up to now is      457.2 secs

     total energy              =   -7738.34118389 Ry
     estimated scf accuracy    <       0.13337121 Ry

     total magnetization       =    88.45 Bohr mag/cell
     absolute magnetization    =    90.02 Bohr mag/cell

     iteration # 27     ecut=    50.00 Ry     beta= 0.50
     Davidson diagonalization with overlap
     ethr =  1.22E-05,  avg # of iterations = 12.0
 
     Adding external electric field

     Computed dipole along edir(3) : 
        Dipole               -1.3878 Ry au,         -3.5274 Debye
        Dipole field         -0.0008 Ry au, 
 
        Potential amp.        0.0937 Ry
        Total length         55.1515 bohr
 
 
     Adding external electric field

     Computed dipole along edir(3) : 
        Dipole               -1.3878 Ry au,         -3.5274 Debye
        Dipole field         -0.0008 Ry au, 
 
        Potential amp.        0.0937 Ry
        Total length         55.1515 bohr
 

     total cpu time spent up to now is      483.0 secs

     total energy              =   -7738.33130008 Ry
     estimated scf accuracy    <       0.14748526 Ry

     total magnetization       =    88.60 Bohr mag/cell
     absolute magnetization    =    90.11 Bohr mag/cell

     iteration # 28     ecut=    50.00 Ry     beta= 0.50
     Davidson diagonalization with overlap
     c_bands:  4 eigenvalues not converged
     ethr =  1.22E-05,  avg # of iterations = 21.0

     negative rho (up, down):  7.736E-07 8.271E-07
 
     Adding external electric field

     Computed dipole along edir(3) : 
        Dipole               -1.0456 Ry au,         -2.6577 Debye
        Dipole field         -0.0006 Ry au, 
 
        Potential amp.        0.0706 Ry
        Total length         55.1515 bohr
 
 
     Adding external electric field

     Computed dipole along edir(3) : 
        Dipole               -1.0456 Ry au,         -2.6577 Debye
        Dipole field         -0.0006 Ry au, 
 
        Potential amp.        0.0706 Ry
        Total length         55.1515 bohr
 

     total cpu time spent up to now is      514.4 secs

     total energy              =   -7738.32410372 Ry
     estimated scf accuracy    <       0.14805893 Ry

     total magnetization       =    88.54 Bohr mag/cell
     absolute magnetization    =    90.11 Bohr mag/cell

     iteration # 29     ecut=    50.00 Ry     beta= 0.50
     Davidson diagonalization with overlap
     ethr =  1.22E-05,  avg # of iterations =  2.0
 
     Adding external electric field

     Computed dipole along edir(3) : 
        Dipole               -1.3060 Ry au,         -3.3195 Debye
        Dipole field         -0.0008 Ry au, 
 
        Potential amp.        0.0882 Ry
        Total length         55.1515 bohr
 
 
     Adding external electric field

     Computed dipole along edir(3) : 
        Dipole               -1.3060 Ry au,         -3.3195 Debye
        Dipole field         -0.0008 Ry au, 
 
        Potential amp.        0.0882 Ry
        Total length         55.1515 bohr
 

     total cpu time spent up to now is      528.0 secs

     total energy              =   -7738.33074923 Ry
     estimated scf accuracy    <       0.19558094 Ry

     total magnetization       =    88.21 Bohr mag/cell
     absolute magnetization    =    89.79 Bohr mag/cell

     iteration # 30     ecut=    50.00 Ry     beta= 0.50
     Davidson diagonalization with overlap
     ethr =  1.22E-05,  avg # of iterations =  2.0
 
     Adding external electric field

     Computed dipole along edir(3) : 
        Dipole               -0.8695 Ry au,         -2.2100 Debye
        Dipole field         -0.0005 Ry au, 
 
        Potential amp.        0.0587 Ry
        Total length         55.1515 bohr
 
 
     Adding external electric field

     Computed dipole along edir(3) : 
        Dipole               -0.8695 Ry au,         -2.2100 Debye
        Dipole field         -0.0005 Ry au, 
 
        Potential amp.        0.0587 Ry
        Total length         55.1515 bohr
 

     total cpu time spent up to now is      541.7 secs

     total energy              =   -7738.32305535 Ry
     estimated scf accuracy    <       0.15760227 Ry

     total magnetization       =    88.32 Bohr mag/cell
     absolute magnetization    =    89.80 Bohr mag/cell

     iteration # 31     ecut=    50.00 Ry     beta= 0.50
     Davidson diagonalization with overlap
     ethr =  1.22E-05,  avg # of iterations =  2.0

     negative rho (up, down):  2.645E-08 1.332E-08
 
     Adding external electric field

     Computed dipole along edir(3) : 
        Dipole               -0.5104 Ry au,         -1.2973 Debye
        Dipole field         -0.0003 Ry au, 
 
        Potential amp.        0.0345 Ry
        Total length         55.1515 bohr
 
 
     Adding external electric field

     Computed dipole along edir(3) : 
        Dipole               -0.5104 Ry au,         -1.2973 Debye
        Dipole field         -0.0003 Ry au, 
 
        Potential amp.        0.0345 Ry
        Total length         55.1515 bohr
 

     total cpu time spent up to now is      555.2 secs

     total energy              =   -7738.31331900 Ry
     estimated scf accuracy    <       0.17154375 Ry

     total magnetization       =    88.49 Bohr mag/cell
     absolute magnetization    =    89.92 Bohr mag/cell

     iteration # 32     ecut=    50.00 Ry     beta= 0.50
     Davidson diagonalization with overlap
     ethr =  1.22E-05,  avg # of iterations = 21.5

     negative rho (up, down):  1.975E-08 1.488E-09
 
     Adding external electric field

     Computed dipole along edir(3) : 
        Dipole               -0.5134 Ry au,         -1.3050 Debye
        Dipole field         -0.0003 Ry au, 
 
        Potential amp.        0.0347 Ry
        Total length         55.1515 bohr
 
 
     Adding external electric field

     Computed dipole along edir(3) : 
        Dipole               -0.5134 Ry au,         -1.3050 Debye
        Dipole field         -0.0003 Ry au, 
 
        Potential amp.        0.0347 Ry
        Total length         55.1515 bohr
 

     total cpu time spent up to now is      591.9 secs

     total energy              =   -7738.31136879 Ry
     estimated scf accuracy    <       0.12941888 Ry

     total magnetization       =    87.82 Bohr mag/cell
     absolute magnetization    =    89.31 Bohr mag/cell

     iteration # 33     ecut=    50.00 Ry     beta= 0.50
     Davidson diagonalization with overlap
     ethr =  1.18E-05,  avg # of iterations =  2.0

     negative rho (up, down):  1.983E-03 1.623E-03
 
     Adding external electric field

     Computed dipole along edir(3) : 
        Dipole               -0.3187 Ry au,         -0.8100 Debye
        Dipole field         -0.0002 Ry au, 
 
        Potential amp.        0.0215 Ry
        Total length         55.1515 bohr
 
 
     Adding external electric field

     Computed dipole along edir(3) : 
        Dipole               -0.3187 Ry au,         -0.8100 Debye
        Dipole field         -0.0002 Ry au, 
 
        Potential amp.        0.0215 Ry
        Total length         55.1515 bohr
 

     total cpu time spent up to now is      606.3 secs

     total energy              =   -7738.31625504 Ry
     estimated scf accuracy    <       0.06613447 Ry

     total magnetization       =    88.72 Bohr mag/cell
     absolute magnetization    =    90.06 Bohr mag/cell

     iteration # 34     ecut=    50.00 Ry     beta= 0.50
     Davidson diagonalization with overlap
     ethr =  6.05E-06,  avg # of iterations =  8.0

     negative rho (up, down):  1.549E-03 1.294E-03
 
     Adding external electric field

     Computed dipole along edir(3) : 
        Dipole               -0.3273 Ry au,         -0.8318 Debye
        Dipole field         -0.0002 Ry au, 
 
        Potential amp.        0.0221 Ry
        Total length         55.1515 bohr
 
 
     Adding external electric field

     Computed dipole along edir(3) : 
        Dipole               -0.3273 Ry au,         -0.8318 Debye
        Dipole field         -0.0002 Ry au, 
 
        Potential amp.        0.0221 Ry
        Total length         55.1515 bohr
 

     total cpu time spent up to now is      623.9 secs

     total energy              =   -7738.31656074 Ry
     estimated scf accuracy    <       0.01237313 Ry

     total magnetization       =    88.45 Bohr mag/cell
     absolute magnetization    =    89.79 Bohr mag/cell

     iteration # 35     ecut=    50.00 Ry     beta= 0.50
     Davidson diagonalization with overlap
     c_bands:  2 eigenvalues not converged
     ethr =  1.13E-06,  avg # of iterations = 14.5

     negative rho (up, down):  9.357E-04 6.859E-04
 
     Adding external electric field

     Computed dipole along edir(3) : 
        Dipole               -0.3309 Ry au,         -0.8410 Debye
        Dipole field         -0.0002 Ry au, 
 
        Potential amp.        0.0223 Ry
        Total length         55.1515 bohr
 
 
     Adding external electric field

     Computed dipole along edir(3) : 
        Dipole               -0.3309 Ry au,         -0.8410 Debye
        Dipole field         -0.0002 Ry au, 
 
        Potential amp.        0.0223 Ry
        Total length         55.1515 bohr
 

     total cpu time spent up to now is      645.5 secs

     total energy              =   -7738.31691863 Ry
     estimated scf accuracy    <       0.00805087 Ry

     total magnetization       =    88.51 Bohr mag/cell
     absolute magnetization    =    89.86 Bohr mag/cell

     iteration # 36     ecut=    50.00 Ry     beta= 0.50
     Davidson diagonalization with overlap
     ethr =  7.37E-07,  avg # of iterations =  2.0

     negative rho (up, down):  4.818E-05 3.704E-06
 
     Adding external electric field

     Computed dipole along edir(3) : 
        Dipole               -0.3554 Ry au,         -0.9034 Debye
        Dipole field         -0.0002 Ry au, 
 
        Potential amp.        0.0240 Ry
        Total length         55.1515 bohr
 
 
     Adding external electric field

     Computed dipole along edir(3) : 
        Dipole               -0.3554 Ry au,         -0.9034 Debye
        Dipole field         -0.0002 Ry au, 
 
        Potential amp.        0.0240 Ry
        Total length         55.1515 bohr
 

     total cpu time spent up to now is      660.0 secs

     total energy              =   -7738.31692373 Ry
     estimated scf accuracy    <       0.00679577 Ry

     total magnetization       =    88.42 Bohr mag/cell
     absolute magnetization    =    89.79 Bohr mag/cell

     iteration # 37     ecut=    50.00 Ry     beta= 0.50
     Davidson diagonalization with overlap
     ethr =  6.22E-07,  avg # of iterations =  2.0

     negative rho (up, down):  1.107E-04 1.758E-05
 
     Adding external electric field

     Computed dipole along edir(3) : 
        Dipole               -0.3506 Ry au,         -0.8911 Debye
        Dipole field         -0.0002 Ry au, 
 
        Potential amp.        0.0237 Ry
        Total length         55.1515 bohr
 
 
     Adding external electric field

     Computed dipole along edir(3) : 
        Dipole               -0.3506 Ry au,         -0.8911 Debye
        Dipole field         -0.0002 Ry au, 
 
        Potential amp.        0.0237 Ry
        Total length         55.1515 bohr
 

     total cpu time spent up to now is      674.0 secs

     total energy              =   -7738.31706971 Ry
     estimated scf accuracy    <       0.00719481 Ry

     total magnetization       =    88.37 Bohr mag/cell
     absolute magnetization    =    89.75 Bohr mag/cell

     iteration # 38     ecut=    50.00 Ry     beta= 0.50
     Davidson diagonalization with overlap
     ethr =  6.22E-07,  avg # of iterations =  9.0

     negative rho (up, down):  2.368E-04 5.147E-05
 
     Adding external electric field

     Computed dipole along edir(3) : 
        Dipole               -0.3363 Ry au,         -0.8547 Debye
        Dipole field         -0.0002 Ry au, 
 
        Potential amp.        0.0227 Ry
        Total length         55.1515 bohr
 
 
     Adding external electric field

     Computed dipole along edir(3) : 
        Dipole               -0.3363 Ry au,         -0.8547 Debye
        Dipole field         -0.0002 Ry au, 
 
        Potential amp.        0.0227 Ry
        Total length         55.1515 bohr
 

     total cpu time spent up to now is      692.4 secs

     total energy              =   -7738.31716947 Ry
     estimated scf accuracy    <       0.00772479 Ry

     total magnetization       =    88.43 Bohr mag/cell
     absolute magnetization    =    89.81 Bohr mag/cell

     iteration # 39     ecut=    50.00 Ry     beta= 0.50
     Davidson diagonalization with overlap
     ethr =  6.22E-07,  avg # of iterations =  2.0

     negative rho (up, down):  2.266E-04 9.097E-05
 
     Adding external electric field

     Computed dipole along edir(3) : 
        Dipole               -0.3634 Ry au,         -0.9235 Debye
        Dipole field         -0.0002 Ry au, 
 
        Potential amp.        0.0245 Ry
        Total length         55.1515 bohr
 
 
     Adding external electric field

     Computed dipole along edir(3) : 
        Dipole               -0.3634 Ry au,         -0.9235 Debye
        Dipole field         -0.0002 Ry au, 
 
        Potential amp.        0.0245 Ry
        Total length         55.1515 bohr
 

     total cpu time spent up to now is      706.2 secs

     total energy              =   -7738.31710412 Ry
     estimated scf accuracy    <       0.00121438 Ry

     total magnetization       =    88.43 Bohr mag/cell
     absolute magnetization    =    89.81 Bohr mag/cell

     iteration # 40     ecut=    50.00 Ry     beta= 0.50
     Davidson diagonalization with overlap
     ethr =  1.11E-07,  avg # of iterations =  7.5

     negative rho (up, down):  5.326E-04 2.806E-04
 
     Adding external electric field

     Computed dipole along edir(3) : 
        Dipole               -0.3364 Ry au,         -0.8552 Debye
        Dipole field         -0.0002 Ry au, 
 
        Potential amp.        0.0227 Ry
        Total length         55.1515 bohr
 
 
     Adding external electric field

     Computed dipole along edir(3) : 
        Dipole               -0.3364 Ry au,         -0.8552 Debye
        Dipole field         -0.0002 Ry au, 
 
        Potential amp.        0.0227 Ry
        Total length         55.1515 bohr
 

     total cpu time spent up to now is      723.7 secs

     total energy              =   -7738.31715852 Ry
     estimated scf accuracy    <       0.00318801 Ry

     total magnetization       =    88.57 Bohr mag/cell
     absolute magnetization    =    89.95 Bohr mag/cell

     iteration # 41     ecut=    50.00 Ry     beta= 0.50
     Davidson diagonalization with overlap
     ethr =  1.11E-07,  avg # of iterations =  2.0

     negative rho (up, down):  3.985E-04 1.240E-04
 
     Adding external electric field

     Computed dipole along edir(3) : 
        Dipole               -0.3268 Ry au,         -0.8307 Debye
        Dipole field         -0.0002 Ry au, 
 
        Potential amp.        0.0221 Ry
        Total length         55.1515 bohr
 
 
     Adding external electric field

     Computed dipole along edir(3) : 
        Dipole               -0.3268 Ry au,         -0.8307 Debye
        Dipole field         -0.0002 Ry au, 
 
        Potential amp.        0.0221 Ry
        Total length         55.1515 bohr
 

     total cpu time spent up to now is      737.3 secs

     total energy              =   -7738.31718212 Ry
     estimated scf accuracy    <       0.00084873 Ry

     total magnetization       =    88.45 Bohr mag/cell
     absolute magnetization    =    89.83 Bohr mag/cell

     iteration # 42     ecut=    50.00 Ry     beta= 0.50
     Davidson diagonalization with overlap
     ethr =  7.77E-08,  avg # of iterations =  2.0

     negative rho (up, down):  6.385E-04 3.324E-04
 
     Adding external electric field

     Computed dipole along edir(3) : 
        Dipole               -0.3268 Ry au,         -0.8305 Debye
        Dipole field         -0.0002 Ry au, 
 
        Potential amp.        0.0221 Ry
        Total length         55.1515 bohr
 
 
     Adding external electric field

     Computed dipole along edir(3) : 
        Dipole               -0.3268 Ry au,         -0.8305 Debye
        Dipole field         -0.0002 Ry au, 
 
        Potential amp.        0.0221 Ry
        Total length         55.1515 bohr
 

     total cpu time spent up to now is      751.0 secs

     total energy              =   -7738.31720497 Ry
     estimated scf accuracy    <       0.00077688 Ry

     total magnetization       =    88.52 Bohr mag/cell
     absolute magnetization    =    89.90 Bohr mag/cell

     iteration # 43     ecut=    50.00 Ry     beta= 0.50
     Davidson diagonalization with overlap
     ethr =  7.11E-08,  avg # of iterations =  2.0

     negative rho (up, down):  1.261E-03 8.160E-04
 
     Adding external electric field

     Computed dipole along edir(3) : 
        Dipole               -0.3112 Ry au,         -0.7910 Debye
        Dipole field         -0.0002 Ry au, 
 
        Potential amp.        0.0210 Ry
        Total length         55.1515 bohr
 
 
     Adding external electric field

     Computed dipole along edir(3) : 
        Dipole               -0.3112 Ry au,         -0.7910 Debye
        Dipole field         -0.0002 Ry au, 
 
        Potential amp.        0.0210 Ry
        Total length         55.1515 bohr
 

     total cpu time spent up to now is      764.5 secs

     total energy              =   -7738.31720633 Ry
     estimated scf accuracy    <       0.00060314 Ry

     total magnetization       =    88.49 Bohr mag/cell
     absolute magnetization    =    89.87 Bohr mag/cell

     iteration # 44     ecut=    50.00 Ry     beta= 0.50
     Davidson diagonalization with overlap
     ethr =  5.52E-08,  avg # of iterations =  2.0

     negative rho (up, down):  1.897E-03 1.557E-03
 
     Adding external electric field

     Computed dipole along edir(3) : 
        Dipole               -0.3051 Ry au,         -0.7756 Debye
        Dipole field         -0.0002 Ry au, 
 
        Potential amp.        0.0206 Ry
        Total length         55.1515 bohr
 
 
     Adding external electric field

     Computed dipole along edir(3) : 
        Dipole               -0.3051 Ry au,         -0.7756 Debye
        Dipole field         -0.0002 Ry au, 
 
        Potential amp.        0.0206 Ry
        Total length         55.1515 bohr
 

     total cpu time spent up to now is      778.8 secs

     total energy              =   -7738.31721117 Ry
     estimated scf accuracy    <       0.00044902 Ry

     total magnetization       =    88.48 Bohr mag/cell
     absolute magnetization    =    89.85 Bohr mag/cell

     iteration # 45     ecut=    50.00 Ry     beta= 0.50
     Davidson diagonalization with overlap
     ethr =  4.11E-08,  avg # of iterations =  1.5

     negative rho (up, down):  2.378E-03 2.101E-03
 
     Adding external electric field

     Computed dipole along edir(3) : 
        Dipole               -0.3016 Ry au,         -0.7666 Debye
        Dipole field         -0.0002 Ry au, 
 
        Potential amp.        0.0204 Ry
        Total length         55.1515 bohr
 
 
     Adding external electric field

     Computed dipole along edir(3) : 
        Dipole               -0.3016 Ry au,         -0.7666 Debye
        Dipole field         -0.0002 Ry au, 
 
        Potential amp.        0.0204 Ry
        Total length         55.1515 bohr
 

     total cpu time spent up to now is      791.4 secs

     total energy              =   -7738.31722033 Ry
     estimated scf accuracy    <       0.00024629 Ry

     total magnetization       =    88.48 Bohr mag/cell
     absolute magnetization    =    89.85 Bohr mag/cell

     iteration # 46     ecut=    50.00 Ry     beta= 0.50
     Davidson diagonalization with overlap
     ethr =  2.25E-08,  avg # of iterations =  1.0

     negative rho (up, down):  1.642E-03 1.206E-03
 
     Adding external electric field

     Computed dipole along edir(3) : 
        Dipole               -0.3082 Ry au,         -0.7833 Debye
        Dipole field         -0.0002 Ry au, 
 
        Potential amp.        0.0208 Ry
        Total length         55.1515 bohr
 
 
     Adding external electric field

     Computed dipole along edir(3) : 
        Dipole               -0.3082 Ry au,         -0.7833 Debye
        Dipole field         -0.0002 Ry au, 
 
        Potential amp.        0.0208 Ry
        Total length         55.1515 bohr
 

     total cpu time spent up to now is      802.8 secs

     total energy              =   -7738.31721408 Ry
     estimated scf accuracy    <       0.00010077 Ry

     total magnetization       =    88.46 Bohr mag/cell
     absolute magnetization    =    89.84 Bohr mag/cell

     iteration # 47     ecut=    50.00 Ry     beta= 0.50
     Davidson diagonalization with overlap
     ethr =  9.22E-09,  avg # of iterations =  1.0

     negative rho (up, down):  1.612E-03 1.166E-03
 
     Adding external electric field

     Computed dipole along edir(3) : 
        Dipole               -0.3084 Ry au,         -0.7838 Debye
        Dipole field         -0.0002 Ry au, 
 
        Potential amp.        0.0208 Ry
        Total length         55.1515 bohr
 
 
     Adding external electric field

     Computed dipole along edir(3) : 
        Dipole               -0.3084 Ry au,         -0.7838 Debye
        Dipole field         -0.0002 Ry au, 
 
        Potential amp.        0.0208 Ry
        Total length         55.1515 bohr
 

     total cpu time spent up to now is      814.5 secs

     total energy              =   -7738.31721472 Ry
     estimated scf accuracy    <       0.00004242 Ry

     total magnetization       =    88.48 Bohr mag/cell
     absolute magnetization    =    89.85 Bohr mag/cell

     iteration # 48     ecut=    50.00 Ry     beta= 0.50
     Davidson diagonalization with overlap
     ethr =  3.88E-09,  avg # of iterations =  1.0

     negative rho (up, down):  1.397E-03 9.376E-04
 
     Adding external electric field

     Computed dipole along edir(3) : 
        Dipole               -0.3088 Ry au,         -0.7849 Debye
        Dipole field         -0.0002 Ry au, 
 
        Potential amp.        0.0208 Ry
        Total length         55.1515 bohr
 
 
     Adding external electric field

     Computed dipole along edir(3) : 
        Dipole               -0.3088 Ry au,         -0.7849 Debye
        Dipole field         -0.0002 Ry au, 
 
        Potential amp.        0.0208 Ry
        Total length         55.1515 bohr
 

     total cpu time spent up to now is      825.5 secs

     total energy              =   -7738.31721280 Ry
     estimated scf accuracy    <       0.00001160 Ry

     total magnetization       =    88.47 Bohr mag/cell
     absolute magnetization    =    89.85 Bohr mag/cell

     iteration # 49     ecut=    50.00 Ry     beta= 0.50
     Davidson diagonalization with overlap
     ethr =  1.06E-09,  avg # of iterations =  2.0

     negative rho (up, down):  1.351E-03 8.901E-04
 
     Adding external electric field

     Computed dipole along edir(3) : 
        Dipole               -0.3094 Ry au,         -0.7864 Debye
        Dipole field         -0.0002 Ry au, 
 
        Potential amp.        0.0209 Ry
        Total length         55.1515 bohr
 
 
     Adding external electric field

     Computed dipole along edir(3) : 
        Dipole               -0.3094 Ry au,         -0.7864 Debye
        Dipole field         -0.0002 Ry au, 
 
        Potential amp.        0.0209 Ry
        Total length         55.1515 bohr
 

     total cpu time spent up to now is      838.3 secs

     total energy              =   -7738.31721255 Ry
     estimated scf accuracy    <       0.00002470 Ry

     total magnetization       =    88.47 Bohr mag/cell
     absolute magnetization    =    89.84 Bohr mag/cell

     iteration # 50     ecut=    50.00 Ry     beta= 0.50
     Davidson diagonalization with overlap
     ethr =  1.06E-09,  avg # of iterations =  2.0

     negative rho (up, down):  1.196E-03 7.301E-04
 
     Adding external electric field

     Computed dipole along edir(3) : 
        Dipole               -0.3106 Ry au,         -0.7895 Debye
        Dipole field         -0.0002 Ry au, 
 
        Potential amp.        0.0210 Ry
        Total length         55.1515 bohr
 
 
     Adding external electric field

     Computed dipole along edir(3) : 
        Dipole               -0.3106 Ry au,         -0.7895 Debye
        Dipole field         -0.0002 Ry au, 
 
        Potential amp.        0.0210 Ry
        Total length         55.1515 bohr
 

     total cpu time spent up to now is      851.8 secs

     total energy              =   -7738.31721193 Ry
     estimated scf accuracy    <       0.00000876 Ry

     total magnetization       =    88.46 Bohr mag/cell
     absolute magnetization    =    89.84 Bohr mag/cell

     iteration # 51     ecut=    50.00 Ry     beta= 0.50
     Davidson diagonalization with overlap
     ethr =  8.01E-10,  avg # of iterations =  1.0

     negative rho (up, down):  1.107E-03 6.403E-04
 
     Adding external electric field

     Computed dipole along edir(3) : 
        Dipole               -0.3113 Ry au,         -0.7911 Debye
        Dipole field         -0.0002 Ry au, 
 
        Potential amp.        0.0210 Ry
        Total length         55.1515 bohr
 
 
     Adding external electric field

     Computed dipole along edir(3) : 
        Dipole               -0.3113 Ry au,         -0.7911 Debye
        Dipole field         -0.0002 Ry au, 
 
        Potential amp.        0.0210 Ry
        Total length         55.1515 bohr
 

     total cpu time spent up to now is      863.4 secs

     total energy              =   -7738.31721162 Ry
     estimated scf accuracy    <       0.00000126 Ry

     total magnetization       =    88.46 Bohr mag/cell
     absolute magnetization    =    89.84 Bohr mag/cell

     iteration # 52     ecut=    50.00 Ry     beta= 0.50
     Davidson diagonalization with overlap
     ethr =  1.15E-10,  avg # of iterations =  2.0

     negative rho (up, down):  1.051E-03 5.881E-04
 
     Adding external electric field

     Computed dipole along edir(3) : 
        Dipole               -0.3157 Ry au,         -0.8025 Debye
        Dipole field         -0.0002 Ry au, 
 
        Potential amp.        0.0213 Ry
        Total length         55.1515 bohr
 
 
     Adding external electric field

     Computed dipole along edir(3) : 
        Dipole               -0.3157 Ry au,         -0.8025 Debye
        Dipole field         -0.0002 Ry au, 
 
        Potential amp.        0.0213 Ry
        Total length         55.1515 bohr
 
 
     Magnetic moment per site  (integrated on atomic sphere of radius R)
     atom   1 (R=0.081)  charge=  7.1265  magn=  1.4472
     atom   2 (R=0.091)  charge= 12.1428  magn=  3.8512
     atom   3 (R=0.081)  charge=  7.1261  magn=  1.4381
     atom   4 (R=0.081)  charge=  7.1118  magn=  1.5289
     atom   5 (R=0.081)  charge=  7.1272  magn=  1.4908
     atom   6 (R=0.081)  charge=  7.1283  magn=  1.4830
     atom   7 (R=0.068)  charge=  0.8202  magn=  0.0073
     atom   8 (R=0.068)  charge=  0.8163  magn=  0.0050
     atom   9 (R=0.068)  charge=  0.8158  magn=  0.0043
     atom  10 (R=0.068)  charge=  0.8180  magn=  0.0067
     atom  11 (R=0.045)  charge=  2.0121  magn=  0.0689
     atom  12 (R=0.045)  charge=  2.0110  magn=  0.0830
     atom  13 (R=0.045)  charge=  2.0047  magn=  0.1044
     atom  14 (R=0.045)  charge=  2.0100  magn=  0.0751
     atom  15 (R=0.045)  charge=  2.0180  magn=  0.0465
     atom  16 (R=0.045)  charge=  2.0109  magn=  0.0389
     atom  17 (R=0.045)  charge=  2.0054  magn=  0.0462
     atom  18 (R=0.045)  charge=  2.0140  magn=  0.0522
     atom  19 (R=0.045)  charge=  2.0154  magn=  0.0388
     atom  20 (R=0.045)  charge=  2.0097  magn=  0.0537
     atom  21 (R=0.045)  charge=  2.0167  magn=  0.0477
     atom  22 (R=0.045)  charge=  2.0153  magn=  0.0504
     atom  23 (R=0.045)  charge=  2.0139  magn=  0.0514
     atom  24 (R=0.045)  charge=  2.0117  magn=  0.0541
     atom  25 (R=0.045)  charge=  2.0177  magn=  0.0515
     atom  26 (R=0.045)  charge=  2.0198  magn=  0.0325
     atom  27 (R=0.081)  charge=  7.1113  magn=  1.5196
     atom  28 (R=0.091)  charge= 12.1648  magn=  3.9293
     atom  29 (R=0.081)  charge=  7.1118  magn=  1.5254
     atom  30 (R=0.081)  charge=  7.1140  magn=  1.5239
     atom  31 (R=0.081)  charge=  7.1303  magn=  1.5034
     atom  32 (R=0.081)  charge=  7.1282  magn=  1.5012
     atom  33 (R=0.068)  charge=  0.8205  magn=  0.0071
     atom  34 (R=0.068)  charge=  0.8190  magn=  0.0083
     atom  35 (R=0.068)  charge=  0.8184  magn=  0.0061
     atom  36 (R=0.068)  charge=  0.8211  magn=  0.0070
     atom  37 (R=0.045)  charge=  2.0090  magn=  0.0695
     atom  38 (R=0.045)  charge=  2.0112  magn=  0.0668
     atom  39 (R=0.045)  charge=  2.0076  magn=  0.0830
     atom  40 (R=0.045)  charge=  2.0063  magn=  0.0808
     atom  41 (R=0.045)  charge=  2.0181  magn=  0.0482
     atom  42 (R=0.045)  charge=  2.0200  magn=  0.0454
     atom  43 (R=0.045)  charge=  2.0161  magn=  0.0554
     atom  44 (R=0.045)  charge=  2.0152  magn=  0.0540
     atom  45 (R=0.045)  charge=  2.0195  magn=  0.0472
     atom  46 (R=0.045)  charge=  2.0164  magn=  0.0578
     atom  47 (R=0.045)  charge=  2.0184  magn=  0.0503
     atom  48 (R=0.045)  charge=  2.0174  magn=  0.0502
     atom  49 (R=0.045)  charge=  2.0158  magn=  0.0479
     atom  50 (R=0.045)  charge=  2.0152  magn=  0.0555
     atom  51 (R=0.045)  charge=  2.0161  magn=  0.0534
     atom  52 (R=0.045)  charge=  2.0215  magn=  0.0380
     atom  53 (R=0.081)  charge=  7.1095  magn=  1.5233
     atom  54 (R=0.091)  charge= 12.1501  magn=  3.9476
     atom  55 (R=0.081)  charge=  7.1122  magn=  1.5249
     atom  56 (R=0.081)  charge=  7.1340  magn=  1.4128
     atom  57 (R=0.081)  charge=  7.1301  magn=  1.5008
     atom  58 (R=0.081)  charge=  7.1280  magn=  1.5013
     atom  59 (R=0.068)  charge=  0.8227  magn=  0.0050
     atom  60 (R=0.068)  charge=  0.8187  magn=  0.0081
     atom  61 (R=0.068)  charge=  0.8185  magn=  0.0060
     atom  62 (R=0.068)  charge=  0.8244  magn=  0.0039
     atom  63 (R=0.045)  charge=  2.0091  magn=  0.0764
     atom  64 (R=0.045)  charge=  2.0095  magn=  0.0656
     atom  65 (R=0.045)  charge=  2.0075  magn=  0.0811
     atom  66 (R=0.045)  charge=  2.0064  magn=  0.0918
     atom  67 (R=0.045)  charge=  2.0025  magn=  0.0362
     atom  68 (R=0.045)  charge=  2.0194  magn=  0.0448
     atom  69 (R=0.045)  charge=  2.0143  magn=  0.0550
     atom  70 (R=0.045)  charge=  2.0002  magn=  0.0450
     atom  71 (R=0.045)  charge=  2.0219  magn=  0.0452
     atom  72 (R=0.045)  charge=  2.0160  magn=  0.0577
     atom  73 (R=0.045)  charge=  2.0177  magn=  0.0492
     atom  74 (R=0.045)  charge=  2.0187  magn=  0.0500
     atom  75 (R=0.045)  charge=  2.0166  magn=  0.0471
     atom  76 (R=0.045)  charge=  2.0151  magn=  0.0552
     atom  77 (R=0.045)  charge=  2.0140  magn=  0.0479
     atom  78 (R=0.045)  charge=  2.0208  magn=  0.0373
     atom  79 (R=0.081)  charge=  7.0783  magn=  1.6289
     atom  80 (R=0.091)  charge= 12.1360  magn=  3.8214
     atom  81 (R=0.081)  charge=  7.1266  magn=  1.4402
     atom  82 (R=0.081)  charge=  7.1109  magn=  1.5322
     atom  83 (R=0.081)  charge=  7.1274  magn=  1.4931
     atom  84 (R=0.081)  charge=  7.1251  magn=  1.4863
     atom  85 (R=0.068)  charge=  0.8204  magn=  0.0066
     atom  86 (R=0.068)  charge=  0.8176  magn=  0.0062
     atom  87 (R=0.068)  charge=  0.8154  magn=  0.0039
     atom  88 (R=0.068)  charge=  0.8187  magn=  0.0070
     atom  89 (R=0.045)  charge=  2.0097  magn=  0.0661
     atom  90 (R=0.045)  charge=  2.0140  magn=  0.0593
     atom  91 (R=0.045)  charge=  2.0061  magn=  0.1102
     atom  92 (R=0.045)  charge=  2.0089  magn=  0.0748
     atom  93 (R=0.045)  charge=  2.0176  magn=  0.0498
     atom  94 (R=0.045)  charge=  2.0066  magn=  0.0535
     atom  95 (R=0.045)  charge=  2.0066  magn=  0.0455
     atom  96 (R=0.045)  charge=  2.0144  magn=  0.0519
     atom  97 (R=0.045)  charge=  2.0180  magn=  0.0406
     atom  98 (R=0.045)  charge=  2.0124  magn=  0.0636
     atom  99 (R=0.045)  charge=  2.0150  magn=  0.0475
     atom 100 (R=0.045)  charge=  2.0155  magn=  0.0513
     atom 101 (R=0.045)  charge=  2.0115  magn=  0.0555
     atom 102 (R=0.045)  charge=  2.0107  magn=  0.0550
     atom 103 (R=0.045)  charge=  2.0143  magn=  0.0542
     atom 104 (R=0.045)  charge=  2.0184  magn=  0.0338
     atom 105 (R=0.081)  charge=  7.1134  magn=  1.5150
     atom 106 (R=0.091)  charge= 12.1650  magn=  3.9294
     atom 107 (R=0.081)  charge=  7.1121  magn=  1.5244
     atom 108 (R=0.081)  charge=  7.1138  magn=  1.5241
     atom 109 (R=0.081)  charge=  7.1304  magn=  1.5036
     atom 110 (R=0.081)  charge=  7.1281  magn=  1.5011
     atom 111 (R=0.068)  charge=  0.8210  magn=  0.0072
     atom 112 (R=0.068)  charge=  0.8187  magn=  0.0084
     atom 113 (R=0.068)  charge=  0.8183  magn=  0.0061
     atom 114 (R=0.068)  charge=  0.8214  magn=  0.0070
     atom 115 (R=0.045)  charge=  2.0094  magn=  0.0695
[...]
    -5.9787  -5.9646  -5.9146  -5.9046  -5.8831  -5.8751  -5.8727  -5.8431
    -5.8234  -5.7990  -5.7482  -5.7373  -5.7173  -5.6890  -5.6751  -5.6436
    -5.6386  -5.6286  -5.5904  -5.5740  -5.5664  -5.5578  -5.5544  -5.5301
    -5.5147  -5.5028  -5.4797  -5.4414  -5.3993  -5.3557  -5.3298  -5.3153
    -5.2945  -5.2633  -5.2327  -5.1638  -5.1491  -5.1455  -5.1315  -5.1014
    -5.0532  -5.0095  -4.9686  -4.9427  -4.8978  -4.8869  -4.8581  -4.8541
    -4.8118  -4.7932  -4.7779  -4.7409  -4.7060  -4.6874  -4.6461  -4.6022
    -4.5493  -4.4672  -4.4421  -4.4239  -4.4151  -4.3994  -4.3577  -4.3504
    -4.2995  -4.2803  -4.2534  -4.2303  -4.2015  -4.1671  -4.1152  -4.1044
    -4.0750  -4.0470  -4.0447  -4.0127  -3.9556  -3.9317  -3.9178  -3.8749
    -3.8673  -3.8177  -3.8088  -3.7973  -3.7849  -3.7460  -3.7214  -3.6927
    -3.6901  -3.6614  -3.6439  -3.5953  -3.5827  -3.5756  -3.5715  -3.5454
    -3.5410  -3.5187  -3.5001  -3.4750  -3.4562  -3.4402  -3.4252  -3.4105
    -3.4078  -3.3676  -3.3574  -3.3510  -3.3360  -3.3019  -3.2726  -3.2562
    -3.2518  -3.2087  -3.1946  -3.1803  -3.1470  -3.1138  -3.1017  -3.0794
    -3.0712  -3.0654  -3.0421  -3.0356  -3.0199  -3.0013  -2.9764  -2.9648
    -2.9277  -2.9160  -2.8939  -2.8863  -2.8665  -2.8509  -2.8115  -2.7938
    -2.7854  -2.7562  -2.7517  -2.7433  -2.7257  -2.7147  -2.7008  -2.6935
    -2.6855  -2.6750  -2.6590  -2.6452  -2.6388  -2.6059  -2.6000  -2.5949
    -2.5710  -2.5655  -2.5397  -2.5252  -2.5152  -2.4845  -2.4713  -2.4553
    -2.4425  -2.4192  -2.4083  -2.3773  -2.3558  -2.3522  -2.3187  -2.2852
    -2.2755  -2.2646  -2.2267  -2.2087  -2.1932  -2.1778  -2.1451  -2.1408
    -2.1130  -2.0861  -2.0665  -2.0616  -2.0557  -2.0409  -2.0292  -2.0201
    -1.9963  -1.9773  -1.9388  -1.9163  -1.9114  -1.9098  -1.8762  -1.8553
    -1.8399  -1.8347  -1.8230  -1.8079  -1.7873  -1.7149  -1.7074  -1.6913
    -1.6703  -1.6551  -1.6343  -1.6273  -1.6151  -1.6138  -1.5904  -1.5697
    -1.5483  -1.5344  -1.5144  -1.4870  -1.4848  -1.4540  -1.4346  -1.4271
    -1.3982  -1.3954  -1.3805  -1.3743  -1.3560  -1.3476  -1.3030  -1.2620
    -1.2324  -1.2121  -1.1703  -1.1480  -1.1352  -1.1307  -1.0919  -1.0546
    -1.0429  -0.9942  -0.9281  -0.8481  -0.7390  -0.7284  -0.6210  -0.5551
    -0.5222  -0.5084  -0.3559  -0.2170   0.1792   0.2209   0.2433   0.2480
     0.2999   0.3118   0.3143   0.3216   0.3309   0.3502   0.3589   0.3696
     0.3761   0.3899   0.3971   0.4037   0.4062   0.4150   0.4200   0.4271
     0.4335   0.4413   0.4632   0.4668   0.4764   0.4844   0.4917   0.4923
     0.4970   0.5027   0.5103   0.5173   0.5262   0.5339   0.5370   0.5442
     0.5454   0.5638   0.5676   0.5754   0.5848   0.6005   0.6042   0.6189
     0.6242   0.6254   0.6417   0.6489   0.6539   0.6620   0.6669   0.6788
     0.6852   0.6932   0.7012   0.7028   0.7137   0.7302   0.7331   0.7436
     0.7482   0.7591   0.7677   0.7693   0.7757   0.7919   0.8008   0.8119
     0.8137   0.8229   0.8390   0.8565   0.8671   0.8679   0.8701   0.8751
     0.8835   0.8897   0.9068   0.9104   0.9194   0.9536   0.9868   0.9952
     1.0194   1.0494   1.0879   1.1129   1.1237   1.6749   1.7363   1.7487
     1.7695   1.7904   1.8012   1.8163   1.8295   1.8438   1.9053   1.9204
     1.9403   1.9677   1.9915   2.0106   2.0441   2.0464   2.0963   2.1073
     2.1321   2.1441   2.1463   2.1807   2.1914   2.1968   2.2073   2.2348
     2.2686   2.2770   2.2965   2.3007   2.3136   2.3234   2.3319   2.3507
     2.3728   2.3751   2.3892   2.3930   2.4170   2.4204   2.4321   2.4941
     2.5024   2.5307   2.5366   2.5407   2.5534   2.5692   2.5890   2.5985
     2.6227   2.6821   2.7070   2.7216   2.7432   2.8026   2.8045   2.8648
     2.8762   2.9538   3.6535   3.7087   3.7222   3.7496   3.7846   3.7991
     3.8469   3.9052   3.9290   3.9505   3.9607   3.9831   4.0014   4.0072
     4.0545   4.0602   4.1446   4.1480   4.1577   4.1797   4.6511   4.6643
     4.7719   4.8152   4.8615   4.8971   4.9191   4.9619   5.0392   5.0958
     5.1145   5.1462   5.4266   6.2442   6.3751   6.6127   6.6615   6.7519
     6.8465   6.8658   6.8904   6.9672   6.9891   7.0685   7.1190   7.1313
     7.2713   7.3521   7.3578   7.4212   7.4818   7.5416   7.5743   7.6290
     7.6574   7.6684   7.7447   7.7696   7.8035   7.8617   7.8951   7.9691
     8.0020   8.0502   8.0548   8.0929   8.1068   8.1659   8.1827   8.2132
     8.2460   8.2861   8.3045   8.3327   8.4043   8.4306   8.4320   8.4539
     8.4596   8.4802   8.4987   8.5406   8.5553   8.5736   8.5982   8.6240
     8.6706   8.7074   8.7246   8.7553   8.7696   8.7836   8.8364   8.8402

     the Fermi energy is     1.6610 ev

!    total energy              =   -7738.31721105 Ry
     estimated scf accuracy    <       0.00000051 Ry
     smearing contrib. (-TS)   =      -0.02292356 Ry
     internal energy E=F+TS    =   -7738.29428749 Ry

     The total energy is F=E-TS. E is the sum of the following terms:
     one-electron contribution =  -94545.21363941 Ry
     hartree contribution      =   47889.81514349 Ry
     xc contribution           =   -2218.68213666 Ry
     ewald contribution        =   41137.59125483 Ry
     Dispersion Correction     =      -1.80497076 Ry
     electric field correction =       0.00006102 Ry

     total magnetization       =    88.47 Bohr mag/cell
     absolute magnetization    =    89.84 Bohr mag/cell

     convergence has been achieved in  52 iterations

     negative rho (up, down):  1.051E-03 5.881E-04

     Forces acting on atoms (cartesian axes, Ry/au):

     atom    1 type  1   force =    -0.00050802    0.00013614   -0.00015987
     atom    2 type  2   force =    -0.00028944    0.00071081    0.00000376
     atom    3 type  1   force =     0.00023645    0.00012408    0.00021107
     atom    4 type  1   force =    -0.00036403    0.00064312   -0.00041659
     atom    5 type  1   force =    -0.00022441    0.00049864   -0.00026291
     atom    6 type  1   force =     0.00068350    0.00070869   -0.00082088
     atom    7 type  3   force =     0.00026401    0.00036178   -0.00038340
     atom    8 type  3   force =     0.00050002   -0.00009755   -0.00131654
     atom    9 type  3   force =    -0.00006667    0.00065220   -0.00007022
     atom   10 type  3   force =    -0.00096698    0.00033283    0.00019554
     atom   11 type  4   force =     0.00037312    0.00033767   -0.00035770
     atom   12 type  4   force =    -0.00037140    0.00042973   -0.00041494
     atom   13 type  4   force =     0.00028094    0.00001592   -0.00028964
     atom   14 type  4   force =    -0.00034989    0.00021839   -0.00018318
     atom   15 type  4   force =    -0.00035797    0.00051854   -0.00008664
     atom   16 type  4   force =     0.00019280    0.00066817    0.00031103
     atom   17 type  4   force =     0.00000613    0.00039396    0.00022019
     atom   18 type  4   force =     0.00041483    0.00017527   -0.00004115
     atom   19 type  4   force =     0.00056852   -0.00016224   -0.00058951
     atom   20 type  4   force =    -0.00008708    0.00008316    0.00012163
     atom   21 type  4   force =    -0.00046978    0.00025031    0.00031515
     atom   22 type  4   force =     0.00054076    0.00019967    0.00045771
     atom   23 type  4   force =    -0.00012216    0.00026227    0.00027797
     atom   24 type  4   force =     0.00019388    0.00049972    0.00044503
     atom   25 type  4   force =    -0.00098197    0.00034132   -0.00062369
     atom   26 type  4   force =     0.00024994    0.00026026    0.00059994
     atom   27 type  1   force =    -0.00640357   -0.00883033   -0.00284720
     atom   28 type  2   force =    -0.01204900    0.00020813   -0.00184218
     atom   29 type  1   force =     0.00337063   -0.00469788   -0.00062489
     atom   30 type  1   force =     0.00235035    0.00389849   -0.00187908
     atom   31 type  1   force =     0.00202768   -0.00490350   -0.00050363
     atom   32 type  1   force =    -0.00123697    0.00118103    0.00164374
     atom   33 type  3   force =    -0.00717147   -0.00079164   -0.00040524
     atom   34 type  3   force =    -0.00573733    0.00371314   -0.00121516
     atom   35 type  3   force =     0.00353897   -0.00145628   -0.00450703
     atom   36 type  3   force =     0.00105354   -0.00121363    0.00292947
     atom   37 type  4   force =     0.00884686    0.00527191   -0.00762905
     atom   38 type  4   force =     0.00374876   -0.00108434    0.02015952
     atom   39 type  4   force =    -0.00147075    0.00383404    0.01077085
     atom   40 type  4   force =    -0.00160178   -0.00231805   -0.00892503
     atom   41 type  4   force =     0.00215044    0.00858510    0.00655470
     atom   42 type  4   force =    -0.00454182   -0.00344094   -0.01680226
     atom   43 type  4   force =     0.01057728    0.00506155   -0.00753743
     atom   44 type  4   force =     0.00724244   -0.00304137    0.00607063
     atom   45 type  4   force =     0.00231028    0.00583792   -0.00068715
     atom   46 type  4   force =     0.00257309    0.00066540    0.00601874
     atom   47 type  4   force =    -0.01323603    0.00020646    0.00332376
     atom   48 type  4   force =    -0.01412903    0.00205542   -0.00315095
     atom   49 type  4   force =     0.01308945    0.00234271   -0.00480317
     atom   50 type  4   force =    -0.00348608   -0.00482561    0.00054819
     atom   51 type  4   force =    -0.00428526    0.00264356   -0.00071041
     atom   52 type  4   force =     0.01631281   -0.00323097    0.00421157
     atom   53 type  1   force =    -0.00752604   -0.00700845   -0.00850468
     atom   54 type  2   force =     0.01562658    0.01717731   -0.00972660
     atom   55 type  1   force =     0.00579452   -0.00495053   -0.00592659
     atom   56 type  1   force =    -0.02045287    0.01919512    0.02006142
     atom   57 type  1   force =     0.00443620   -0.00751040   -0.00132699
     atom   58 type  1   force =    -0.00387512   -0.00533490   -0.00085696
     atom   59 type  3   force =    -0.03902985   -0.03836048   -0.05605349
     atom   60 type  3   force =    -0.00495944   -0.00126872   -0.00116342
     atom   61 type  3   force =     0.00272757   -0.00101733   -0.01011730
     atom   62 type  3   force =     0.02911356   -0.04950846   -0.06058772
     atom   63 type  4   force =     0.00629763    0.00353413    0.02094830
     atom   64 type  4   force =     0.00454103    0.00227296    0.01464389
     atom   65 type  4   force =    -0.00068562    0.00288244    0.01281407
     atom   66 type  4   force =     0.00011830    0.00216456    0.01616373
     atom   67 type  4   force =     0.00107862   -0.00062549    0.03912638
     atom   68 type  4   force =    -0.00564438   -0.00397691   -0.01727034
     atom   69 type  4   force =     0.00778136    0.00445396   -0.00269042
     atom   70 type  4   force =     0.00174380   -0.00735836    0.03542275
     atom   71 type  4   force =    -0.00912753    0.03913584    0.00096940
     atom   72 type  4   force =     0.00224952   -0.00037681    0.00791600
     atom   73 type  4   force =    -0.03005050    0.00087295    0.00766179
     atom   74 type  4   force =    -0.01340213    0.00143843   -0.00044455
     atom   75 type  4   force =     0.01184430    0.00349653   -0.00253125
     atom   76 type  4   force =    -0.00234507   -0.00281872    0.00255299
     atom   77 type  4   force =     0.00920196    0.02574126   -0.00253399
     atom   78 type  4   force =     0.03346508   -0.00638111    0.00621086
     atom   79 type  1   force =    -0.00072168    0.00028598    0.00002446
     atom   80 type  2   force =    -0.00007301    0.00055799   -0.00012302
     atom   81 type  1   force =     0.00065160    0.00006279    0.00002283
     atom   82 type  1   force =    -0.00009978    0.00075377   -0.00017302
     atom   83 type  1   force =    -0.00076901    0.00066561    0.00037528
     atom   84 type  1   force =     0.00025418    0.00020411   -0.00051878
     atom   85 type  3   force =     0.00024212    0.00044793   -0.00026184
     atom   86 type  3   force =     0.00006910   -0.00020860   -0.00101782
     atom   87 type  3   force =    -0.00034644    0.00057637   -0.00015524
     atom   88 type  3   force =    -0.00077699    0.00087905    0.00025450
     atom   89 type  4   force =    -0.00008643    0.00059613   -0.00027188
     atom   90 type  4   force =    -0.00064847    0.00024451   -0.00019149
     atom   91 type  4   force =     0.00063131   -0.00058506    0.00024284
     atom   92 type  4   force =    -0.00053853    0.00026438   -0.00028554
     atom   93 type  4   force =    -0.00008751    0.00040723    0.00007125
     atom   94 type  4   force =    -0.00011381    0.00040542    0.00003283
     atom   95 type  4   force =     0.00006232   -0.00024151   -0.00006565
     atom   96 type  4   force =     0.00023939    0.00025482   -0.00054019
     atom   97 type  4   force =     0.00025105   -0.00017930   -0.00020834
     atom   98 type  4   force =     0.00021863    0.00055843   -0.00013301
     atom   99 type  4   force =    -0.00038158    0.00013122    0.00067523
     atom  100 type  4   force =    -0.00057205    0.00017552    0.00006076
     atom  101 type  4   force =    -0.00053157    0.00034841    0.00026594
     atom  102 type  4   force =    -0.00001863    0.00035511    0.00048698
     atom  103 type  4   force =    -0.00052490    0.00026520   -0.00045832
     atom  104 type  4   force =     0.00048784    0.00030614   -0.00003304
     atom  105 type  1   force =    -0.00676619   -0.00729700   -0.00191635
     atom  106 type  2   force =    -0.01232363   -0.00000444   -0.00166944
     atom  107 type  1   force =     0.00389012   -0.00448099   -0.00002170
     atom  108 type  1   force =     0.00241120    0.00391634   -0.00177472
     atom  109 type  1   force =     0.00152603   -0.00485009   -0.00033205
     atom  110 type  1   force =    -0.00108127    0.00134600    0.00173923
     atom  111 type  3   force =    -0.00697897   -0.00092628    0.00012553
     atom  112 type  3   force =    -0.00676182    0.00427449   -0.00241390
     atom  113 type  3   force =     0.00391108   -0.00302056   -0.00322893
     atom  114 type  3   force =     0.00118793   -0.00123904    0.00294890
     atom  115 type  4   force =     0.00864093    0.00512198   -0.00788566
     atom  116 type  4   force =     0.00466823   -0.00228350    0.01986210
     atom  117 type  4   force =    -0.00112985    0.00412134    0.01040991
     atom  118 type  4   force =    -0.00163354   -0.00248231   -0.00898697
     atom  119 type  4   force =     0.00204389    0.00837592    0.00622229
     atom  120 type  4   force =    -0.00468033   -0.00380925   -0.01887266
     atom  121 type  4   force =     0.00993377    0.00544244   -0.00684185
     atom  122 type  4   force =     0.00702082   -0.00301428    0.00606180
     atom  123 type  4   force =     0.00204251    0.00588027   -0.00062953
     atom  124 type  4   force =     0.00294382    0.00172538    0.00505525
     atom  125 type  4   force =    -0.01307317    0.00015500    0.00324260
     atom  126 type  4   force =    -0.01473300    0.00243074   -0.00306683
     atom  127 type  4   force =     0.01244875    0.00192427   -0.00476944
     atom  128 type  4   force =    -0.00370783   -0.00465833    0.00041832
     atom  129 type  4   force =    -0.00440584    0.00267307   -0.00061445
     atom  130 type  4   force =     0.01636579   -0.00325639    0.00399568
     atom  131 type  1   force =    -0.00747510   -0.00708511   -0.00849419
     atom  132 type  2   force =     0.01567564    0.01718401   -0.00976880
     atom  133 type  1   force =     0.00579220   -0.00494798   -0.00593375
     atom  134 type  1   force =    -0.02043723    0.01919082    0.02003357
     atom  135 type  1   force =     0.00445365   -0.00752185   -0.00134376
     atom  136 type  1   force =    -0.00389270   -0.00537126   -0.00087812
     atom  137 type  3   force =    -0.03899441   -0.03830888   -0.05610958
     atom  138 type  3   force =    -0.00478754   -0.00134277   -0.00110435
     atom  139 type  3   force =     0.00271068   -0.00093278   -0.01012391
     atom  140 type  3   force =     0.02909008   -0.04950334   -0.06059446
     atom  141 type  4   force =     0.00624538    0.00353118    0.02108379
     atom  142 type  4   force =     0.00432574    0.00238326    0.01472878
     atom  143 type  4   force =    -0.00063431    0.00276894    0.01286723
     atom  144 type  4   force =     0.00017700    0.00225033    0.01635272
     atom  145 type  4   force =     0.00122344   -0.00062681    0.03914315
     atom  146 type  4   force =    -0.00548143   -0.00392454   -0.01733965
     atom  147 type  4   force =     0.00776489    0.00449118   -0.00288076
     atom  148 type  4   force =     0.00164754   -0.00739876    0.03548926
     atom  149 type  4   force =    -0.00931223    0.03913503    0.00096783
     atom  150 type  4   force =     0.00203372   -0.00046233    0.00792553
     atom  151 type  4   force =    -0.02994542    0.00086543    0.00766852
     atom  152 type  4   force =    -0.01348960    0.00142801   -0.00044842
     atom  153 type  4   force =     0.01210123    0.00364503   -0.00252529
     atom  154 type  4   force =    -0.00241106   -0.00268692    0.00245749
     atom  155 type  4   force =     0.00912041    0.02575028   -0.00258595
     atom  156 type  4   force =     0.03341333   -0.00619461    0.00605275
     atom  157 type  4   force =    -0.00636188   -0.00686058    0.00189434
     atom  158 type  5   force =     0.00676135    0.00684663   -0.00172755

     Total force =     0.237019     Total SCF correction =     0.002751
 
     init_run     :      7.76s CPU      8.45s WALL (       1 calls)
     electrons    :    818.15s CPU    861.60s WALL (       1 calls)
     forces       :      3.92s CPU      4.31s WALL (       1 calls)
     force_london :      0.11s CPU      0.11s WALL (       1 calls)

     Called by init_run:
     wfcinit      :      4.88s CPU      5.09s WALL (       1 calls)
     potinit      :      0.50s CPU      0.71s WALL (       1 calls)
     hinit0       :      1.30s CPU      1.41s WALL (       1 calls)

     Called by electrons:
     c_bands      :    665.31s CPU    689.65s WALL (      52 calls)
     sum_band     :     97.57s CPU    106.61s WALL (      52 calls)
     v_of_rho     :     13.06s CPU     14.87s WALL (      53 calls)
     newd         :     28.60s CPU     36.27s WALL (      53 calls)
     mix_rho      :     12.98s CPU     13.08s WALL (      52 calls)
     energy_londo :      0.10s CPU      0.10s WALL (       1 calls)

     Called by c_bands:
     init_us_2    :      1.86s CPU      1.91s WALL (     212 calls)
     init_us_2:cp :      1.85s CPU      1.91s WALL (     212 calls)
     regterg      :    651.97s CPU    675.41s WALL (     109 calls)

     Called by *egterg:
     rdiaghg      :    225.81s CPU    238.00s WALL (     568 calls)
     h_psi        :    237.98s CPU    242.88s WALL (     570 calls)
     s_psi        :     47.15s CPU     47.22s WALL (     570 calls)
     g_psi        :      0.34s CPU      0.35s WALL (     459 calls)

     Called by h_psi:
     h_psi:calbec :     58.69s CPU     62.55s WALL (     570 calls)
     vloc_psi     :    131.83s CPU    132.40s WALL (     570 calls)
     add_vuspsi   :     46.82s CPU     47.28s WALL (     570 calls)

     General routines
     calbec       :     85.44s CPU     91.11s WALL (     682 calls)
     fft          :     10.99s CPU     13.34s WALL (     967 calls)
     ffts         :      7.75s CPU      7.79s WALL (    5601 calls)
     fftw         :    145.53s CPU    146.12s WALL (  185736 calls)
     interpolate  :      1.20s CPU      1.29s WALL (     106 calls)
 
     Parallel routines
 
     PWSCF        :  13m51.84s CPU  14m40.78s WALL

 
   This run was terminated on:   0:17:32  20Nov2025            

=------------------------------------------------------------------------------=
   JOB DONE.
=------------------------------------------------------------------------------=
