
     Program PWSCF v.7.2 starts on 17Nov2025 at 22:32:45 

     This program is part of the open-source Quantum ESPRESSO suite
     for quantum simulation of materials; please cite
         "P. Giannozzi et al., J. Phys.:Condens. Matter 21 395502 (2009);
         "P. Giannozzi et al., J. Phys.:Condens. Matter 29 465901 (2017);
         "P. Giannozzi et al., J. Chem. Phys. 152 154105 (2020);
          URL http://www.quantum-espresso.org", 
     in publications or presentations arising from this work. More details at
     http://www.quantum-espresso.org/quote

     Parallel version (MPI), running on    64 processors

     MPI processes distributed on     4 nodes
     479767 MiB available memory on the printing compute node when the environment starts
 
     Reading input from PWINPUT_atm157_xm

     Current dimensions of program PWSCF are:
     Max number of different atomic species (ntypx) = 10
     Max number of k-points (npk) =  40000
     Max angular momentum in pseudopotentials (lmaxx) =  4
     Presently no symmetry can be used with electric field

     file Ni.pbe-n-rrkjus_psl.1.0.0.UPF: wavefunction(s)  3D renormalized
     file Mn.pbe-spn-rrkjus_psl.0.3.1.UPF: wavefunction(s)  3D renormalized
     file O.pbe-rrkjus.UPF: wavefunction(s)  2S renormalized
     file H.pbe-rrkjus.UPF: wavefunction(s)  1S renormalized

     gamma-point specific algorithms are used
 
     R & G space division:  proc/nbgrp/npool/nimage =      64
     Subspace diagonalization in iterative solution of the eigenvalue problem:
     one sub-group per band group will be used
     custom distributed-memory algorithm (size of sub-group:  7*  7 procs)

 
     Parallelization info
     --------------------
     sticks:   dense  smooth     PW     G-vecs:    dense   smooth      PW
     Min         207      82     20                60552    15302    1896
     Max         210      84     22                60574    15336    1950
     Sum       13325    5345   1333              3876045   980655  122653
 
     Using Slab Decomposition
 


     bravais-lattice index     =            0
     lattice parameter (alat)  =      17.4067  a.u.
     unit-cell volume          =   20529.8182 (a.u.)^3
     number of atoms/cell      =          158
     number of atomic types    =            5
     number of electrons       =      1093.00
     number of Kohn-Sham states=          656
     kinetic-energy cutoff     =      50.0000  Ry
     charge density cutoff     =     500.0000  Ry
     scf convergence threshold =      1.0E-06
     mixing beta               =       0.1000
     number of iterations used =            8  local-TF  mixing
     Exchange-correlation=  SLA  PW   PBE  PBE
                           (   1   4   3   4   0   0   0)

     celldm(1)=  17.406729  celldm(2)=   0.000000  celldm(3)=   0.000000
     celldm(4)=   0.000000  celldm(5)=   0.000000  celldm(6)=   0.000000

     crystal axes: (cart. coord. in units of alat)
               a(1) = (   1.000000   0.000000   0.000000 )  
               a(2) = (  -0.001404   1.105696   0.000000 )  
               a(3) = (   0.000000   0.000000   3.520448 )  

     reciprocal axes: (cart. coord. in units 2 pi/alat)
               b(1) = (  1.000000  0.001270  0.000000 )  
               b(2) = (  0.000000  0.904408  0.000000 )  
               b(3) = (  0.000000  0.000000  0.284055 )  


     PseudoPot. # 1 for Ni read from file:
     ~/PSEUDO/Ni.pbe-n-rrkjus_psl.1.0.0.UPF
     MD5 check sum: Not computed, couldn't open file
     Pseudo is Ultrasoft + core correction, Zval = 10.0
     Generated using "atomic" code by A. Dal Corso  v.5.1.2
     Using radial grid of 1195 points,  6 beta functions with: 
                l(1) =   0
                l(2) =   0
                l(3) =   1
                l(4) =   1
                l(5) =   2
                l(6) =   2
     Q(r) pseudized with 0 coefficients 


     PseudoPot. # 2 for Mn read from file:
     ~/PSEUDO/Mn.pbe-spn-rrkjus_psl.0.3.1.UPF
     MD5 check sum: Not computed, couldn't open file
     Pseudo is Ultrasoft + core correction, Zval = 15.0
     Generated using &quot;atomic&quot; code by A. Dal Corso  v.6.2.2
     Using radial grid of 1187 points,  6 beta functions with: 
                l(1) =   0
                l(2) =   0
                l(3) =   1
                l(4) =   1
                l(5) =   2
                l(6) =   2
     Q(r) pseudized with 0 coefficients 


     PseudoPot. # 3 for P  read from file:
     ~/PSEUDO/P.pbe-n-rrkjus_psl.1.0.0.UPF
     MD5 check sum: Not computed, couldn't open file
     Pseudo is Ultrasoft + core correction, Zval =  5.0
     Generated using "atomic" code by A. Dal Corso  v.5.1
     Using radial grid of 1147 points,  6 beta functions with: 
                l(1) =   0
                l(2) =   0
                l(3) =   1
                l(4) =   1
                l(5) =   2
                l(6) =   2
     Q(r) pseudized with 0 coefficients 


     PseudoPot. # 4 for O  read from file:
     ~/PSEUDO/O.pbe-rrkjus.UPF
     MD5 check sum: Not computed, couldn't open file
     Pseudo is Ultrasoft, Zval =  6.0
     Generated by new atomic code, or converted to UPF format
     Using radial grid of 1269 points,  4 beta functions with: 
                l(1) =   0
                l(2) =   0
                l(3) =   1
                l(4) =   1
     Q(r) pseudized with 0 coefficients 


     PseudoPot. # 5 for H  read from file:
     ~/PSEUDO/H.pbe-rrkjus.UPF
     MD5 check sum: Not computed, couldn't open file
     Pseudo is Ultrasoft, Zval =  1.0
     Generated by new atomic code, or converted to UPF format
     Using radial grid of 1061 points,  2 beta functions with: 
                l(1) =   0
                l(2) =   0
     Q(r) pseudized with 0 coefficients 


     atomic species   valence    mass     pseudopotential
     Ni               10.00    58.69300     Ni( 1.00)
     Mn               15.00    54.93800     Mn( 1.00)
     P                 5.00    30.97300     P ( 1.00)
     O                 6.00    15.99900     O ( 1.00)
     H                 1.00     1.00790     H ( 1.00)

     Starting magnetic structure 
     atomic species   magnetization
     Ni              1.000
     Mn              1.000
     P               1.000
     O               1.000
     H               0.000

     No symmetry found



   Cartesian axes

     site n.     atom                  positions (alat units)
         1        Ni     tau(   1) = (   0.2506653   0.8550566   1.7482270  )
         2        Mn     tau(   2) = (   0.4868615   0.7893541   1.4308660  )
         3        Ni     tau(   3) = (  -0.0020905   0.3037554   1.7430097  )
         4        Ni     tau(   4) = (   0.2581845   0.2397011   1.4315278  )
         5        Ni     tau(   5) = (   0.4980783   1.1004513   1.6017203  )
         6        Ni     tau(   6) = (   0.2518422   0.5462731   1.6005047  )
         7        P      tau(   7) = (   0.2086760   0.9985220   1.4334561  )
         8        P      tau(   8) = (   0.4610745   0.6542330   1.7693768  )
         9        P      tau(   9) = (   0.2852120   0.1078232   1.7622391  )
        10        P      tau(  10) = (   0.0403977   0.4405659   1.4311024  )
        11        O      tau(  11) = (   0.1336577   0.9255702   1.5727005  )
        12        O      tau(  12) = (   0.3859844   0.7230279   1.6232271  )
        13        O      tau(  13) = (   0.3640826   0.1694454   1.6133293  )
        14        O      tau(  14) = (   0.1188105   0.3688923   1.5703532  )
        15        O      tau(  15) = (   0.1503492   0.9077861   1.3047839  )
        16        O      tau(  16) = (   0.3958379   0.7487419   1.8889350  )
        17        O      tau(  17) = (   0.3469236   0.2073723   1.8785519  )
        18        O      tau(  18) = (   0.1007453   0.3527083   1.3018906  )
        19        O      tau(  19) = (   0.0999278   0.5992574   1.4366202  )
        20        O      tau(  20) = (   0.3385595   1.0523920   1.7620033  )
        21        O      tau(  21) = (   0.3744945   0.4340276   1.4450679  )
        22        O      tau(  22) = (   0.1180138   0.1150013   1.7458001  )
        23        O      tau(  23) = (   0.1304815   0.6665087   1.7470642  )
        24        O      tau(  24) = (   0.4037610   0.4941012   1.7602096  )
        25        O      tau(  25) = (   0.1493555   0.0500451   1.4360519  )
        26        O      tau(  26) = (   0.3753238   0.9895344   1.4462146  )
        27        Ni     tau(  27) = (   0.2413539   0.8509941   1.1121345  )
        28        Mn     tau(  28) = (   0.4917018   0.7787406   0.7768134  )
        29        Ni     tau(  29) = (   0.0044877   0.2932623   1.1138982  )
        30        Ni     tau(  30) = (   0.2563139   0.2275682   0.7805625  )
        31        Ni     tau(  31) = (   0.4969120   1.0949007   0.9459116  )
        32        Ni     tau(  32) = (   0.2488318   0.5341111   0.9469721  )
        33        P      tau(  33) = (   0.2076029   0.9882917   0.7835381  )
        34        P      tau(  34) = (   0.4577012   0.6460068   1.1076436  )
        35        P      tau(  35) = (   0.2881931   0.0932770   1.1104179  )
        36        P      tau(  36) = (   0.0392916   0.4238898   0.7837243  )
        37        O      tau(  37) = (   0.1306755   0.9148866   0.9233554  )
        38        O      tau(  38) = (   0.3789780   0.7172835   0.9680652  )
        39        O      tau(  39) = (   0.3654852   0.1662865   0.9702638  )
        40        O      tau(  40) = (   0.1163776   0.3546954   0.9254186  )
        41        O      tau(  41) = (   0.1502901   0.8969129   0.6541592  )
        42        O      tau(  42) = (   0.3974525   0.7354243   1.2370031  )
        43        O      tau(  43) = (   0.3483097   0.1789497   1.2412670  )
        44        O      tau(  44) = (   0.0974932   0.3376387   0.6529083  )
        45        O      tau(  45) = (   0.0984699   0.5818903   0.7881021  )
        46        O      tau(  46) = (   0.3459978   1.0405493   1.1018526  )
        47        O      tau(  47) = (   0.3731719   0.4204123   0.7945555  )
        48        O      tau(  48) = (   0.1223503   0.0989699   1.1000566  )
        49        O      tau(  49) = (   0.1235438   0.6536772   1.0980598  )
        50        O      tau(  50) = (   0.4004339   0.4872435   1.1047245  )
        51        O      tau(  51) = (   0.1476543   0.0398268   0.7872561  )
        52        O      tau(  52) = (   0.3728637   0.9843360   0.7931368  )
        53        Ni     tau(  53) = (   0.2406075   0.8410745   0.4603118  )
        54        Mn     tau(  54) = (   0.4909555   0.7688210   0.1249907  )
        55        Ni     tau(  55) = (   0.0037414   0.2833427   0.4620755  )
        56        Ni     tau(  56) = (   0.2555676   0.2176485   0.1287398  )
        57        Ni     tau(  57) = (   0.4961657   1.0849810   0.2940889  )
        58        Ni     tau(  58) = (   0.2480854   0.5241915   0.2951494  )
        59        P      tau(  59) = (   0.2068565   0.9783721   0.1317154  )
        60        P      tau(  60) = (   0.4569549   0.6360871   0.4558210  )
        61        P      tau(  61) = (   0.2874467   0.0833574   0.4585952  )
        62        P      tau(  62) = (   0.0385452   0.4139702   0.1319017  )
        63        O      tau(  63) = (   0.1299291   0.9049669   0.2715327  )
        64        O      tau(  64) = (   0.3782317   0.7073639   0.3162425  )
        65        O      tau(  65) = (   0.3647389   0.1563669   0.3184411  )
        66        O      tau(  66) = (   0.1156313   0.3447757   0.2735959  )
        67        O      tau(  67) = (   0.1495437   0.8869933   0.0023366  )
        68        O      tau(  68) = (   0.3967062   0.7255047   0.5851804  )
        69        O      tau(  69) = (   0.3475634   0.1690300   0.5894443  )
        70        O      tau(  70) = (   0.0967469   0.3277190   0.0010856  )
        71        O      tau(  71) = (   0.0977236   0.5719706   0.1362794  )
        72        O      tau(  72) = (   0.3452514   1.0306297   0.4500300  )
        73        O      tau(  73) = (   0.3724256   0.4104926   0.1427328  )
        74        O      tau(  74) = (   0.1216040   0.0890503   0.4482339  )
        75        O      tau(  75) = (   0.1227974   0.6437575   0.4462371  )
        76        O      tau(  76) = (   0.3996875   0.4773239   0.4529018  )
        77        O      tau(  77) = (   0.1469079   0.0299071   0.1354334  )
        78        O      tau(  78) = (   0.3721173   0.9744163   0.1413141  )
        79        Ni     tau(  79) = (   0.7414379   0.8631934   1.7811905  )
        80        Mn     tau(  80) = (   0.9841778   0.7888082   1.4314224  )
        81        Ni     tau(  81) = (   0.4981575   0.2996622   1.7438399  )
        82        Ni     tau(  82) = (   0.7578892   0.2404171   1.4315495  )
        83        Ni     tau(  83) = (   0.9960243   1.1035763   1.5974106  )
        84        Ni     tau(  84) = (   0.7511014   0.5491218   1.6034046  )
        85        P      tau(  85) = (   0.7087866   0.9973915   1.4351950  )
        86        P      tau(  86) = (   0.9628486   0.6621696   1.7637363  )
        87        P      tau(  87) = (   0.7871746   0.1114899   1.7616375  )
        88        P      tau(  88) = (   0.5410567   0.4395544   1.4323437  )
        89        O      tau(  89) = (   0.6354630   0.9223360   1.5730365  )
        90        O      tau(  90) = (   0.8842257   0.7257126   1.6195033  )
        91        O      tau(  91) = (   0.8650973   0.1749877   1.6118653  )
        92        O      tau(  92) = (   0.6191862   0.3687812   1.5717219  )
        93        O      tau(  93) = (   0.6506723   0.9089988   1.3043577  )
        94        O      tau(  94) = (   0.9054210   0.7593145   1.8845788  )
        95        O      tau(  95) = (   0.8458988   0.2143962   1.8769408  )
        96        O      tau(  96) = (   0.6009712   0.3522741   1.3025522  )
        97        O      tau(  97) = (   0.5994071   0.5984853   1.4384741  )
        98        O      tau(  98) = (   0.8467958   1.0589836   1.7578834  )
        99        O      tau(  99) = (   0.8740438   0.4364663   1.4443826  )
       100        O      tau( 100) = (   0.6200794   0.1160167   1.7440992  )
       101        O      tau( 101) = (   0.6282264   0.6595953   1.7561119  )
       102        O      tau( 102) = (   0.9078379   0.5006245   1.7604184  )
       103        O      tau( 103) = (   0.6500092   0.0493715   1.4390795  )
       104        O      tau( 104) = (   0.8760524   0.9898930   1.4442019  )
       105        Ni     tau( 105) = (   0.7413539   0.8509941   1.1121345  )
       106        Mn     tau( 106) = (   0.9917018   0.7787406   0.7768134  )
       107        Ni     tau( 107) = (   0.5044877   0.2932623   1.1138982  )
       108        Ni     tau( 108) = (   0.7563139   0.2275682   0.7805625  )
       109        Ni     tau( 109) = (   0.9969120   1.0949007   0.9459116  )
       110        Ni     tau( 110) = (   0.7488318   0.5341111   0.9469721  )
       111        P      tau( 111) = (   0.7076029   0.9882917   0.7835381  )
       112        P      tau( 112) = (   0.9577012   0.6460068   1.1076436  )
       113        P      tau( 113) = (   0.7881931   0.0932770   1.1104179  )
       114        P      tau( 114) = (   0.5392916   0.4238898   0.7837243  )
       115        O      tau( 115) = (   0.6306755   0.9148866   0.9233554  )
       116        O      tau( 116) = (   0.8789780   0.7172835   0.9680652  )
       117        O      tau( 117) = (   0.8654852   0.1662865   0.9702638  )
       118        O      tau( 118) = (   0.6163776   0.3546954   0.9254186  )
       119        O      tau( 119) = (   0.6502901   0.8969129   0.6541592  )
       120        O      tau( 120) = (   0.8974525   0.7354243   1.2370031  )
       121        O      tau( 121) = (   0.8483097   0.1789497   1.2412670  )
       122        O      tau( 122) = (   0.5974932   0.3376387   0.6529083  )
       123        O      tau( 123) = (   0.5984699   0.5818903   0.7881021  )
       124        O      tau( 124) = (   0.8459978   1.0405493   1.1018526  )
       125        O      tau( 125) = (   0.8731719   0.4204123   0.7945555  )
       126        O      tau( 126) = (   0.6223503   0.0989699   1.1000566  )
       127        O      tau( 127) = (   0.6235438   0.6536772   1.0980598  )
       128        O      tau( 128) = (   0.9004339   0.4872435   1.1047245  )
       129        O      tau( 129) = (   0.6476543   0.0398268   0.7872561  )
       130        O      tau( 130) = (   0.8728637   0.9843360   0.7931368  )
       131        Ni     tau( 131) = (   0.7406075   0.8410745   0.4603118  )
       132        Mn     tau( 132) = (   0.9909555   0.7688210   0.1249907  )
       133        Ni     tau( 133) = (   0.5037414   0.2833427   0.4620755  )
       134        Ni     tau( 134) = (   0.7555676   0.2176485   0.1287398  )
       135        Ni     tau( 135) = (   0.9961657   1.0849810   0.2940889  )
       136        Ni     tau( 136) = (   0.7480854   0.5241915   0.2951494  )
       137        P      tau( 137) = (   0.7068565   0.9783721   0.1317154  )
       138        P      tau( 138) = (   0.9569549   0.6360871   0.4558210  )
       139        P      tau( 139) = (   0.7874467   0.0833574   0.4585952  )
       140        P      tau( 140) = (   0.5385452   0.4139702   0.1319017  )
       141        O      tau( 141) = (   0.6299291   0.9049669   0.2715327  )
       142        O      tau( 142) = (   0.8782317   0.7073639   0.3162425  )
       143        O      tau( 143) = (   0.8647389   0.1563669   0.3184411  )
       144        O      tau( 144) = (   0.6156313   0.3447757   0.2735959  )
       145        O      tau( 145) = (   0.6495437   0.8869933   0.0023366  )
       146        O      tau( 146) = (   0.8967062   0.7255047   0.5851804  )
       147        O      tau( 147) = (   0.8475634   0.1690300   0.5894443  )
       148        O      tau( 148) = (   0.5967469   0.3277190   0.0010856  )
       149        O      tau( 149) = (   0.5977236   0.5719706   0.1362794  )
       150        O      tau( 150) = (   0.8452514   1.0306297   0.4500300  )
       151        O      tau( 151) = (   0.8724256   0.4104926   0.1427328  )
       152        O      tau( 152) = (   0.6216040   0.0890503   0.4482339  )
       153        O      tau( 153) = (   0.6227974   0.6437575   0.4462371  )
       154        O      tau( 154) = (   0.8996875   0.4773239   0.4529018  )
       155        O      tau( 155) = (   0.6469079   0.0299071   0.1354334  )
       156        O      tau( 156) = (   0.8721173   0.9744163   0.1413141  )
       157        O      tau( 157) = (   0.6195996   0.9487225   1.9111104  )
       158        H      tau( 158) = (   0.5390407   0.8844830   1.9390630  )

     -------------------------------------------------
     Parameters for Dispersion (Grimme-D2) Correction:
     -------------------------------------------------
       atom      VdW radius       C_6     

        Ni         2.952        374.666
        Mn         2.952        374.666
        P          3.222        271.980
        O          2.536         24.284
        H          1.892          4.857

     number of k points=     1  Gaussian smearing, width (Ry)=  0.0100
                       cart. coord. in units 2pi/alat
        k(    1) = (   0.0000000   0.0000000   0.0000000), wk =   1.0000000

     Dense  grid:  1938023 G-vectors     FFT dimensions: ( 125, 144, 450)

     Smooth grid:   490328 G-vectors     FFT dimensions: (  80,  90, 288)

     Estimated max dynamical RAM per process >     326.29 MB

     Estimated total dynamical RAM >      20.39 GB

     Check: negative core charge=   -0.000001
     Generating pointlists ...
     new r_m :   0.0815 (alat units)  1.4187 (a.u.) for type    1
     new r_m :   0.0905 (alat units)  1.5759 (a.u.) for type    2
     new r_m :   0.0681 (alat units)  1.1852 (a.u.) for type    3
     new r_m :   0.0440 (alat units)  0.7666 (a.u.) for type    4
     new r_m :   0.0440 (alat units)  0.7666 (a.u.) for type    5

     Initial potential from superposition of free atoms

     starting charge    1092.8893, renormalised to    1093.0000

     negative rho (up, down):  1.394E-03 4.563E-04
 
     Adding external electric field

     Computed dipole along edir(3) : 
        Dipole                1.6566 Ry au,          4.2107 Debye
        Dipole field          0.0010 Ry au, 
 
        Potential amp.       -0.1118 Ry
        Total length         55.1515 bohr
 
 
     Adding external electric field

     Computed dipole along edir(3) : 
        Dipole                1.6566 Ry au,          4.2107 Debye
        Dipole field          0.0010 Ry au, 
 
        Potential amp.       -0.1118 Ry
        Total length         55.1515 bohr
 
     Starting wfcs are  815 randomized atomic wfcs

     total cpu time spent up to now is        9.6 secs

     Self-consistent Calculation

     iteration #  1     ecut=    50.00 Ry     beta= 0.10
     Davidson diagonalization with overlap
     ethr =  1.00E-02,  avg # of iterations =  6.0

     negative rho (up, down):  3.853E-01 2.909E-06
 
     Adding external electric field

     Computed dipole along edir(3) : 
        Dipole               -3.7135 Ry au,         -9.4388 Debye
        Dipole field         -0.0023 Ry au, 
 
        Potential amp.        0.2507 Ry
        Total length         55.1515 bohr
 
 
     Adding external electric field

     Computed dipole along edir(3) : 
        Dipole               -3.7135 Ry au,         -9.4388 Debye
        Dipole field         -0.0023 Ry au, 
 
        Potential amp.        0.2507 Ry
        Total length         55.1515 bohr
 

     total cpu time spent up to now is       35.0 secs

     total energy              =   -7517.73742818 Ry
     estimated scf accuracy    <     800.33675461 Ry

     total magnetization       =   219.00 Bohr mag/cell
     absolute magnetization    =   307.98 Bohr mag/cell

     iteration #  2     ecut=    50.00 Ry     beta= 0.10
     Davidson diagonalization with overlap
     ethr =  1.00E-02,  avg # of iterations =  2.0

     negative rho (up, down):  3.644E-01 1.940E-06
 
     Adding external electric field

     Computed dipole along edir(3) : 
        Dipole               -2.4811 Ry au,         -6.3063 Debye
        Dipole field         -0.0015 Ry au, 
 
        Potential amp.        0.1675 Ry
        Total length         55.1515 bohr
 
 
     Adding external electric field

     Computed dipole along edir(3) : 
        Dipole               -2.4811 Ry au,         -6.3063 Debye
        Dipole field         -0.0015 Ry au, 
 
        Potential amp.        0.1675 Ry
        Total length         55.1515 bohr
 

     total cpu time spent up to now is       49.6 secs

     total energy              =   -7600.56567574 Ry
     estimated scf accuracy    <     218.00999402 Ry

     total magnetization       =   158.66 Bohr mag/cell
     absolute magnetization    =   207.36 Bohr mag/cell

     iteration #  3     ecut=    50.00 Ry     beta= 0.10
     Davidson diagonalization with overlap
     ethr =  1.00E-02,  avg # of iterations =  1.5

     negative rho (up, down):  3.248E-01 1.901E-06
 
     Adding external electric field

     Computed dipole along edir(3) : 
        Dipole               -2.1304 Ry au,         -5.4149 Debye
        Dipole field         -0.0013 Ry au, 
 
        Potential amp.        0.1438 Ry
        Total length         55.1515 bohr
 
 
     Adding external electric field

     Computed dipole along edir(3) : 
        Dipole               -2.1304 Ry au,         -5.4149 Debye
        Dipole field         -0.0013 Ry au, 
 
        Potential amp.        0.1438 Ry
        Total length         55.1515 bohr
 

     total cpu time spent up to now is       60.9 secs

     total energy              =   -7630.38304029 Ry
     estimated scf accuracy    <     103.55472245 Ry

     total magnetization       =   135.05 Bohr mag/cell
     absolute magnetization    =   185.94 Bohr mag/cell

     iteration #  4     ecut=    50.00 Ry     beta= 0.10
     Davidson diagonalization with overlap
     ethr =  9.47E-03,  avg # of iterations =  1.5

     negative rho (up, down):  2.548E-01 1.108E-06
 
     Adding external electric field

     Computed dipole along edir(3) : 
        Dipole               -1.9887 Ry au,         -5.0548 Debye
        Dipole field         -0.0012 Ry au, 
 
        Potential amp.        0.1343 Ry
        Total length         55.1515 bohr
 
 
     Adding external electric field

     Computed dipole along edir(3) : 
        Dipole               -1.9887 Ry au,         -5.0548 Debye
        Dipole field         -0.0012 Ry au, 
 
        Potential amp.        0.1343 Ry
        Total length         55.1515 bohr
 

     total cpu time spent up to now is       72.4 secs

     total energy              =   -7663.13051642 Ry
     estimated scf accuracy    <      82.57478132 Ry

     total magnetization       =   119.33 Bohr mag/cell
     absolute magnetization    =   171.55 Bohr mag/cell

     iteration #  5     ecut=    50.00 Ry     beta= 0.10
     Davidson diagonalization with overlap
     ethr =  7.55E-03,  avg # of iterations =  1.0

     negative rho (up, down):  3.437E-02 8.101E-07
 
     Adding external electric field

     Computed dipole along edir(3) : 
        Dipole               -1.5749 Ry au,         -4.0029 Debye
        Dipole field         -0.0010 Ry au, 
 
        Potential amp.        0.1063 Ry
        Total length         55.1515 bohr
 
 
     Adding external electric field

     Computed dipole along edir(3) : 
        Dipole               -1.5749 Ry au,         -4.0029 Debye
        Dipole field         -0.0010 Ry au, 
 
        Potential amp.        0.1063 Ry
        Total length         55.1515 bohr
 

     total cpu time spent up to now is       83.6 secs

     total energy              =   -7722.19063817 Ry
     estimated scf accuracy    <      65.95675084 Ry

     total magnetization       =    97.35 Bohr mag/cell
     absolute magnetization    =   152.83 Bohr mag/cell

     iteration #  6     ecut=    50.00 Ry     beta= 0.10
     Davidson diagonalization with overlap
     ethr =  6.03E-03,  avg # of iterations =  1.0

     negative rho (up, down):  6.074E-04 9.089E-04
 
     Adding external electric field

     Computed dipole along edir(3) : 
        Dipole               -1.2043 Ry au,         -3.0611 Debye
        Dipole field         -0.0007 Ry au, 
 
        Potential amp.        0.0813 Ry
        Total length         55.1515 bohr
 
 
     Adding external electric field

     Computed dipole along edir(3) : 
        Dipole               -1.2043 Ry au,         -3.0611 Debye
        Dipole field         -0.0007 Ry au, 
 
        Potential amp.        0.0813 Ry
        Total length         55.1515 bohr
 

     total cpu time spent up to now is       94.1 secs

     total energy              =   -7735.86344605 Ry
     estimated scf accuracy    <      15.05453598 Ry

     total magnetization       =    91.00 Bohr mag/cell
     absolute magnetization    =   125.53 Bohr mag/cell

     iteration #  7     ecut=    50.00 Ry     beta= 0.10
     Davidson diagonalization with overlap
     ethr =  1.38E-03,  avg # of iterations =  6.0

     negative rho (up, down):  5.894E-04 8.950E-04
 
     Adding external electric field

     Computed dipole along edir(3) : 
        Dipole               -1.1995 Ry au,         -3.0489 Debye
        Dipole field         -0.0007 Ry au, 
 
        Potential amp.        0.0810 Ry
        Total length         55.1515 bohr
 
 
     Adding external electric field

     Computed dipole along edir(3) : 
        Dipole               -1.1995 Ry au,         -3.0489 Debye
        Dipole field         -0.0007 Ry au, 
 
        Potential amp.        0.0810 Ry
        Total length         55.1515 bohr
 

     total cpu time spent up to now is      113.1 secs

     total energy              =   -7738.24767412 Ry
     estimated scf accuracy    <      20.09979751 Ry

     total magnetization       =    70.51 Bohr mag/cell
     absolute magnetization    =    87.96 Bohr mag/cell

     iteration #  8     ecut=    50.00 Ry     beta= 0.10
     Davidson diagonalization with overlap
     ethr =  1.38E-03,  avg # of iterations =  1.0

     negative rho (up, down):  5.686E-04 8.530E-04
 
     Adding external electric field

     Computed dipole along edir(3) : 
        Dipole               -1.1938 Ry au,         -3.0343 Debye
        Dipole field         -0.0007 Ry au, 
 
        Potential amp.        0.0806 Ry
        Total length         55.1515 bohr
 
 
     Adding external electric field

     Computed dipole along edir(3) : 
        Dipole               -1.1938 Ry au,         -3.0343 Debye
        Dipole field         -0.0007 Ry au, 
 
        Potential amp.        0.0806 Ry
        Total length         55.1515 bohr
 

     total cpu time spent up to now is      123.2 secs

     total energy              =   -7738.27224889 Ry
     estimated scf accuracy    <      19.36716812 Ry

     total magnetization       =    70.76 Bohr mag/cell
     absolute magnetization    =    87.71 Bohr mag/cell

     iteration #  9     ecut=    50.00 Ry     beta= 0.10
     Davidson diagonalization with overlap
     ethr =  1.38E-03,  avg # of iterations =  1.0

     negative rho (up, down):  6.075E-04 1.637E-03
 
     Adding external electric field

     Computed dipole along edir(3) : 
        Dipole               -1.1251 Ry au,         -2.8597 Debye
        Dipole field         -0.0007 Ry au, 
 
        Potential amp.        0.0760 Ry
        Total length         55.1515 bohr
 
 
     Adding external electric field

     Computed dipole along edir(3) : 
        Dipole               -1.1251 Ry au,         -2.8597 Debye
        Dipole field         -0.0007 Ry au, 
 
        Potential amp.        0.0760 Ry
        Total length         55.1515 bohr
 

     total cpu time spent up to now is      133.6 secs

     total energy              =   -7737.69572881 Ry
     estimated scf accuracy    <      18.73372585 Ry

     total magnetization       =    70.93 Bohr mag/cell
     absolute magnetization    =    87.51 Bohr mag/cell

     iteration # 10     ecut=    50.00 Ry     beta= 0.10
     Davidson diagonalization with overlap
     ethr =  1.38E-03,  avg # of iterations =  1.5

     negative rho (up, down):  1.281E-03 2.674E-03
 
     Adding external electric field

     Computed dipole along edir(3) : 
        Dipole               -1.1130 Ry au,         -2.8291 Debye
        Dipole field         -0.0007 Ry au, 
 
        Potential amp.        0.0751 Ry
        Total length         55.1515 bohr
 
 
     Adding external electric field

     Computed dipole along edir(3) : 
        Dipole               -1.1130 Ry au,         -2.8291 Debye
        Dipole field         -0.0007 Ry au, 
 
        Potential amp.        0.0751 Ry
        Total length         55.1515 bohr
 

     total cpu time spent up to now is      144.1 secs

     total energy              =   -7737.90321805 Ry
     estimated scf accuracy    <       6.68664813 Ry

     total magnetization       =    81.04 Bohr mag/cell
     absolute magnetization    =    93.36 Bohr mag/cell

     iteration # 11     ecut=    50.00 Ry     beta= 0.10
     Davidson diagonalization with overlap
     ethr =  6.12E-04,  avg # of iterations =  1.5

     negative rho (up, down):  7.829E-04 2.283E-03
 
     Adding external electric field

     Computed dipole along edir(3) : 
        Dipole               -1.0882 Ry au,         -2.7659 Debye
        Dipole field         -0.0007 Ry au, 
 
        Potential amp.        0.0735 Ry
        Total length         55.1515 bohr
 
 
     Adding external electric field

     Computed dipole along edir(3) : 
        Dipole               -1.0882 Ry au,         -2.7659 Debye
        Dipole field         -0.0007 Ry au, 
 
        Potential amp.        0.0735 Ry
        Total length         55.1515 bohr
 

     total cpu time spent up to now is      154.4 secs

     total energy              =   -7737.94288888 Ry
     estimated scf accuracy    <       3.59101347 Ry

     total magnetization       =    85.24 Bohr mag/cell
     absolute magnetization    =    95.87 Bohr mag/cell

     iteration # 12     ecut=    50.00 Ry     beta= 0.10
     Davidson diagonalization with overlap
     ethr =  3.29E-04,  avg # of iterations =  2.0

     negative rho (up, down):  9.901E-05 7.078E-04
 
     Adding external electric field

     Computed dipole along edir(3) : 
        Dipole               -1.0079 Ry au,         -2.5618 Debye
        Dipole field         -0.0006 Ry au, 
 
        Potential amp.        0.0680 Ry
        Total length         55.1515 bohr
 
 
     Adding external electric field

     Computed dipole along edir(3) : 
        Dipole               -1.0079 Ry au,         -2.5618 Debye
        Dipole field         -0.0006 Ry au, 
 
        Potential amp.        0.0680 Ry
        Total length         55.1515 bohr
 

     total cpu time spent up to now is      165.8 secs

     total energy              =   -7737.92985721 Ry
     estimated scf accuracy    <       4.12561914 Ry

     total magnetization       =    83.76 Bohr mag/cell
     absolute magnetization    =    94.25 Bohr mag/cell

     iteration # 13     ecut=    50.00 Ry     beta= 0.10
     Davidson diagonalization with overlap
     ethr =  3.29E-04,  avg # of iterations =  2.0

     negative rho (up, down):  8.147E-05 9.385E-04
 
     Adding external electric field

     Computed dipole along edir(3) : 
        Dipole               -1.0064 Ry au,         -2.5579 Debye
        Dipole field         -0.0006 Ry au, 
 
        Potential amp.        0.0679 Ry
        Total length         55.1515 bohr
 
 
     Adding external electric field

     Computed dipole along edir(3) : 
        Dipole               -1.0064 Ry au,         -2.5579 Debye
        Dipole field         -0.0006 Ry au, 
 
        Potential amp.        0.0679 Ry
        Total length         55.1515 bohr
 

     total cpu time spent up to now is      177.0 secs

     total energy              =   -7738.01457363 Ry
     estimated scf accuracy    <       6.46871273 Ry

     total magnetization       =    80.15 Bohr mag/cell
     absolute magnetization    =    90.31 Bohr mag/cell

     iteration # 14     ecut=    50.00 Ry     beta= 0.10
     Davidson diagonalization with overlap
     ethr =  3.29E-04,  avg # of iterations =  1.0

     negative rho (up, down):  1.080E-03 2.670E-03
 
     Adding external electric field

     Computed dipole along edir(3) : 
        Dipole               -1.0915 Ry au,         -2.7744 Debye
        Dipole field         -0.0007 Ry au, 
 
        Potential amp.        0.0737 Ry
        Total length         55.1515 bohr
 
 
     Adding external electric field

     Computed dipole along edir(3) : 
        Dipole               -1.0915 Ry au,         -2.7744 Debye
        Dipole field         -0.0007 Ry au, 
 
        Potential amp.        0.0737 Ry
        Total length         55.1515 bohr
 

     total cpu time spent up to now is      187.0 secs

     total energy              =   -7737.98574517 Ry
     estimated scf accuracy    <       6.27530528 Ry

     total magnetization       =    79.85 Bohr mag/cell
     absolute magnetization    =    89.46 Bohr mag/cell

     iteration # 15     ecut=    50.00 Ry     beta= 0.10
     Davidson diagonalization with overlap
     ethr =  3.29E-04,  avg # of iterations =  1.5

     negative rho (up, down):  9.872E-04 2.897E-03
 
     Adding external electric field

     Computed dipole along edir(3) : 
        Dipole               -1.0632 Ry au,         -2.7023 Debye
        Dipole field         -0.0007 Ry au, 
 
        Potential amp.        0.0718 Ry
        Total length         55.1515 bohr
 
 
     Adding external electric field

     Computed dipole along edir(3) : 
        Dipole               -1.0632 Ry au,         -2.7023 Debye
        Dipole field         -0.0007 Ry au, 
 
        Potential amp.        0.0718 Ry
        Total length         55.1515 bohr
 

     total cpu time spent up to now is      197.7 secs

     total energy              =   -7738.14372659 Ry
     estimated scf accuracy    <       0.54483977 Ry

     total magnetization       =    89.66 Bohr mag/cell
     absolute magnetization    =    95.82 Bohr mag/cell

     iteration # 16     ecut=    50.00 Ry     beta= 0.10
     Davidson diagonalization with overlap
     ethr =  4.98E-05,  avg # of iterations = 13.0

     negative rho (up, down):  8.335E-04 2.774E-03
 
     Adding external electric field

     Computed dipole along edir(3) : 
        Dipole               -1.0701 Ry au,         -2.7199 Debye
        Dipole field         -0.0007 Ry au, 
 
        Potential amp.        0.0722 Ry
        Total length         55.1515 bohr
 
 
     Adding external electric field

     Computed dipole along edir(3) : 
        Dipole               -1.0701 Ry au,         -2.7199 Debye
        Dipole field         -0.0007 Ry au, 
 
        Potential amp.        0.0722 Ry
        Total length         55.1515 bohr
 

     total cpu time spent up to now is      217.5 secs

     total energy              =   -7738.17950846 Ry
     estimated scf accuracy    <       0.47361811 Ry

     total magnetization       =    89.32 Bohr mag/cell
     absolute magnetization    =    94.84 Bohr mag/cell

     iteration # 17     ecut=    50.00 Ry     beta= 0.10
     Davidson diagonalization with overlap
     ethr =  4.33E-05,  avg # of iterations =  1.5

     negative rho (up, down):  4.334E-04 1.542E-03
 
     Adding external electric field

     Computed dipole along edir(3) : 
        Dipole               -1.0527 Ry au,         -2.6756 Debye
        Dipole field         -0.0006 Ry au, 
 
        Potential amp.        0.0711 Ry
        Total length         55.1515 bohr
 
 
     Adding external electric field

     Computed dipole along edir(3) : 
        Dipole               -1.0527 Ry au,         -2.6756 Debye
        Dipole field         -0.0006 Ry au, 
 
        Potential amp.        0.0711 Ry
        Total length         55.1515 bohr
 

     total cpu time spent up to now is      228.4 secs

     total energy              =   -7738.27061399 Ry
     estimated scf accuracy    <       0.50797495 Ry

     total magnetization       =    87.66 Bohr mag/cell
     absolute magnetization    =    92.25 Bohr mag/cell

     iteration # 18     ecut=    50.00 Ry     beta= 0.10
     Davidson diagonalization with overlap
     ethr =  4.33E-05,  avg # of iterations =  1.5

     negative rho (up, down):  3.203E-04 4.719E-04
 
     Adding external electric field

     Computed dipole along edir(3) : 
        Dipole               -1.0368 Ry au,         -2.6352 Debye
        Dipole field         -0.0006 Ry au, 
 
        Potential amp.        0.0700 Ry
        Total length         55.1515 bohr
 
 
     Adding external electric field

     Computed dipole along edir(3) : 
        Dipole               -1.0368 Ry au,         -2.6352 Debye
        Dipole field         -0.0006 Ry au, 
 
        Potential amp.        0.0700 Ry
        Total length         55.1515 bohr
 

     total cpu time spent up to now is      239.3 secs

     total energy              =   -7738.31485837 Ry
     estimated scf accuracy    <       0.24384539 Ry

     total magnetization       =    87.71 Bohr mag/cell
     absolute magnetization    =    90.52 Bohr mag/cell

     iteration # 19     ecut=    50.00 Ry     beta= 0.10
     Davidson diagonalization with overlap
     ethr =  2.23E-05,  avg # of iterations =  1.5

     negative rho (up, down):  4.616E-04 3.356E-04
 
     Adding external electric field

     Computed dipole along edir(3) : 
        Dipole               -1.0199 Ry au,         -2.5924 Debye
        Dipole field         -0.0006 Ry au, 
 
        Potential amp.        0.0689 Ry
        Total length         55.1515 bohr
 
 
     Adding external electric field

     Computed dipole along edir(3) : 
        Dipole               -1.0199 Ry au,         -2.5924 Debye
        Dipole field         -0.0006 Ry au, 
 
        Potential amp.        0.0689 Ry
        Total length         55.1515 bohr
 

     total cpu time spent up to now is      250.0 secs

     total energy              =   -7738.32010889 Ry
     estimated scf accuracy    <       0.11741396 Ry

     total magnetization       =    88.41 Bohr mag/cell
     absolute magnetization    =    90.57 Bohr mag/cell

     iteration # 20     ecut=    50.00 Ry     beta= 0.10
     Davidson diagonalization with overlap
     c_bands:  1 eigenvalues not converged
     ethr =  1.07E-05,  avg # of iterations = 11.0

     negative rho (up, down):  4.286E-04 3.049E-04
 
     Adding external electric field

     Computed dipole along edir(3) : 
        Dipole               -0.9804 Ry au,         -2.4919 Debye
        Dipole field         -0.0006 Ry au, 
 
        Potential amp.        0.0662 Ry
        Total length         55.1515 bohr
 
 
     Adding external electric field

     Computed dipole along edir(3) : 
        Dipole               -0.9804 Ry au,         -2.4919 Debye
        Dipole field         -0.0006 Ry au, 
 
        Potential amp.        0.0662 Ry
        Total length         55.1515 bohr
 

     total cpu time spent up to now is      269.5 secs

     total energy              =   -7738.32070735 Ry
     estimated scf accuracy    <       0.06205310 Ry

     total magnetization       =    88.80 Bohr mag/cell
     absolute magnetization    =    90.43 Bohr mag/cell

     iteration # 21     ecut=    50.00 Ry     beta= 0.10
     Davidson diagonalization with overlap
     ethr =  5.68E-06,  avg # of iterations =  2.0

     negative rho (up, down):  3.205E-04 3.076E-04
 
     Adding external electric field

     Computed dipole along edir(3) : 
        Dipole               -0.9560 Ry au,         -2.4298 Debye
        Dipole field         -0.0006 Ry au, 
 
        Potential amp.        0.0645 Ry
        Total length         55.1515 bohr
 
 
     Adding external electric field

     Computed dipole along edir(3) : 
        Dipole               -0.9560 Ry au,         -2.4298 Debye
        Dipole field         -0.0006 Ry au, 
 
        Potential amp.        0.0645 Ry
        Total length         55.1515 bohr
 

     total cpu time spent up to now is      280.9 secs

     total energy              =   -7738.32113510 Ry
     estimated scf accuracy    <       0.03968076 Ry

     total magnetization       =    88.73 Bohr mag/cell
     absolute magnetization    =    90.06 Bohr mag/cell

     iteration # 22     ecut=    50.00 Ry     beta= 0.10
     Davidson diagonalization with overlap
     ethr =  3.63E-06,  avg # of iterations =  2.0

     negative rho (up, down):  2.494E-04 2.270E-04
 
     Adding external electric field

     Computed dipole along edir(3) : 
        Dipole               -0.9384 Ry au,         -2.3851 Debye
        Dipole field         -0.0006 Ry au, 
 
        Potential amp.        0.0634 Ry
        Total length         55.1515 bohr
 
 
     Adding external electric field

     Computed dipole along edir(3) : 
        Dipole               -0.9384 Ry au,         -2.3851 Debye
        Dipole field         -0.0006 Ry au, 
 
        Potential amp.        0.0634 Ry
        Total length         55.1515 bohr
 

     total cpu time spent up to now is      292.5 secs

     total energy              =   -7738.32098931 Ry
     estimated scf accuracy    <       0.03464760 Ry

     total magnetization       =    88.71 Bohr mag/cell
     absolute magnetization    =    89.93 Bohr mag/cell

     iteration # 23     ecut=    50.00 Ry     beta= 0.10
     Davidson diagonalization with overlap
     ethr =  3.17E-06,  avg # of iterations =  1.5

     negative rho (up, down):  5.169E-05 2.487E-05
 
     Adding external electric field

     Computed dipole along edir(3) : 
        Dipole               -0.8869 Ry au,         -2.2543 Debye
        Dipole field         -0.0005 Ry au, 
 
        Potential amp.        0.0599 Ry
        Total length         55.1515 bohr
 
 
     Adding external electric field

     Computed dipole along edir(3) : 
        Dipole               -0.8869 Ry au,         -2.2543 Debye
        Dipole field         -0.0005 Ry au, 
 
        Potential amp.        0.0599 Ry
        Total length         55.1515 bohr
 

     total cpu time spent up to now is      303.4 secs

     total energy              =   -7738.31993492 Ry
     estimated scf accuracy    <       0.03022004 Ry

     total magnetization       =    88.70 Bohr mag/cell
     absolute magnetization    =    89.89 Bohr mag/cell

     iteration # 24     ecut=    50.00 Ry     beta= 0.10
     Davidson diagonalization with overlap
     c_bands:  3 eigenvalues not converged
     ethr =  2.76E-06,  avg # of iterations = 11.0

     negative rho (up, down):  9.998E-06 3.525E-06
 
     Adding external electric field

     Computed dipole along edir(3) : 
        Dipole               -0.8660 Ry au,         -2.2012 Debye
        Dipole field         -0.0005 Ry au, 
 
        Potential amp.        0.0585 Ry
        Total length         55.1515 bohr
 
 
     Adding external electric field

     Computed dipole along edir(3) : 
        Dipole               -0.8660 Ry au,         -2.2012 Debye
        Dipole field         -0.0005 Ry au, 
 
        Potential amp.        0.0585 Ry
        Total length         55.1515 bohr
 

     total cpu time spent up to now is      321.0 secs

     total energy              =   -7738.32050201 Ry
     estimated scf accuracy    <       0.02807671 Ry

     total magnetization       =    88.64 Bohr mag/cell
     absolute magnetization    =    89.84 Bohr mag/cell

     iteration # 25     ecut=    50.00 Ry     beta= 0.10
     Davidson diagonalization with overlap
     ethr =  2.57E-06,  avg # of iterations =  3.0

     negative rho (up, down):  8.794E-06 3.459E-06
 
     Adding external electric field

     Computed dipole along edir(3) : 
        Dipole               -0.8299 Ry au,         -2.1094 Debye
        Dipole field         -0.0005 Ry au, 
 
        Potential amp.        0.0560 Ry
        Total length         55.1515 bohr
 
 
     Adding external electric field

     Computed dipole along edir(3) : 
        Dipole               -0.8299 Ry au,         -2.1094 Debye
        Dipole field         -0.0005 Ry au, 
 
        Potential amp.        0.0560 Ry
        Total length         55.1515 bohr
 

     total cpu time spent up to now is      333.0 secs

     total energy              =   -7738.31989794 Ry
     estimated scf accuracy    <       0.02205861 Ry

     total magnetization       =    88.58 Bohr mag/cell
     absolute magnetization    =    89.89 Bohr mag/cell

     iteration # 26     ecut=    50.00 Ry     beta= 0.10
     Davidson diagonalization with overlap
     ethr =  2.02E-06,  avg # of iterations =  2.0

     negative rho (up, down):  1.272E-05 9.290E-06
 
     Adding external electric field

     Computed dipole along edir(3) : 
        Dipole               -0.7968 Ry au,         -2.0254 Debye
        Dipole field         -0.0005 Ry au, 
 
        Potential amp.        0.0538 Ry
        Total length         55.1515 bohr
 
 
     Adding external electric field

     Computed dipole along edir(3) : 
        Dipole               -0.7968 Ry au,         -2.0254 Debye
        Dipole field         -0.0005 Ry au, 
 
        Potential amp.        0.0538 Ry
        Total length         55.1515 bohr
 

     total cpu time spent up to now is      344.4 secs

     total energy              =   -7738.31977720 Ry
     estimated scf accuracy    <       0.02386285 Ry

     total magnetization       =    88.50 Bohr mag/cell
     absolute magnetization    =    89.86 Bohr mag/cell

     iteration # 27     ecut=    50.00 Ry     beta= 0.10
     Davidson diagonalization with overlap
     ethr =  2.02E-06,  avg # of iterations =  2.0

     negative rho (up, down):  2.473E-05 1.234E-05
 
     Adding external electric field

     Computed dipole along edir(3) : 
        Dipole               -0.7653 Ry au,         -1.9452 Debye
        Dipole field         -0.0005 Ry au, 
 
        Potential amp.        0.0517 Ry
        Total length         55.1515 bohr
 
 
     Adding external electric field

     Computed dipole along edir(3) : 
        Dipole               -0.7653 Ry au,         -1.9452 Debye
        Dipole field         -0.0005 Ry au, 
 
        Potential amp.        0.0517 Ry
        Total length         55.1515 bohr
 

     total cpu time spent up to now is      356.2 secs

     total energy              =   -7738.31892183 Ry
     estimated scf accuracy    <       0.01967429 Ry

     total magnetization       =    88.59 Bohr mag/cell
     absolute magnetization    =    89.96 Bohr mag/cell

     iteration # 28     ecut=    50.00 Ry     beta= 0.10
     Davidson diagonalization with overlap
     ethr =  1.80E-06,  avg # of iterations =  2.0

     negative rho (up, down):  1.141E-05 5.450E-06
 
     Adding external electric field

     Computed dipole along edir(3) : 
        Dipole               -0.7308 Ry au,         -1.8574 Debye
        Dipole field         -0.0004 Ry au, 
 
        Potential amp.        0.0493 Ry
        Total length         55.1515 bohr
 
 
     Adding external electric field

     Computed dipole along edir(3) : 
        Dipole               -0.7308 Ry au,         -1.8574 Debye
        Dipole field         -0.0004 Ry au, 
 
        Potential amp.        0.0493 Ry
        Total length         55.1515 bohr
 

     total cpu time spent up to now is      367.6 secs

     total energy              =   -7738.31825126 Ry
     estimated scf accuracy    <       0.01974251 Ry

     total magnetization       =    88.53 Bohr mag/cell
     absolute magnetization    =    89.95 Bohr mag/cell

     iteration # 29     ecut=    50.00 Ry     beta= 0.10
     Davidson diagonalization with overlap
     ethr =  1.80E-06,  avg # of iterations =  2.0

     negative rho (up, down):  9.335E-05 5.690E-05
 
     Adding external electric field

     Computed dipole along edir(3) : 
        Dipole               -0.7334 Ry au,         -1.8640 Debye
        Dipole field         -0.0004 Ry au, 
 
        Potential amp.        0.0495 Ry
        Total length         55.1515 bohr
 
 
     Adding external electric field

     Computed dipole along edir(3) : 
        Dipole               -0.7334 Ry au,         -1.8640 Debye
        Dipole field         -0.0004 Ry au, 
 
        Potential amp.        0.0495 Ry
        Total length         55.1515 bohr
 

     total cpu time spent up to now is      379.2 secs

     total energy              =   -7738.31843998 Ry
     estimated scf accuracy    <       0.02003362 Ry

     total magnetization       =    88.57 Bohr mag/cell
     absolute magnetization    =    90.08 Bohr mag/cell

     iteration # 30     ecut=    50.00 Ry     beta= 0.10
     Davidson diagonalization with overlap
     ethr =  1.80E-06,  avg # of iterations =  2.0

     negative rho (up, down):  1.156E-04 7.626E-05
 
     Adding external electric field

     Computed dipole along edir(3) : 
        Dipole               -0.7333 Ry au,         -1.8639 Debye
        Dipole field         -0.0004 Ry au, 
 
        Potential amp.        0.0495 Ry
        Total length         55.1515 bohr
 
 
     Adding external electric field

     Computed dipole along edir(3) : 
        Dipole               -0.7333 Ry au,         -1.8639 Debye
        Dipole field         -0.0004 Ry au, 
 
        Potential amp.        0.0495 Ry
        Total length         55.1515 bohr
 

     total cpu time spent up to now is      390.8 secs

     total energy              =   -7738.31874072 Ry
     estimated scf accuracy    <       0.01867227 Ry

     total magnetization       =    88.53 Bohr mag/cell
     absolute magnetization    =    89.98 Bohr mag/cell

     iteration # 31     ecut=    50.00 Ry     beta= 0.10
     Davidson diagonalization with overlap
     ethr =  1.71E-06,  avg # of iterations =  2.0

     negative rho (up, down):  1.407E-04 1.064E-04
 
     Adding external electric field

     Computed dipole along edir(3) : 
        Dipole               -0.7336 Ry au,         -1.8647 Debye
        Dipole field         -0.0004 Ry au, 
 
        Potential amp.        0.0495 Ry
        Total length         55.1515 bohr
 
 
     Adding external electric field

     Computed dipole along edir(3) : 
        Dipole               -0.7336 Ry au,         -1.8647 Debye
        Dipole field         -0.0004 Ry au, 
 
        Potential amp.        0.0495 Ry
        Total length         55.1515 bohr
 

     total cpu time spent up to now is      402.0 secs

     total energy              =   -7738.31891620 Ry
     estimated scf accuracy    <       0.01902275 Ry

     total magnetization       =    88.54 Bohr mag/cell
     absolute magnetization    =    89.94 Bohr mag/cell

     iteration # 32     ecut=    50.00 Ry     beta= 0.10
     Davidson diagonalization with overlap
     ethr =  1.71E-06,  avg # of iterations =  2.0

     negative rho (up, down):  1.977E-04 1.221E-04
 
     Adding external electric field

     Computed dipole along edir(3) : 
        Dipole               -0.7306 Ry au,         -1.8571 Debye
        Dipole field         -0.0004 Ry au, 
 
        Potential amp.        0.0493 Ry
        Total length         55.1515 bohr
 
 
     Adding external electric field

     Computed dipole along edir(3) : 
        Dipole               -0.7306 Ry au,         -1.8571 Debye
        Dipole field         -0.0004 Ry au, 
 
        Potential amp.        0.0493 Ry
        Total length         55.1515 bohr
 

     total cpu time spent up to now is      413.2 secs

     total energy              =   -7738.31841290 Ry
     estimated scf accuracy    <       0.01915580 Ry

     total magnetization       =    88.54 Bohr mag/cell
     absolute magnetization    =    89.93 Bohr mag/cell

     iteration # 33     ecut=    50.00 Ry     beta= 0.10
     Davidson diagonalization with overlap
     ethr =  1.71E-06,  avg # of iterations =  2.0

     negative rho (up, down):  4.229E-05 3.261E-05
 
     Adding external electric field

     Computed dipole along edir(3) : 
        Dipole               -0.7271 Ry au,         -1.8481 Debye
        Dipole field         -0.0004 Ry au, 
 
        Potential amp.        0.0491 Ry
        Total length         55.1515 bohr
 
 
     Adding external electric field

     Computed dipole along edir(3) : 
        Dipole               -0.7271 Ry au,         -1.8481 Debye
        Dipole field         -0.0004 Ry au, 
 
        Potential amp.        0.0491 Ry
        Total length         55.1515 bohr
 

     total cpu time spent up to now is      424.5 secs

     total energy              =   -7738.31904258 Ry
     estimated scf accuracy    <       0.01866618 Ry

     total magnetization       =    88.57 Bohr mag/cell
     absolute magnetization    =    89.95 Bohr mag/cell

     iteration # 34     ecut=    50.00 Ry     beta= 0.10
     Davidson diagonalization with overlap
     ethr =  1.71E-06,  avg # of iterations =  2.0

     negative rho (up, down):  4.279E-04 4.268E-04
 
     Adding external electric field

     Computed dipole along edir(3) : 
        Dipole               -0.7185 Ry au,         -1.8263 Debye
        Dipole field         -0.0004 Ry au, 
 
        Potential amp.        0.0485 Ry
        Total length         55.1515 bohr
 
 
     Adding external electric field

     Computed dipole along edir(3) : 
        Dipole               -0.7185 Ry au,         -1.8263 Debye
        Dipole field         -0.0004 Ry au, 
 
        Potential amp.        0.0485 Ry
        Total length         55.1515 bohr
 

     total cpu time spent up to now is      435.8 secs

     total energy              =   -7738.31864864 Ry
     estimated scf accuracy    <       0.01944747 Ry

     total magnetization       =    88.52 Bohr mag/cell
     absolute magnetization    =    89.88 Bohr mag/cell

     iteration # 35     ecut=    50.00 Ry     beta= 0.10
     Davidson diagonalization with overlap
     ethr =  1.71E-06,  avg # of iterations =  2.0

     negative rho (up, down):  3.036E-05 1.007E-05
 
     Adding external electric field

     Computed dipole along edir(3) : 
        Dipole               -0.7785 Ry au,         -1.9788 Debye
        Dipole field         -0.0005 Ry au, 
 
        Potential amp.        0.0526 Ry
        Total length         55.1515 bohr
 
 
     Adding external electric field

     Computed dipole along edir(3) : 
        Dipole               -0.7785 Ry au,         -1.9788 Debye
        Dipole field         -0.0005 Ry au, 
 
        Potential amp.        0.0526 Ry
        Total length         55.1515 bohr
 

     total cpu time spent up to now is      447.3 secs

     total energy              =   -7738.31866748 Ry
     estimated scf accuracy    <       0.02126598 Ry

     total magnetization       =    88.51 Bohr mag/cell
     absolute magnetization    =    89.91 Bohr mag/cell

     iteration # 36     ecut=    50.00 Ry     beta= 0.10
     Davidson diagonalization with overlap
     ethr =  1.71E-06,  avg # of iterations =  2.0

     negative rho (up, down):  3.516E-04 3.276E-04
 
     Adding external electric field

     Computed dipole along edir(3) : 
        Dipole               -0.6716 Ry au,         -1.7071 Debye
        Dipole field         -0.0004 Ry au, 
 
        Potential amp.        0.0453 Ry
        Total length         55.1515 bohr
 
 
     Adding external electric field

     Computed dipole along edir(3) : 
        Dipole               -0.6716 Ry au,         -1.7071 Debye
        Dipole field         -0.0004 Ry au, 
 
        Potential amp.        0.0453 Ry
        Total length         55.1515 bohr
 

     total cpu time spent up to now is      458.9 secs

     total energy              =   -7738.31822854 Ry
     estimated scf accuracy    <       0.02269962 Ry

     total magnetization       =    88.55 Bohr mag/cell
     absolute magnetization    =    89.87 Bohr mag/cell

     iteration # 37     ecut=    50.00 Ry     beta= 0.10
     Davidson diagonalization with overlap
     ethr =  1.71E-06,  avg # of iterations =  2.0

     negative rho (up, down):  2.885E-04 2.811E-04
 
     Adding external electric field

     Computed dipole along edir(3) : 
        Dipole               -0.6956 Ry au,         -1.7680 Debye
        Dipole field         -0.0004 Ry au, 
 
        Potential amp.        0.0470 Ry
        Total length         55.1515 bohr
 
 
     Adding external electric field

     Computed dipole along edir(3) : 
        Dipole               -0.6956 Ry au,         -1.7680 Debye
        Dipole field         -0.0004 Ry au, 
 
        Potential amp.        0.0470 Ry
        Total length         55.1515 bohr
 

     total cpu time spent up to now is      470.2 secs

     total energy              =   -7738.31876113 Ry
     estimated scf accuracy    <       0.01922563 Ry

     total magnetization       =    88.50 Bohr mag/cell
     absolute magnetization    =    89.89 Bohr mag/cell

     iteration # 38     ecut=    50.00 Ry     beta= 0.10
     Davidson diagonalization with overlap
     ethr =  1.71E-06,  avg # of iterations =  1.5

     negative rho (up, down):  2.731E-05 1.287E-05
 
     Adding external electric field

     Computed dipole along edir(3) : 
        Dipole               -0.6668 Ry au,         -1.6949 Debye
        Dipole field         -0.0004 Ry au, 
 
        Potential amp.        0.0450 Ry
        Total length         55.1515 bohr
 
 
     Adding external electric field

     Computed dipole along edir(3) : 
        Dipole               -0.6668 Ry au,         -1.6949 Debye
        Dipole field         -0.0004 Ry au, 
 
        Potential amp.        0.0450 Ry
        Total length         55.1515 bohr
 

     total cpu time spent up to now is      480.6 secs

     total energy              =   -7738.31797993 Ry
     estimated scf accuracy    <       0.01928448 Ry

     total magnetization       =    88.49 Bohr mag/cell
     absolute magnetization    =    89.90 Bohr mag/cell

     iteration # 39     ecut=    50.00 Ry     beta= 0.10
     Davidson diagonalization with overlap
     ethr =  1.71E-06,  avg # of iterations =  2.0

     negative rho (up, down):  3.583E-04 2.483E-04
 
     Adding external electric field

     Computed dipole along edir(3) : 
        Dipole               -0.6816 Ry au,         -1.7325 Debye
        Dipole field         -0.0004 Ry au, 
 
        Potential amp.        0.0460 Ry
        Total length         55.1515 bohr
 
 
     Adding external electric field

     Computed dipole along edir(3) : 
        Dipole               -0.6816 Ry au,         -1.7325 Debye
        Dipole field         -0.0004 Ry au, 
 
        Potential amp.        0.0460 Ry
        Total length         55.1515 bohr
 

     total cpu time spent up to now is      491.9 secs

     total energy              =   -7738.31749212 Ry
     estimated scf accuracy    <       0.02028080 Ry

     total magnetization       =    88.58 Bohr mag/cell
     absolute magnetization    =    90.06 Bohr mag/cell

     iteration # 40     ecut=    50.00 Ry     beta= 0.10
     Davidson diagonalization with overlap
     ethr =  1.71E-06,  avg # of iterations =  1.5

     negative rho (up, down):  3.099E-04 3.081E-04
 
     Adding external electric field

     Computed dipole along edir(3) : 
        Dipole               -0.6306 Ry au,         -1.6029 Debye
        Dipole field         -0.0004 Ry au, 
 
        Potential amp.        0.0426 Ry
        Total length         55.1515 bohr
 
 
     Adding external electric field

     Computed dipole along edir(3) : 
        Dipole               -0.6306 Ry au,         -1.6029 Debye
        Dipole field         -0.0004 Ry au, 
 
        Potential amp.        0.0426 Ry
        Total length         55.1515 bohr
 

     total cpu time spent up to now is      502.5 secs

     total energy              =   -7738.31825651 Ry
     estimated scf accuracy    <       0.01834593 Ry

     total magnetization       =    88.58 Bohr mag/cell
     absolute magnetization    =    89.93 Bohr mag/cell

     iteration # 41     ecut=    50.00 Ry     beta= 0.10
     Davidson diagonalization with overlap
     ethr =  1.68E-06,  avg # of iterations =  2.0

     negative rho (up, down):  4.556E-04 5.116E-04
 
     Adding external electric field

     Computed dipole along edir(3) : 
        Dipole               -0.6256 Ry au,         -1.5900 Debye
        Dipole field         -0.0004 Ry au, 
 
        Potential amp.        0.0422 Ry
        Total length         55.1515 bohr
 
 
     Adding external electric field

     Computed dipole along edir(3) : 
        Dipole               -0.6256 Ry au,         -1.5900 Debye
        Dipole field         -0.0004 Ry au, 
 
        Potential amp.        0.0422 Ry
        Total length         55.1515 bohr
 

     total cpu time spent up to now is      513.5 secs

     total energy              =   -7738.31816997 Ry
     estimated scf accuracy    <       0.01652064 Ry

     total magnetization       =    88.52 Bohr mag/cell
     absolute magnetization    =    89.86 Bohr mag/cell

     iteration # 42     ecut=    50.00 Ry     beta= 0.10
     Davidson diagonalization with overlap
     ethr =  1.51E-06,  avg # of iterations =  2.0

     negative rho (up, down):  7.522E-04 8.130E-04
 
     Adding external electric field

     Computed dipole along edir(3) : 
        Dipole               -0.6069 Ry au,         -1.5425 Debye
        Dipole field         -0.0004 Ry au, 
 
        Potential amp.        0.0410 Ry
        Total length         55.1515 bohr
 
 
     Adding external electric field

     Computed dipole along edir(3) : 
        Dipole               -0.6069 Ry au,         -1.5425 Debye
        Dipole field         -0.0004 Ry au, 
 
        Potential amp.        0.0410 Ry
        Total length         55.1515 bohr
 

     total cpu time spent up to now is      524.7 secs

     total energy              =   -7738.31801301 Ry
     estimated scf accuracy    <       0.01612971 Ry

     total magnetization       =    88.54 Bohr mag/cell
     absolute magnetization    =    89.85 Bohr mag/cell

     iteration # 43     ecut=    50.00 Ry     beta= 0.10
     Davidson diagonalization with overlap
     ethr =  1.48E-06,  avg # of iterations =  2.0

     negative rho (up, down):  8.994E-05 1.321E-04
 
     Adding external electric field

     Computed dipole along edir(3) : 
        Dipole               -0.6852 Ry au,         -1.7417 Debye
        Dipole field         -0.0004 Ry au, 
 
        Potential amp.        0.0463 Ry
        Total length         55.1515 bohr
 
 
     Adding external electric field

     Computed dipole along edir(3) : 
        Dipole               -0.6852 Ry au,         -1.7417 Debye
        Dipole field         -0.0004 Ry au, 
 
        Potential amp.        0.0463 Ry
        Total length         55.1515 bohr
 

     total cpu time spent up to now is      536.0 secs

     total energy              =   -7738.31842604 Ry
     estimated scf accuracy    <       0.01964708 Ry

     total magnetization       =    88.53 Bohr mag/cell
     absolute magnetization    =    89.83 Bohr mag/cell

     iteration # 44     ecut=    50.00 Ry     beta= 0.10
     Davidson diagonalization with overlap
     ethr =  1.48E-06,  avg # of iterations =  2.0

     negative rho (up, down):  5.348E-04 5.347E-04
 
     Adding external electric field

     Computed dipole along edir(3) : 
        Dipole               -0.6497 Ry au,         -1.6513 Debye
        Dipole field         -0.0004 Ry au, 
 
        Potential amp.        0.0439 Ry
        Total length         55.1515 bohr
 
 
     Adding external electric field

     Computed dipole along edir(3) : 
        Dipole               -0.6497 Ry au,         -1.6513 Debye
        Dipole field         -0.0004 Ry au, 
 
        Potential amp.        0.0439 Ry
        Total length         55.1515 bohr
 

     total cpu time spent up to now is      547.2 secs

     total energy              =   -7738.31807755 Ry
     estimated scf accuracy    <       0.01906573 Ry

     total magnetization       =    88.49 Bohr mag/cell
     absolute magnetization    =    89.81 Bohr mag/cell

     iteration # 45     ecut=    50.00 Ry     beta= 0.10
     Davidson diagonalization with overlap
     ethr =  1.48E-06,  avg # of iterations =  2.0

     negative rho (up, down):  9.702E-04 1.078E-03
 
     Adding external electric field

     Computed dipole along edir(3) : 
        Dipole               -0.6312 Ry au,         -1.6043 Debye
        Dipole field         -0.0004 Ry au, 
 
        Potential amp.        0.0426 Ry
        Total length         55.1515 bohr
 
 
     Adding external electric field

     Computed dipole along edir(3) : 
        Dipole               -0.6312 Ry au,         -1.6043 Debye
        Dipole field         -0.0004 Ry au, 
 
        Potential amp.        0.0426 Ry
        Total length         55.1515 bohr
 

     total cpu time spent up to now is      558.4 secs

     total energy              =   -7738.31826149 Ry
     estimated scf accuracy    <       0.01707477 Ry

     total magnetization       =    88.54 Bohr mag/cell
     absolute magnetization    =    89.88 Bohr mag/cell

     iteration # 46     ecut=    50.00 Ry     beta= 0.10
     Davidson diagonalization with overlap
     ethr =  1.48E-06,  avg # of iterations =  2.0

     negative rho (up, down):  1.166E-03 1.203E-03
 
     Adding external electric field

     Computed dipole along edir(3) : 
        Dipole               -0.6088 Ry au,         -1.5474 Debye
        Dipole field         -0.0004 Ry au, 
 
        Potential amp.        0.0411 Ry
        Total length         55.1515 bohr
 
 
     Adding external electric field

     Computed dipole along edir(3) : 
        Dipole               -0.6088 Ry au,         -1.5474 Debye
        Dipole field         -0.0004 Ry au, 
 
        Potential amp.        0.0411 Ry
        Total length         55.1515 bohr
 

     total cpu time spent up to now is      569.9 secs

     total energy              =   -7738.31803553 Ry
     estimated scf accuracy    <       0.01699468 Ry

     total magnetization       =    88.52 Bohr mag/cell
     absolute magnetization    =    89.90 Bohr mag/cell

     iteration # 47     ecut=    50.00 Ry     beta= 0.10
     Davidson diagonalization with overlap
     ethr =  1.48E-06,  avg # of iterations =  2.0

     negative rho (up, down):  3.642E-04 2.888E-04
 
     Adding external electric field

     Computed dipole along edir(3) : 
        Dipole               -0.6181 Ry au,         -1.5711 Debye
        Dipole field         -0.0004 Ry au, 
 
        Potential amp.        0.0417 Ry
        Total length         55.1515 bohr
 
 
     Adding external electric field

     Computed dipole along edir(3) : 
        Dipole               -0.6181 Ry au,         -1.5711 Debye
        Dipole field         -0.0004 Ry au, 
 
        Potential amp.        0.0417 Ry
        Total length         55.1515 bohr
 

     total cpu time spent up to now is      581.2 secs

     total energy              =   -7738.31788298 Ry
     estimated scf accuracy    <       0.01758549 Ry

     total magnetization       =    88.53 Bohr mag/cell
     absolute magnetization    =    89.88 Bohr mag/cell

     iteration # 48     ecut=    50.00 Ry     beta= 0.10
     Davidson diagonalization with overlap
     ethr =  1.48E-06,  avg # of iterations =  2.0

     negative rho (up, down):  5.343E-04 4.751E-04
 
     Adding external electric field

     Computed dipole along edir(3) : 
        Dipole               -0.6229 Ry au,         -1.5832 Debye
        Dipole field         -0.0004 Ry au, 
 
        Potential amp.        0.0421 Ry
        Total length         55.1515 bohr
 
 
     Adding external electric field

     Computed dipole along edir(3) : 
        Dipole               -0.6229 Ry au,         -1.5832 Debye
        Dipole field         -0.0004 Ry au, 
 
        Potential amp.        0.0421 Ry
        Total length         55.1515 bohr
 

     total cpu time spent up to now is      593.1 secs

     total energy              =   -7738.31789369 Ry
     estimated scf accuracy    <       0.01555763 Ry

     total magnetization       =    88.58 Bohr mag/cell
     absolute magnetization    =    89.92 Bohr mag/cell

     iteration # 49     ecut=    50.00 Ry     beta= 0.10
     Davidson diagonalization with overlap
     ethr =  1.42E-06,  avg # of iterations =  2.0

     negative rho (up, down):  1.215E-04 8.075E-05
 
     Adding external electric field

     Computed dipole along edir(3) : 
        Dipole               -0.6261 Ry au,         -1.5913 Debye
        Dipole field         -0.0004 Ry au, 
 
        Potential amp.        0.0423 Ry
        Total length         55.1515 bohr
 
 
     Adding external electric field

     Computed dipole along edir(3) : 
        Dipole               -0.6261 Ry au,         -1.5913 Debye
        Dipole field         -0.0004 Ry au, 
 
        Potential amp.        0.0423 Ry
        Total length         55.1515 bohr
 

     total cpu time spent up to now is      604.1 secs

     total energy              =   -7738.31804152 Ry
     estimated scf accuracy    <       0.01644720 Ry

     total magnetization       =    88.56 Bohr mag/cell
     absolute magnetization    =    89.89 Bohr mag/cell

     iteration # 50     ecut=    50.00 Ry     beta= 0.10
     Davidson diagonalization with overlap
     ethr =  1.42E-06,  avg # of iterations =  1.5

     negative rho (up, down):  3.399E-04 3.087E-04
 
     Adding external electric field

     Computed dipole along edir(3) : 
        Dipole               -0.5660 Ry au,         -1.4385 Debye
        Dipole field         -0.0003 Ry au, 
 
        Potential amp.        0.0382 Ry
        Total length         55.1515 bohr
 
 
     Adding external electric field

     Computed dipole along edir(3) : 
        Dipole               -0.5660 Ry au,         -1.4385 Debye
        Dipole field         -0.0003 Ry au, 
 
        Potential amp.        0.0382 Ry
        Total length         55.1515 bohr
 

     total cpu time spent up to now is      614.8 secs

     total energy              =   -7738.31785370 Ry
     estimated scf accuracy    <       0.01586070 Ry

     total magnetization       =    88.59 Bohr mag/cell
     absolute magnetization    =    89.97 Bohr mag/cell

     iteration # 51     ecut=    50.00 Ry     beta= 0.10
     Davidson diagonalization with overlap
     ethr =  1.42E-06,  avg # of iterations =  2.0

     negative rho (up, down):  6.192E-04 6.354E-04
 
     Adding external electric field

     Computed dipole along edir(3) : 
        Dipole               -0.5220 Ry au,         -1.3267 Debye
        Dipole field         -0.0003 Ry au, 
 
        Potential amp.        0.0352 Ry
        Total length         55.1515 bohr
 
 
     Adding external electric field

     Computed dipole along edir(3) : 
        Dipole               -0.5220 Ry au,         -1.3267 Debye
        Dipole field         -0.0003 Ry au, 
 
        Potential amp.        0.0352 Ry
        Total length         55.1515 bohr
 

     total cpu time spent up to now is      625.5 secs

     total energy              =   -7738.31773919 Ry
     estimated scf accuracy    <       0.01436421 Ry

     total magnetization       =    88.54 Bohr mag/cell
     absolute magnetization    =    89.93 Bohr mag/cell

     iteration # 52     ecut=    50.00 Ry     beta= 0.10
     Davidson diagonalization with overlap
     ethr =  1.31E-06,  avg # of iterations =  1.0

     negative rho (up, down):  7.080E-04 7.397E-04
 
     Adding external electric field

     Computed dipole along edir(3) : 
        Dipole               -0.5022 Ry au,         -1.2766 Debye
        Dipole field         -0.0003 Ry au, 
 
        Potential amp.        0.0339 Ry
        Total length         55.1515 bohr
 
 
     Adding external electric field

     Computed dipole along edir(3) : 
        Dipole               -0.5022 Ry au,         -1.2766 Debye
        Dipole field         -0.0003 Ry au, 
 
        Potential amp.        0.0339 Ry
        Total length         55.1515 bohr
 

     total cpu time spent up to now is      635.6 secs

     total energy              =   -7738.31756747 Ry
     estimated scf accuracy    <       0.01390845 Ry

     total magnetization       =    88.52 Bohr mag/cell
     absolute magnetization    =    89.91 Bohr mag/cell

     iteration # 53     ecut=    50.00 Ry     beta= 0.10
     Davidson diagonalization with overlap
     ethr =  1.27E-06,  avg # of iterations =  2.0

     negative rho (up, down):  1.667E-03 1.831E-03
 
     Adding external electric field

     Computed dipole along edir(3) : 
        Dipole               -0.4188 Ry au,         -1.0644 Debye
        Dipole field         -0.0003 Ry au, 
 
        Potential amp.        0.0283 Ry
        Total length         55.1515 bohr
 
 
     Adding external electric field

     Computed dipole along edir(3) : 
        Dipole               -0.4188 Ry au,         -1.0644 Debye
        Dipole field         -0.0003 Ry au, 
 
        Potential amp.        0.0283 Ry
        Total length         55.1515 bohr
 

     total cpu time spent up to now is      646.6 secs

     total energy              =   -7738.31690609 Ry
     estimated scf accuracy    <       0.01202575 Ry

     total magnetization       =    88.52 Bohr mag/cell
     absolute magnetization    =    89.91 Bohr mag/cell

     iteration # 54     ecut=    50.00 Ry     beta= 0.10
     Davidson diagonalization with overlap
     c_bands:  5 eigenvalues not converged
     c_bands:  2 eigenvalues not converged
     ethr =  1.10E-06,  avg # of iterations = 20.0

     negative rho (up, down):  1.274E-03 1.320E-03
 
     Adding external electric field

     Computed dipole along edir(3) : 
        Dipole               -0.4271 Ry au,         -1.0855 Debye
        Dipole field         -0.0003 Ry au, 
 
        Potential amp.        0.0288 Ry
        Total length         55.1515 bohr
 
 
     Adding external electric field

     Computed dipole along edir(3) : 
        Dipole               -0.4271 Ry au,         -1.0855 Debye
        Dipole field         -0.0003 Ry au, 
 
        Potential amp.        0.0288 Ry
        Total length         55.1515 bohr
 

     total cpu time spent up to now is      667.3 secs

     total energy              =   -7738.31667103 Ry
     estimated scf accuracy    <       0.00594407 Ry

     total magnetization       =    88.49 Bohr mag/cell
     absolute magnetization    =    89.88 Bohr mag/cell

     iteration # 55     ecut=    50.00 Ry     beta= 0.10
     Davidson diagonalization with overlap
     ethr =  5.44E-07,  avg # of iterations =  3.0

     negative rho (up, down):  1.816E-03 1.819E-03
 
     Adding external electric field

     Computed dipole along edir(3) : 
        Dipole               -0.3592 Ry au,         -0.9131 Debye
        Dipole field         -0.0002 Ry au, 
 
        Potential amp.        0.0243 Ry
        Total length         55.1515 bohr
 
 
     Adding external electric field

     Computed dipole along edir(3) : 
        Dipole               -0.3592 Ry au,         -0.9131 Debye
        Dipole field         -0.0002 Ry au, 
 
        Potential amp.        0.0243 Ry
        Total length         55.1515 bohr
 

     total cpu time spent up to now is      679.3 secs

     total energy              =   -7738.31681406 Ry
     estimated scf accuracy    <       0.00344726 Ry

     total magnetization       =    88.50 Bohr mag/cell
     absolute magnetization    =    89.92 Bohr mag/cell

     iteration # 56     ecut=    50.00 Ry     beta= 0.10
     Davidson diagonalization with overlap
     ethr =  3.15E-07,  avg # of iterations =  2.0

     negative rho (up, down):  7.445E-04 7.468E-04
 
     Adding external electric field

     Computed dipole along edir(3) : 
        Dipole               -0.3827 Ry au,         -0.9728 Debye
        Dipole field         -0.0002 Ry au, 
 
        Potential amp.        0.0258 Ry
        Total length         55.1515 bohr
 
 
     Adding external electric field

     Computed dipole along edir(3) : 
        Dipole               -0.3827 Ry au,         -0.9728 Debye
        Dipole field         -0.0002 Ry au, 
 
        Potential amp.        0.0258 Ry
        Total length         55.1515 bohr
 

     total cpu time spent up to now is      690.8 secs

     total energy              =   -7738.31687862 Ry
     estimated scf accuracy    <       0.00242408 Ry

     total magnetization       =    88.47 Bohr mag/cell
     absolute magnetization    =    89.87 Bohr mag/cell

     iteration # 57     ecut=    50.00 Ry     beta= 0.10
     Davidson diagonalization with overlap
     ethr =  2.22E-07,  avg # of iterations =  2.0

     negative rho (up, down):  1.419E-04 1.463E-04
 
     Adding external electric field

     Computed dipole along edir(3) : 
        Dipole               -0.4017 Ry au,         -1.0210 Debye
        Dipole field         -0.0002 Ry au, 
 
        Potential amp.        0.0271 Ry
        Total length         55.1515 bohr
 
 
     Adding external electric field

     Computed dipole along edir(3) : 
        Dipole               -0.4017 Ry au,         -1.0210 Debye
        Dipole field         -0.0002 Ry au, 
 
        Potential amp.        0.0271 Ry
        Total length         55.1515 bohr
 

     total cpu time spent up to now is      701.9 secs

     total energy              =   -7738.31682885 Ry
     estimated scf accuracy    <       0.00188127 Ry

     total magnetization       =    88.48 Bohr mag/cell
     absolute magnetization    =    89.87 Bohr mag/cell

     iteration # 58     ecut=    50.00 Ry     beta= 0.10
     Davidson diagonalization with overlap
     ethr =  1.72E-07,  avg # of iterations =  2.0

     negative rho (up, down):  1.964E-05 1.618E-05
 
     Adding external electric field

     Computed dipole along edir(3) : 
        Dipole               -0.4285 Ry au,         -1.0891 Debye
[...]
    -5.9799  -5.9656  -5.9159  -5.9057  -5.8842  -5.8766  -5.8740  -5.8445
    -5.8247  -5.8000  -5.7496  -5.7386  -5.7184  -5.6903  -5.6749  -5.6441
    -5.6392  -5.6300  -5.5909  -5.5750  -5.5676  -5.5589  -5.5550  -5.5310
    -5.5163  -5.5037  -5.4812  -5.4428  -5.4004  -5.3554  -5.3311  -5.3167
    -5.2948  -5.2647  -5.2332  -5.1653  -5.1499  -5.1456  -5.1322  -5.1028
    -5.0529  -5.0109  -4.9687  -4.9422  -4.8994  -4.8880  -4.8597  -4.8540
    -4.8122  -4.7947  -4.7788  -4.7423  -4.7056  -4.6882  -4.6477  -4.6036
    -4.5495  -4.4678  -4.4422  -4.4252  -4.4152  -4.4009  -4.3589  -4.3511
    -4.3019  -4.2813  -4.2548  -4.2316  -4.2027  -4.1682  -4.1163  -4.1061
    -4.0762  -4.0476  -4.0459  -4.0116  -3.9569  -3.9325  -3.9191  -3.8760
    -3.8666  -3.8187  -3.8103  -3.7983  -3.7857  -3.7465  -3.7222  -3.6937
    -3.6911  -3.6628  -3.6447  -3.5960  -3.5832  -3.5772  -3.5726  -3.5462
    -3.5419  -3.5196  -3.5013  -3.4755  -3.4574  -3.4413  -3.4263  -3.4114
    -3.4083  -3.3687  -3.3588  -3.3522  -3.3363  -3.3032  -3.2734  -3.2577
    -3.2530  -3.2091  -3.1955  -3.1803  -3.1480  -3.1152  -3.1023  -3.0807
    -3.0726  -3.0664  -3.0427  -3.0366  -3.0208  -3.0022  -2.9775  -2.9647
    -2.9285  -2.9169  -2.8949  -2.8867  -2.8677  -2.8523  -2.8127  -2.7948
    -2.7868  -2.7566  -2.7531  -2.7441  -2.7270  -2.7160  -2.7018  -2.6943
    -2.6864  -2.6764  -2.6606  -2.6462  -2.6397  -2.6074  -2.6009  -2.5960
    -2.5719  -2.5660  -2.5407  -2.5261  -2.5164  -2.4858  -2.4726  -2.4566
    -2.4439  -2.4197  -2.4085  -2.3781  -2.3573  -2.3524  -2.3191  -2.2859
    -2.2768  -2.2656  -2.2270  -2.2091  -2.1941  -2.1790  -2.1462  -2.1418
    -2.1137  -2.0866  -2.0678  -2.0624  -2.0562  -2.0414  -2.0304  -2.0215
    -1.9972  -1.9771  -1.9403  -1.9174  -1.9126  -1.9111  -1.8771  -1.8555
    -1.8413  -1.8355  -1.8242  -1.8089  -1.7879  -1.7157  -1.7082  -1.6907
    -1.6711  -1.6552  -1.6347  -1.6287  -1.6151  -1.6132  -1.5913  -1.5689
    -1.5492  -1.5288  -1.5144  -1.4885  -1.4850  -1.4540  -1.4355  -1.4279
    -1.3986  -1.3960  -1.3810  -1.3753  -1.3574  -1.3479  -1.3045  -1.2616
    -1.2342  -1.2091  -1.1696  -1.1492  -1.1361  -1.1320  -1.0925  -1.0521
    -1.0392  -0.9954  -0.9294  -0.8371  -0.7348  -0.7295  -0.6086  -0.5536
    -0.5234  -0.5095  -0.3571  -0.1969   0.1779   0.2195   0.2418   0.2467
     0.2987   0.3106   0.3140   0.3203   0.3295   0.3487   0.3584   0.3684
     0.3749   0.3887   0.3962   0.4024   0.4049   0.4140   0.4186   0.4261
     0.4324   0.4402   0.4621   0.4654   0.4752   0.4829   0.4903   0.4910
     0.4955   0.5016   0.5092   0.5163   0.5250   0.5327   0.5356   0.5427
     0.5446   0.5631   0.5666   0.5747   0.5837   0.5993   0.6028   0.6178
     0.6228   0.6243   0.6409   0.6476   0.6526   0.6618   0.6658   0.6777
     0.6838   0.6916   0.7000   0.7023   0.7122   0.7302   0.7319   0.7422
     0.7473   0.7581   0.7666   0.7685   0.7764   0.7912   0.8001   0.8107
     0.8124   0.8222   0.8386   0.8553   0.8659   0.8665   0.8690   0.8747
     0.8823   0.8887   0.9064   0.9091   0.9179   0.9521   0.9854   0.9953
     1.0199   1.0499   1.0880   1.1116   1.1224   1.6723   1.7349   1.7472
     1.7686   1.7898   1.8000   1.8151   1.8283   1.8420   1.9039   1.9191
     1.9387   1.9665   1.9898   2.0092   2.0428   2.0450   2.0956   2.1071
     2.1311   2.1430   2.1450   2.1794   2.1901   2.1956   2.2059   2.2338
     2.2674   2.2759   2.2961   2.3002   2.3126   2.3220   2.3313   2.3498
     2.3716   2.3746   2.3887   2.3917   2.4157   2.4193   2.4311   2.4934
     2.5017   2.5293   2.5351   2.5392   2.5524   2.5676   2.5879   2.5972
     2.6222   2.6806   2.7053   2.7200   2.7421   2.8013   2.8037   2.8639
     2.8748   2.9514   3.6517   3.7072   3.7206   3.7475   3.7831   3.7975
     3.8452   3.9037   3.9270   3.9488   3.9592   3.9816   3.9998   4.0051
     4.0530   4.0587   4.1431   4.1466   4.1561   4.1781   4.6494   4.6630
     4.7699   4.8134   4.8600   4.8953   4.9177   4.9611   5.0378   5.0944
     5.1132   5.1449   5.4265   6.2436   6.3738   6.6115   6.6603   6.7520
     6.8467   6.8657   6.8900   6.9660   6.9887   7.0678   7.1187   7.1305
     7.2705   7.3512   7.3567   7.4202   7.4806   7.5410   7.5741   7.6298
     7.6579   7.6673   7.7439   7.7689   7.8030   7.8631   7.8938   7.9690
     8.0015   8.0497   8.0537   8.0915   8.1078   8.1648   8.1816   8.2132
     8.2456   8.2851   8.3037   8.3321   8.4040   8.4293   8.4312   8.4528
     8.4587   8.4790   8.4987   8.5399   8.5551   8.5738   8.5983   8.6224
     8.6699   8.7074   8.7254   8.7582   8.7723   8.7852   8.8411   8.8475

     the Fermi energy is     1.6596 ev

!    total energy              =   -7738.31714533 Ry
     estimated scf accuracy    <       0.00000075 Ry
     smearing contrib. (-TS)   =      -0.02291000 Ry
     internal energy E=F+TS    =   -7738.29423533 Ry

     The total energy is F=E-TS. E is the sum of the following terms:
     one-electron contribution =  -94545.09815647 Ry
     hartree contribution      =   47889.71885004 Ry
     xc contribution           =   -2218.68797972 Ry
     ewald contribution        =   41137.57799284 Ry
     Dispersion Correction     =      -1.80500184 Ry
     electric field correction =       0.00005982 Ry

     total magnetization       =    88.46 Bohr mag/cell
     absolute magnetization    =    89.84 Bohr mag/cell

     convergence has been achieved in  73 iterations

     negative rho (up, down):  1.051E-03 5.880E-04

     Forces acting on atoms (cartesian axes, Ry/au):

     atom    1 type  1   force =    -0.00011531   -0.00037121    0.00009746
     atom    2 type  2   force =    -0.00028110    0.00038501    0.00015670
     atom    3 type  1   force =     0.00011491    0.00020452    0.00017237
     atom    4 type  1   force =    -0.00042624    0.00094248   -0.00041544
     atom    5 type  1   force =    -0.00027816    0.00067418   -0.00002228
     atom    6 type  1   force =     0.00059539    0.00060834   -0.00079121
     atom    7 type  3   force =     0.00024715    0.00036595   -0.00036851
     atom    8 type  3   force =     0.00031632    0.00064397   -0.00034526
     atom    9 type  3   force =    -0.00001365    0.00053746   -0.00002623
     atom   10 type  3   force =    -0.00101103    0.00030321    0.00017975
     atom   11 type  4   force =     0.00038386    0.00038110   -0.00049579
     atom   12 type  4   force =    -0.00046377    0.00044620   -0.00063462
     atom   13 type  4   force =     0.00027918    0.00004495   -0.00025141
     atom   14 type  4   force =    -0.00042494    0.00032205   -0.00034466
     atom   15 type  4   force =    -0.00036453    0.00052031   -0.00002311
     atom   16 type  4   force =    -0.00035520   -0.00019299   -0.00069403
     atom   17 type  4   force =    -0.00003604    0.00031838   -0.00005568
     atom   18 type  4   force =     0.00034860    0.00025790    0.00008805
     atom   19 type  4   force =     0.00042274   -0.00026097   -0.00057758
     atom   20 type  4   force =    -0.00026819    0.00026985   -0.00000573
     atom   21 type  4   force =    -0.00029884    0.00023587    0.00030805
     atom   22 type  4   force =     0.00062260    0.00025110    0.00039280
     atom   23 type  4   force =    -0.00033055    0.00026357    0.00019290
     atom   24 type  4   force =     0.00026144    0.00038343    0.00021954
     atom   25 type  4   force =    -0.00093026    0.00026067   -0.00062362
     atom   26 type  4   force =     0.00019298    0.00021733    0.00057009
     atom   27 type  1   force =    -0.00647988   -0.00898102   -0.00260118
     atom   28 type  2   force =    -0.01207344    0.00000118   -0.00158764
     atom   29 type  1   force =     0.00336759   -0.00455226   -0.00021574
     atom   30 type  1   force =     0.00229439    0.00403561   -0.00158991
     atom   31 type  1   force =     0.00198167   -0.00481966   -0.00015694
     atom   32 type  1   force =    -0.00129652    0.00114368    0.00200029
     atom   33 type  3   force =    -0.00717430   -0.00078984   -0.00044200
     atom   34 type  3   force =    -0.00574083    0.00370794   -0.00125678
     atom   35 type  3   force =     0.00353730   -0.00144932   -0.00453483
     atom   36 type  3   force =     0.00105203   -0.00121256    0.00289427
     atom   37 type  4   force =     0.00882206    0.00525226   -0.00759336
     atom   38 type  4   force =     0.00373768   -0.00109522    0.02016135
     atom   39 type  4   force =    -0.00146571    0.00385169    0.01078123
     atom   40 type  4   force =    -0.00160444   -0.00230357   -0.00890349
     atom   41 type  4   force =     0.00208965    0.00851585    0.00646213
     atom   42 type  4   force =    -0.00450049   -0.00349393   -0.01683307
     atom   43 type  4   force =     0.01052621    0.00503857   -0.00762301
     atom   44 type  4   force =     0.00728856   -0.00308361    0.00598659
     atom   45 type  4   force =     0.00231935    0.00586192   -0.00067462
     atom   46 type  4   force =     0.00257455    0.00067806    0.00602521
     atom   47 type  4   force =    -0.01329885    0.00021897    0.00333349
     atom   48 type  4   force =    -0.01409375    0.00207152   -0.00314014
     atom   49 type  4   force =     0.01299936    0.00232967   -0.00478767
     atom   50 type  4   force =    -0.00345791   -0.00474671    0.00055536
     atom   51 type  4   force =    -0.00433640    0.00274071   -0.00071047
     atom   52 type  4   force =     0.01642786   -0.00322041    0.00421069
     atom   53 type  1   force =    -0.00759315   -0.00714812   -0.00847410
     atom   54 type  2   force =     0.01584259    0.01726231   -0.00984495
     atom   55 type  1   force =     0.00582091   -0.00473648   -0.00586588
     atom   56 type  1   force =    -0.02062280    0.01937411    0.01984249
     atom   57 type  1   force =     0.00446028   -0.00762137   -0.00163114
     atom   58 type  1   force =    -0.00390514   -0.00535677   -0.00099653
     atom   59 type  3   force =    -0.03903227   -0.03835433   -0.05607928
     atom   60 type  3   force =    -0.00495566   -0.00126693   -0.00119318
     atom   61 type  3   force =     0.00273016   -0.00101368   -0.01015014
     atom   62 type  3   force =     0.02910702   -0.04951316   -0.06061591
     atom   63 type  4   force =     0.00624531    0.00346763    0.02100890
     atom   64 type  4   force =     0.00449340    0.00232537    0.01451876
     atom   65 type  4   force =    -0.00063796    0.00297173    0.01266389
     atom   66 type  4   force =     0.00016715    0.00210941    0.01622749
     atom   67 type  4   force =     0.00106167   -0.00066118    0.03900424
     atom   68 type  4   force =    -0.00571157   -0.00392452   -0.01716439
     atom   69 type  4   force =     0.00784718    0.00453380   -0.00255368
     atom   70 type  4   force =     0.00176855   -0.00739528    0.03529917
     atom   71 type  4   force =    -0.00907163    0.03921172    0.00092480
     atom   72 type  4   force =     0.00233039   -0.00054850    0.00792184
     atom   73 type  4   force =    -0.03015108    0.00088632    0.00761728
     atom   74 type  4   force =    -0.01358953    0.00143186   -0.00043653
     atom   75 type  4   force =     0.01197541    0.00348394   -0.00253120
     atom   76 type  4   force =    -0.00240411   -0.00293869    0.00256194
     atom   77 type  4   force =     0.00913320    0.02584754   -0.00259215
     atom   78 type  4   force =     0.03358535   -0.00637828    0.00615643
     atom   79 type  1   force =    -0.00307168    0.00113826    0.00253900
     atom   80 type  2   force =    -0.00002627    0.00026796    0.00004052
     atom   81 type  1   force =     0.00055481    0.00012851    0.00002808
     atom   82 type  1   force =    -0.00007136    0.00108333   -0.00016195
     atom   83 type  1   force =    -0.00074207    0.00080183    0.00043127
     atom   84 type  1   force =     0.00033367    0.00012527   -0.00045710
     atom   85 type  3   force =     0.00015553    0.00041171   -0.00014733
     atom   86 type  3   force =     0.00004360   -0.00012929   -0.00092682
     atom   87 type  3   force =    -0.00050565    0.00053775   -0.00010589
     atom   88 type  3   force =    -0.00080482    0.00086362    0.00025611
     atom   89 type  4   force =    -0.00007525    0.00068084   -0.00044930
     atom   90 type  4   force =    -0.00049140    0.00015109   -0.00028127
     atom   91 type  4   force =     0.00065005   -0.00060080    0.00030413
     atom   92 type  4   force =    -0.00059574    0.00034677   -0.00044328
     atom   93 type  4   force =    -0.00007835    0.00038400    0.00004448
     atom   94 type  4   force =    -0.00015888    0.00038403   -0.00017577
     atom   95 type  4   force =     0.00005302   -0.00032646   -0.00033506
     atom   96 type  4   force =     0.00018429    0.00032593   -0.00042673
     atom   97 type  4   force =     0.00015794   -0.00026614   -0.00021577
     atom   98 type  4   force =    -0.00011874    0.00048163    0.00004673
     atom   99 type  4   force =    -0.00015764    0.00011540    0.00066707
     atom  100 type  4   force =    -0.00039017    0.00028375   -0.00002063
     atom  101 type  4   force =    -0.00045026    0.00027502    0.00004236
     atom  102 type  4   force =     0.00006565    0.00048606    0.00037065
     atom  103 type  4   force =    -0.00046720    0.00022955   -0.00048370
     atom  104 type  4   force =     0.00046104    0.00023246   -0.00006866
     atom  105 type  1   force =    -0.00662849   -0.00749119   -0.00166731
     atom  106 type  2   force =    -0.01229594   -0.00019502   -0.00139613
     atom  107 type  1   force =     0.00387686   -0.00435387    0.00038668
     atom  108 type  1   force =     0.00242515    0.00410126   -0.00148464
     atom  109 type  1   force =     0.00155498   -0.00480708    0.00000947
     atom  110 type  1   force =    -0.00100744    0.00132180    0.00209570
     atom  111 type  3   force =    -0.00698275   -0.00092351    0.00008358
     atom  112 type  3   force =    -0.00674613    0.00425338   -0.00245937
     atom  113 type  3   force =     0.00390917   -0.00300768   -0.00325761
     atom  114 type  3   force =     0.00118344   -0.00123848    0.00291355
     atom  115 type  4   force =     0.00862909    0.00509482   -0.00782309
     atom  116 type  4   force =     0.00466316   -0.00229479    0.01990417
     atom  117 type  4   force =    -0.00111936    0.00413746    0.01042506
     atom  118 type  4   force =    -0.00162774   -0.00247181   -0.00895539
     atom  119 type  4   force =     0.00198469    0.00830046    0.00610792
     atom  120 type  4   force =    -0.00461166   -0.00386091   -0.01891801
     atom  121 type  4   force =     0.00989296    0.00541450   -0.00693201
     atom  122 type  4   force =     0.00707564   -0.00305744    0.00596735
     atom  123 type  4   force =     0.00207699    0.00593213   -0.00062427
     atom  124 type  4   force =     0.00294649    0.00173509    0.00506662
     atom  125 type  4   force =    -0.01311984    0.00016819    0.00325593
     atom  126 type  4   force =    -0.01471060    0.00244499   -0.00305450
     atom  127 type  4   force =     0.01240550    0.00191436   -0.00475445
     atom  128 type  4   force =    -0.00366630   -0.00455606    0.00042177
     atom  129 type  4   force =    -0.00446288    0.00278606   -0.00061819
     atom  130 type  4   force =     0.01646707   -0.00325438    0.00399947
     atom  131 type  1   force =    -0.00744419   -0.00725453   -0.00850235
     atom  132 type  2   force =     0.01586915    0.01727684   -0.00986786
     atom  133 type  1   force =     0.00581481   -0.00474439   -0.00589174
     atom  134 type  1   force =    -0.02064578    0.01937239    0.01983332
     atom  135 type  1   force =     0.00450051   -0.00762478   -0.00160390
     atom  136 type  1   force =    -0.00392128   -0.00538367   -0.00101219
     atom  137 type  3   force =    -0.03899153   -0.03829973   -0.05613315
     atom  138 type  3   force =    -0.00478541   -0.00134219   -0.00113758
     atom  139 type  3   force =     0.00271400   -0.00092941   -0.01015820
     atom  140 type  3   force =     0.02908551   -0.04951123   -0.06062195
     atom  141 type  4   force =     0.00619115    0.00346435    0.02113677
     atom  142 type  4   force =     0.00427182    0.00243189    0.01461598
     atom  143 type  4   force =    -0.00057621    0.00285947    0.01272314
     atom  144 type  4   force =     0.00021827    0.00220036    0.01643439
     atom  145 type  4   force =     0.00119824   -0.00066406    0.03904016
     atom  146 type  4   force =    -0.00553146   -0.00388272   -0.01724703
     atom  147 type  4   force =     0.00783820    0.00457248   -0.00274533
     atom  148 type  4   force =     0.00166390   -0.00743594    0.03535681
     atom  149 type  4   force =    -0.00926938    0.03920992    0.00092466
     atom  150 type  4   force =     0.00211995   -0.00063238    0.00793315
     atom  151 type  4   force =    -0.03005269    0.00088976    0.00762532
     atom  152 type  4   force =    -0.01368446    0.00142025   -0.00044194
     atom  153 type  4   force =     0.01223953    0.00363182   -0.00252751
     atom  154 type  4   force =    -0.00246236   -0.00279960    0.00246582
     atom  155 type  4   force =     0.00903959    0.02585038   -0.00264855
     atom  156 type  4   force =     0.03353720   -0.00618467    0.00600004
     atom  157 type  4   force =     0.01367988    0.00623383   -0.00644508
     atom  158 type  5   force =    -0.00975989   -0.00698946    0.00405090

     Total force =     0.237717     Total SCF correction =     0.003393
 
     init_run     :      6.96s CPU      7.56s WALL (       1 calls)
     electrons    :    841.00s CPU    879.60s WALL (       1 calls)
     forces       :      3.63s CPU      3.96s WALL (       1 calls)
     force_london :      0.09s CPU      0.09s WALL (       1 calls)

     Called by init_run:
     wfcinit      :      4.13s CPU      4.27s WALL (       1 calls)
     potinit      :      0.50s CPU      0.71s WALL (       1 calls)
     hinit0       :      1.20s CPU      1.27s WALL (       1 calls)

     Called by electrons:
     c_bands      :    660.38s CPU    680.56s WALL (      73 calls)
     sum_band     :    113.92s CPU    123.88s WALL (      73 calls)
     v_of_rho     :     15.40s CPU     16.45s WALL (      74 calls)
     newd         :     34.13s CPU     41.66s WALL (      74 calls)
     mix_rho      :     16.49s CPU     16.58s WALL (      73 calls)
     energy_londo :      0.08s CPU      0.08s WALL (       1 calls)

     Called by c_bands:
     init_us_2    :      1.71s CPU      1.78s WALL (     296 calls)
     init_us_2:cp :      1.71s CPU      1.78s WALL (     296 calls)
     regterg      :    646.62s CPU    666.65s WALL (     146 calls)

     Called by *egterg:
     rdiaghg      :    182.63s CPU    192.45s WALL (     538 calls)
     h_psi        :    247.70s CPU    252.37s WALL (     540 calls)
     s_psi        :     42.43s CPU     42.47s WALL (     540 calls)
     g_psi        :      0.31s CPU      0.31s WALL (     392 calls)

     Called by h_psi:
     h_psi:calbec :     65.24s CPU     69.01s WALL (     540 calls)
     vloc_psi     :    137.60s CPU    138.10s WALL (     540 calls)
     add_vuspsi   :     44.33s CPU     44.72s WALL (     540 calls)

     General routines
     calbec       :     97.27s CPU    103.01s WALL (     694 calls)
     fft          :     18.45s CPU     19.89s WALL (    1345 calls)
     ffts         :     10.69s CPU     10.71s WALL (    9077 calls)
     fftw         :    158.42s CPU    158.97s WALL (  246866 calls)
     interpolate  :      1.41s CPU      1.49s WALL (     148 calls)
 
     Parallel routines
 
     PWSCF        :  14m13.53s CPU  14m53.35s WALL

 
   This run was terminated on:  22:47:38  17Nov2025            

=------------------------------------------------------------------------------=
   JOB DONE.
=------------------------------------------------------------------------------=
