
     Program PWSCF v.7.2 starts on 19Nov2025 at 20:48:32 

     This program is part of the open-source Quantum ESPRESSO suite
     for quantum simulation of materials; please cite
         "P. Giannozzi et al., J. Phys.:Condens. Matter 21 395502 (2009);
         "P. Giannozzi et al., J. Phys.:Condens. Matter 29 465901 (2017);
         "P. Giannozzi et al., J. Chem. Phys. 152 154105 (2020);
          URL http://www.quantum-espresso.org", 
     in publications or presentations arising from this work. More details at
     http://www.quantum-espresso.org/quote

     Parallel version (MPI), running on    64 processors

     MPI processes distributed on     4 nodes
     368673 MiB available memory on the printing compute node when the environment starts
 
     Reading input from PWINPUT_atm158_zm

     Current dimensions of program PWSCF are:
     Max number of different atomic species (ntypx) = 10
     Max number of k-points (npk) =  40000
     Max angular momentum in pseudopotentials (lmaxx) =  4
     Presently no symmetry can be used with electric field

     file Ni.pbe-n-rrkjus_psl.1.0.0.UPF: wavefunction(s)  3D renormalized
     file Mn.pbe-spn-rrkjus_psl.0.3.1.UPF: wavefunction(s)  3D renormalized
     file O.pbe-rrkjus.UPF: wavefunction(s)  2S renormalized
     file H.pbe-rrkjus.UPF: wavefunction(s)  1S renormalized

     gamma-point specific algorithms are used
 
     R & G space division:  proc/nbgrp/npool/nimage =      64
     Subspace diagonalization in iterative solution of the eigenvalue problem:
     one sub-group per band group will be used
     custom distributed-memory algorithm (size of sub-group:  7*  7 procs)

 
     Parallelization info
     --------------------
     sticks:   dense  smooth     PW     G-vecs:    dense   smooth      PW
     Min         207      82     20                60552    15302    1896
     Max         210      84     22                60574    15336    1950
     Sum       13325    5345   1333              3876045   980655  122653
 
     Using Slab Decomposition
 


     bravais-lattice index     =            0
     lattice parameter (alat)  =      17.4067  a.u.
     unit-cell volume          =   20529.8182 (a.u.)^3
     number of atoms/cell      =          158
     number of atomic types    =            5
     number of electrons       =      1093.00
     number of Kohn-Sham states=          656
     kinetic-energy cutoff     =      50.0000  Ry
     charge density cutoff     =     500.0000  Ry
     scf convergence threshold =      1.0E-06
     mixing beta               =       0.1000
     number of iterations used =            8  local-TF  mixing
     Exchange-correlation=  SLA  PW   PBE  PBE
                           (   1   4   3   4   0   0   0)

     celldm(1)=  17.406729  celldm(2)=   0.000000  celldm(3)=   0.000000
     celldm(4)=   0.000000  celldm(5)=   0.000000  celldm(6)=   0.000000

     crystal axes: (cart. coord. in units of alat)
               a(1) = (   1.000000   0.000000   0.000000 )  
               a(2) = (  -0.001404   1.105696   0.000000 )  
               a(3) = (   0.000000   0.000000   3.520448 )  

     reciprocal axes: (cart. coord. in units 2 pi/alat)
               b(1) = (  1.000000  0.001270  0.000000 )  
               b(2) = (  0.000000  0.904408  0.000000 )  
               b(3) = (  0.000000  0.000000  0.284055 )  


     PseudoPot. # 1 for Ni read from file:
     ~/PSEUDO/Ni.pbe-n-rrkjus_psl.1.0.0.UPF
     MD5 check sum: Not computed, couldn't open file
     Pseudo is Ultrasoft + core correction, Zval = 10.0
     Generated using "atomic" code by A. Dal Corso  v.5.1.2
     Using radial grid of 1195 points,  6 beta functions with: 
                l(1) =   0
                l(2) =   0
                l(3) =   1
                l(4) =   1
                l(5) =   2
                l(6) =   2
     Q(r) pseudized with 0 coefficients 


     PseudoPot. # 2 for Mn read from file:
     ~/PSEUDO/Mn.pbe-spn-rrkjus_psl.0.3.1.UPF
     MD5 check sum: Not computed, couldn't open file
     Pseudo is Ultrasoft + core correction, Zval = 15.0
     Generated using &quot;atomic&quot; code by A. Dal Corso  v.6.2.2
     Using radial grid of 1187 points,  6 beta functions with: 
                l(1) =   0
                l(2) =   0
                l(3) =   1
                l(4) =   1
                l(5) =   2
                l(6) =   2
     Q(r) pseudized with 0 coefficients 


     PseudoPot. # 3 for P  read from file:
     ~/PSEUDO/P.pbe-n-rrkjus_psl.1.0.0.UPF
     MD5 check sum: Not computed, couldn't open file
     Pseudo is Ultrasoft + core correction, Zval =  5.0
     Generated using "atomic" code by A. Dal Corso  v.5.1
     Using radial grid of 1147 points,  6 beta functions with: 
                l(1) =   0
                l(2) =   0
                l(3) =   1
                l(4) =   1
                l(5) =   2
                l(6) =   2
     Q(r) pseudized with 0 coefficients 


     PseudoPot. # 4 for O  read from file:
     ~/PSEUDO/O.pbe-rrkjus.UPF
     MD5 check sum: Not computed, couldn't open file
     Pseudo is Ultrasoft, Zval =  6.0
     Generated by new atomic code, or converted to UPF format
     Using radial grid of 1269 points,  4 beta functions with: 
                l(1) =   0
                l(2) =   0
                l(3) =   1
                l(4) =   1
     Q(r) pseudized with 0 coefficients 


     PseudoPot. # 5 for H  read from file:
     ~/PSEUDO/H.pbe-rrkjus.UPF
     MD5 check sum: Not computed, couldn't open file
     Pseudo is Ultrasoft, Zval =  1.0
     Generated by new atomic code, or converted to UPF format
     Using radial grid of 1061 points,  2 beta functions with: 
                l(1) =   0
                l(2) =   0
     Q(r) pseudized with 0 coefficients 


     atomic species   valence    mass     pseudopotential
     Ni               10.00    58.69300     Ni( 1.00)
     Mn               15.00    54.93800     Mn( 1.00)
     P                 5.00    30.97300     P ( 1.00)
     O                 6.00    15.99900     O ( 1.00)
     H                 1.00     1.00790     H ( 1.00)

     Starting magnetic structure 
     atomic species   magnetization
     Ni              1.000
     Mn              1.000
     P               1.000
     O               1.000
     H               0.000

     No symmetry found



   Cartesian axes

     site n.     atom                  positions (alat units)
         1        Ni     tau(   1) = (   0.2506653   0.8550566   1.7482270  )
         2        Mn     tau(   2) = (   0.4868615   0.7893541   1.4308660  )
         3        Ni     tau(   3) = (  -0.0020905   0.3037554   1.7430097  )
         4        Ni     tau(   4) = (   0.2581845   0.2397011   1.4315278  )
         5        Ni     tau(   5) = (   0.4980783   1.1004513   1.6017203  )
         6        Ni     tau(   6) = (   0.2518422   0.5462731   1.6005047  )
         7        P      tau(   7) = (   0.2086760   0.9985220   1.4334561  )
         8        P      tau(   8) = (   0.4610745   0.6542330   1.7693768  )
         9        P      tau(   9) = (   0.2852120   0.1078232   1.7622391  )
        10        P      tau(  10) = (   0.0403977   0.4405659   1.4311024  )
        11        O      tau(  11) = (   0.1336577   0.9255702   1.5727005  )
        12        O      tau(  12) = (   0.3859844   0.7230279   1.6232271  )
        13        O      tau(  13) = (   0.3640826   0.1694454   1.6133293  )
        14        O      tau(  14) = (   0.1188105   0.3688923   1.5703532  )
        15        O      tau(  15) = (   0.1503492   0.9077861   1.3047839  )
        16        O      tau(  16) = (   0.3958379   0.7487419   1.8889350  )
        17        O      tau(  17) = (   0.3469236   0.2073723   1.8785519  )
        18        O      tau(  18) = (   0.1007453   0.3527083   1.3018906  )
        19        O      tau(  19) = (   0.0999278   0.5992574   1.4366202  )
        20        O      tau(  20) = (   0.3385595   1.0523920   1.7620033  )
        21        O      tau(  21) = (   0.3744945   0.4340276   1.4450679  )
        22        O      tau(  22) = (   0.1180138   0.1150013   1.7458001  )
        23        O      tau(  23) = (   0.1304815   0.6665087   1.7470642  )
        24        O      tau(  24) = (   0.4037610   0.4941012   1.7602096  )
        25        O      tau(  25) = (   0.1493555   0.0500451   1.4360519  )
        26        O      tau(  26) = (   0.3753238   0.9895344   1.4462146  )
        27        Ni     tau(  27) = (   0.2413539   0.8509941   1.1121345  )
        28        Mn     tau(  28) = (   0.4917018   0.7787406   0.7768134  )
        29        Ni     tau(  29) = (   0.0044877   0.2932623   1.1138982  )
        30        Ni     tau(  30) = (   0.2563139   0.2275682   0.7805625  )
        31        Ni     tau(  31) = (   0.4969120   1.0949007   0.9459116  )
        32        Ni     tau(  32) = (   0.2488318   0.5341111   0.9469721  )
        33        P      tau(  33) = (   0.2076029   0.9882917   0.7835381  )
        34        P      tau(  34) = (   0.4577012   0.6460068   1.1076436  )
        35        P      tau(  35) = (   0.2881931   0.0932770   1.1104179  )
        36        P      tau(  36) = (   0.0392916   0.4238898   0.7837243  )
        37        O      tau(  37) = (   0.1306755   0.9148866   0.9233554  )
        38        O      tau(  38) = (   0.3789780   0.7172835   0.9680652  )
        39        O      tau(  39) = (   0.3654852   0.1662865   0.9702638  )
        40        O      tau(  40) = (   0.1163776   0.3546954   0.9254186  )
        41        O      tau(  41) = (   0.1502901   0.8969129   0.6541592  )
        42        O      tau(  42) = (   0.3974525   0.7354243   1.2370031  )
        43        O      tau(  43) = (   0.3483097   0.1789497   1.2412670  )
        44        O      tau(  44) = (   0.0974932   0.3376387   0.6529083  )
        45        O      tau(  45) = (   0.0984699   0.5818903   0.7881021  )
        46        O      tau(  46) = (   0.3459978   1.0405493   1.1018526  )
        47        O      tau(  47) = (   0.3731719   0.4204123   0.7945555  )
        48        O      tau(  48) = (   0.1223503   0.0989699   1.1000566  )
        49        O      tau(  49) = (   0.1235438   0.6536772   1.0980598  )
        50        O      tau(  50) = (   0.4004339   0.4872435   1.1047245  )
        51        O      tau(  51) = (   0.1476543   0.0398268   0.7872561  )
        52        O      tau(  52) = (   0.3728637   0.9843360   0.7931368  )
        53        Ni     tau(  53) = (   0.2406075   0.8410745   0.4603118  )
        54        Mn     tau(  54) = (   0.4909555   0.7688210   0.1249907  )
        55        Ni     tau(  55) = (   0.0037414   0.2833427   0.4620755  )
        56        Ni     tau(  56) = (   0.2555676   0.2176485   0.1287398  )
        57        Ni     tau(  57) = (   0.4961657   1.0849810   0.2940889  )
        58        Ni     tau(  58) = (   0.2480854   0.5241915   0.2951494  )
        59        P      tau(  59) = (   0.2068565   0.9783721   0.1317154  )
        60        P      tau(  60) = (   0.4569549   0.6360871   0.4558210  )
        61        P      tau(  61) = (   0.2874467   0.0833574   0.4585952  )
        62        P      tau(  62) = (   0.0385452   0.4139702   0.1319017  )
        63        O      tau(  63) = (   0.1299291   0.9049669   0.2715327  )
        64        O      tau(  64) = (   0.3782317   0.7073639   0.3162425  )
        65        O      tau(  65) = (   0.3647389   0.1563669   0.3184411  )
        66        O      tau(  66) = (   0.1156313   0.3447757   0.2735959  )
        67        O      tau(  67) = (   0.1495437   0.8869933   0.0023366  )
        68        O      tau(  68) = (   0.3967062   0.7255047   0.5851804  )
        69        O      tau(  69) = (   0.3475634   0.1690300   0.5894443  )
        70        O      tau(  70) = (   0.0967469   0.3277190   0.0010856  )
        71        O      tau(  71) = (   0.0977236   0.5719706   0.1362794  )
        72        O      tau(  72) = (   0.3452514   1.0306297   0.4500300  )
        73        O      tau(  73) = (   0.3724256   0.4104926   0.1427328  )
        74        O      tau(  74) = (   0.1216040   0.0890503   0.4482339  )
        75        O      tau(  75) = (   0.1227974   0.6437575   0.4462371  )
        76        O      tau(  76) = (   0.3996875   0.4773239   0.4529018  )
        77        O      tau(  77) = (   0.1469079   0.0299071   0.1354334  )
        78        O      tau(  78) = (   0.3721173   0.9744163   0.1413141  )
        79        Ni     tau(  79) = (   0.7414379   0.8631934   1.7811905  )
        80        Mn     tau(  80) = (   0.9841778   0.7888082   1.4314224  )
        81        Ni     tau(  81) = (   0.4981575   0.2996622   1.7438399  )
        82        Ni     tau(  82) = (   0.7578892   0.2404171   1.4315495  )
        83        Ni     tau(  83) = (   0.9960243   1.1035763   1.5974106  )
        84        Ni     tau(  84) = (   0.7511014   0.5491218   1.6034046  )
        85        P      tau(  85) = (   0.7087866   0.9973915   1.4351950  )
        86        P      tau(  86) = (   0.9628486   0.6621696   1.7637363  )
        87        P      tau(  87) = (   0.7871746   0.1114899   1.7616375  )
        88        P      tau(  88) = (   0.5410567   0.4395544   1.4323437  )
        89        O      tau(  89) = (   0.6354630   0.9223360   1.5730365  )
        90        O      tau(  90) = (   0.8842257   0.7257126   1.6195033  )
        91        O      tau(  91) = (   0.8650973   0.1749877   1.6118653  )
        92        O      tau(  92) = (   0.6191862   0.3687812   1.5717219  )
        93        O      tau(  93) = (   0.6506723   0.9089988   1.3043577  )
        94        O      tau(  94) = (   0.9054210   0.7593145   1.8845788  )
        95        O      tau(  95) = (   0.8458988   0.2143962   1.8769408  )
        96        O      tau(  96) = (   0.6009712   0.3522741   1.3025522  )
        97        O      tau(  97) = (   0.5994071   0.5984853   1.4384741  )
        98        O      tau(  98) = (   0.8467958   1.0589836   1.7578834  )
        99        O      tau(  99) = (   0.8740438   0.4364663   1.4443826  )
       100        O      tau( 100) = (   0.6200794   0.1160167   1.7440992  )
       101        O      tau( 101) = (   0.6282264   0.6595953   1.7561119  )
       102        O      tau( 102) = (   0.9078379   0.5006245   1.7604184  )
       103        O      tau( 103) = (   0.6500092   0.0493715   1.4390795  )
       104        O      tau( 104) = (   0.8760524   0.9898930   1.4442019  )
       105        Ni     tau( 105) = (   0.7413539   0.8509941   1.1121345  )
       106        Mn     tau( 106) = (   0.9917018   0.7787406   0.7768134  )
       107        Ni     tau( 107) = (   0.5044877   0.2932623   1.1138982  )
       108        Ni     tau( 108) = (   0.7563139   0.2275682   0.7805625  )
       109        Ni     tau( 109) = (   0.9969120   1.0949007   0.9459116  )
       110        Ni     tau( 110) = (   0.7488318   0.5341111   0.9469721  )
       111        P      tau( 111) = (   0.7076029   0.9882917   0.7835381  )
       112        P      tau( 112) = (   0.9577012   0.6460068   1.1076436  )
       113        P      tau( 113) = (   0.7881931   0.0932770   1.1104179  )
       114        P      tau( 114) = (   0.5392916   0.4238898   0.7837243  )
       115        O      tau( 115) = (   0.6306755   0.9148866   0.9233554  )
       116        O      tau( 116) = (   0.8789780   0.7172835   0.9680652  )
       117        O      tau( 117) = (   0.8654852   0.1662865   0.9702638  )
       118        O      tau( 118) = (   0.6163776   0.3546954   0.9254186  )
       119        O      tau( 119) = (   0.6502901   0.8969129   0.6541592  )
       120        O      tau( 120) = (   0.8974525   0.7354243   1.2370031  )
       121        O      tau( 121) = (   0.8483097   0.1789497   1.2412670  )
       122        O      tau( 122) = (   0.5974932   0.3376387   0.6529083  )
       123        O      tau( 123) = (   0.5984699   0.5818903   0.7881021  )
       124        O      tau( 124) = (   0.8459978   1.0405493   1.1018526  )
       125        O      tau( 125) = (   0.8731719   0.4204123   0.7945555  )
       126        O      tau( 126) = (   0.6223503   0.0989699   1.1000566  )
       127        O      tau( 127) = (   0.6235438   0.6536772   1.0980598  )
       128        O      tau( 128) = (   0.9004339   0.4872435   1.1047245  )
       129        O      tau( 129) = (   0.6476543   0.0398268   0.7872561  )
       130        O      tau( 130) = (   0.8728637   0.9843360   0.7931368  )
       131        Ni     tau( 131) = (   0.7406075   0.8410745   0.4603118  )
       132        Mn     tau( 132) = (   0.9909555   0.7688210   0.1249907  )
       133        Ni     tau( 133) = (   0.5037414   0.2833427   0.4620755  )
       134        Ni     tau( 134) = (   0.7555676   0.2176485   0.1287398  )
       135        Ni     tau( 135) = (   0.9961657   1.0849810   0.2940889  )
       136        Ni     tau( 136) = (   0.7480854   0.5241915   0.2951494  )
       137        P      tau( 137) = (   0.7068565   0.9783721   0.1317154  )
       138        P      tau( 138) = (   0.9569549   0.6360871   0.4558210  )
       139        P      tau( 139) = (   0.7874467   0.0833574   0.4585952  )
       140        P      tau( 140) = (   0.5385452   0.4139702   0.1319017  )
       141        O      tau( 141) = (   0.6299291   0.9049669   0.2715327  )
       142        O      tau( 142) = (   0.8782317   0.7073639   0.3162425  )
       143        O      tau( 143) = (   0.8647389   0.1563669   0.3184411  )
       144        O      tau( 144) = (   0.6156313   0.3447757   0.2735959  )
       145        O      tau( 145) = (   0.6495437   0.8869933   0.0023366  )
       146        O      tau( 146) = (   0.8967062   0.7255047   0.5851804  )
       147        O      tau( 147) = (   0.8475634   0.1690300   0.5894443  )
       148        O      tau( 148) = (   0.5967469   0.3277190   0.0010856  )
       149        O      tau( 149) = (   0.5977236   0.5719706   0.1362794  )
       150        O      tau( 150) = (   0.8452514   1.0306297   0.4500300  )
       151        O      tau( 151) = (   0.8724256   0.4104926   0.1427328  )
       152        O      tau( 152) = (   0.6216040   0.0890503   0.4482339  )
       153        O      tau( 153) = (   0.6227974   0.6437575   0.4462371  )
       154        O      tau( 154) = (   0.8996875   0.4773239   0.4529018  )
       155        O      tau( 155) = (   0.6469079   0.0299071   0.1354334  )
       156        O      tau( 156) = (   0.8721173   0.9744163   0.1413141  )
       157        O      tau( 157) = (   0.6206852   0.9487225   1.9111104  )
       158        H      tau( 158) = (   0.5390407   0.8844830   1.9379774  )

     -------------------------------------------------
     Parameters for Dispersion (Grimme-D2) Correction:
     -------------------------------------------------
       atom      VdW radius       C_6     

        Ni         2.952        374.666
        Mn         2.952        374.666
        P          3.222        271.980
        O          2.536         24.284
        H          1.892          4.857

     number of k points=     1  Gaussian smearing, width (Ry)=  0.0100
                       cart. coord. in units 2pi/alat
        k(    1) = (   0.0000000   0.0000000   0.0000000), wk =   1.0000000

     Dense  grid:  1938023 G-vectors     FFT dimensions: ( 125, 144, 450)

     Smooth grid:   490328 G-vectors     FFT dimensions: (  80,  90, 288)

     Estimated max dynamical RAM per process >     326.29 MB

     Estimated total dynamical RAM >      20.39 GB

     Check: negative core charge=   -0.000001
     Generating pointlists ...
     new r_m :   0.0812 (alat units)  1.4139 (a.u.) for type    1
     new r_m :   0.0905 (alat units)  1.5759 (a.u.) for type    2
     new r_m :   0.0681 (alat units)  1.1852 (a.u.) for type    3
     new r_m :   0.0443 (alat units)  0.7705 (a.u.) for type    4
     new r_m :   0.0443 (alat units)  0.7705 (a.u.) for type    5

     Initial potential from superposition of free atoms

     starting charge    1092.8893, renormalised to    1093.0000

     negative rho (up, down):  1.395E-03 4.559E-04
 
     Adding external electric field

     Computed dipole along edir(3) : 
        Dipole                1.6548 Ry au,          4.2061 Debye
        Dipole field          0.0010 Ry au, 
 
        Potential amp.       -0.1117 Ry
        Total length         55.1515 bohr
 
 
     Adding external electric field

     Computed dipole along edir(3) : 
        Dipole                1.6548 Ry au,          4.2061 Debye
        Dipole field          0.0010 Ry au, 
 
        Potential amp.       -0.1117 Ry
        Total length         55.1515 bohr
 
     Starting wfcs are  815 randomized atomic wfcs

     total cpu time spent up to now is       12.5 secs

     Self-consistent Calculation

     iteration #  1     ecut=    50.00 Ry     beta= 0.10
     Davidson diagonalization with overlap
     ethr =  1.00E-02,  avg # of iterations =  6.0

     negative rho (up, down):  3.817E-01 2.221E-06
 
     Adding external electric field

     Computed dipole along edir(3) : 
        Dipole               -3.7700 Ry au,         -9.5823 Debye
        Dipole field         -0.0023 Ry au, 
 
        Potential amp.        0.2545 Ry
        Total length         55.1515 bohr
 
 
     Adding external electric field

     Computed dipole along edir(3) : 
        Dipole               -3.7700 Ry au,         -9.5823 Debye
        Dipole field         -0.0023 Ry au, 
 
        Potential amp.        0.2545 Ry
        Total length         55.1515 bohr
 

     total cpu time spent up to now is       47.1 secs

     total energy              =   -7517.48225628 Ry
     estimated scf accuracy    <     800.18591397 Ry

     total magnetization       =   219.00 Bohr mag/cell
     absolute magnetization    =   307.92 Bohr mag/cell

     iteration #  2     ecut=    50.00 Ry     beta= 0.10
     Davidson diagonalization with overlap
     ethr =  1.00E-02,  avg # of iterations =  2.0

     negative rho (up, down):  3.623E-01 1.441E-06
 
     Adding external electric field

     Computed dipole along edir(3) : 
        Dipole               -2.4994 Ry au,         -6.3527 Debye
        Dipole field         -0.0015 Ry au, 
 
        Potential amp.        0.1687 Ry
        Total length         55.1515 bohr
 
 
     Adding external electric field

     Computed dipole along edir(3) : 
        Dipole               -2.4994 Ry au,         -6.3527 Debye
        Dipole field         -0.0015 Ry au, 
 
        Potential amp.        0.1687 Ry
        Total length         55.1515 bohr
 

     total cpu time spent up to now is       67.4 secs

     total energy              =   -7600.29516670 Ry
     estimated scf accuracy    <     225.48453901 Ry

     total magnetization       =   159.18 Bohr mag/cell
     absolute magnetization    =   207.68 Bohr mag/cell

     iteration #  3     ecut=    50.00 Ry     beta= 0.10
     Davidson diagonalization with overlap
     ethr =  1.00E-02,  avg # of iterations =  1.5

     negative rho (up, down):  3.236E-01 1.382E-06
 
     Adding external electric field

     Computed dipole along edir(3) : 
        Dipole               -2.1541 Ry au,         -5.4752 Debye
        Dipole field         -0.0013 Ry au, 
 
        Potential amp.        0.1454 Ry
        Total length         55.1515 bohr
 
 
     Adding external electric field

     Computed dipole along edir(3) : 
        Dipole               -2.1541 Ry au,         -5.4752 Debye
        Dipole field         -0.0013 Ry au, 
 
        Potential amp.        0.1454 Ry
        Total length         55.1515 bohr
 

     total cpu time spent up to now is       83.7 secs

     total energy              =   -7629.79348928 Ry
     estimated scf accuracy    <     103.66041831 Ry

     total magnetization       =   135.52 Bohr mag/cell
     absolute magnetization    =   186.36 Bohr mag/cell

     iteration #  4     ecut=    50.00 Ry     beta= 0.10
     Davidson diagonalization with overlap
     ethr =  9.48E-03,  avg # of iterations =  1.5

     negative rho (up, down):  2.547E-01 8.472E-07
 
     Adding external electric field

     Computed dipole along edir(3) : 
        Dipole               -2.0085 Ry au,         -5.1051 Debye
        Dipole field         -0.0012 Ry au, 
 
        Potential amp.        0.1356 Ry
        Total length         55.1515 bohr
 
 
     Adding external electric field

     Computed dipole along edir(3) : 
        Dipole               -2.0085 Ry au,         -5.1051 Debye
        Dipole field         -0.0012 Ry au, 
 
        Potential amp.        0.1356 Ry
        Total length         55.1515 bohr
 

     total cpu time spent up to now is       97.7 secs

     total energy              =   -7662.40987208 Ry
     estimated scf accuracy    <      82.82413524 Ry

     total magnetization       =   119.74 Bohr mag/cell
     absolute magnetization    =   172.01 Bohr mag/cell

     iteration #  5     ecut=    50.00 Ry     beta= 0.10
     Davidson diagonalization with overlap
     ethr =  7.58E-03,  avg # of iterations =  1.0

     negative rho (up, down):  3.783E-02 8.888E-07
 
     Adding external electric field

     Computed dipole along edir(3) : 
        Dipole               -1.6057 Ry au,         -4.0814 Debye
        Dipole field         -0.0010 Ry au, 
 
        Potential amp.        0.1084 Ry
        Total length         55.1515 bohr
 
 
     Adding external electric field

     Computed dipole along edir(3) : 
        Dipole               -1.6057 Ry au,         -4.0814 Debye
        Dipole field         -0.0010 Ry au, 
 
        Potential amp.        0.1084 Ry
        Total length         55.1515 bohr
 

     total cpu time spent up to now is      110.9 secs

     total energy              =   -7721.37495201 Ry
     estimated scf accuracy    <      66.34088354 Ry

     total magnetization       =    97.52 Bohr mag/cell
     absolute magnetization    =   153.31 Bohr mag/cell

     iteration #  6     ecut=    50.00 Ry     beta= 0.10
     Davidson diagonalization with overlap
     ethr =  6.07E-03,  avg # of iterations =  1.0

     negative rho (up, down):  6.996E-04 1.018E-03
 
     Adding external electric field

     Computed dipole along edir(3) : 
        Dipole               -1.2200 Ry au,         -3.1008 Debye
        Dipole field         -0.0007 Ry au, 
 
        Potential amp.        0.0824 Ry
        Total length         55.1515 bohr
 
 
     Adding external electric field

     Computed dipole along edir(3) : 
        Dipole               -1.2200 Ry au,         -3.1008 Debye
        Dipole field         -0.0007 Ry au, 
 
        Potential amp.        0.0824 Ry
        Total length         55.1515 bohr
 

     total cpu time spent up to now is      123.8 secs

     total energy              =   -7735.76007410 Ry
     estimated scf accuracy    <      15.73182013 Ry

     total magnetization       =    91.00 Bohr mag/cell
     absolute magnetization    =   126.20 Bohr mag/cell

     iteration #  7     ecut=    50.00 Ry     beta= 0.10
     Davidson diagonalization with overlap
     ethr =  1.44E-03,  avg # of iterations =  6.0

     negative rho (up, down):  6.795E-04 1.001E-03
 
     Adding external electric field

     Computed dipole along edir(3) : 
        Dipole               -1.2228 Ry au,         -3.1080 Debye
        Dipole field         -0.0007 Ry au, 
 
        Potential amp.        0.0826 Ry
        Total length         55.1515 bohr
 
 
     Adding external electric field

     Computed dipole along edir(3) : 
        Dipole               -1.2228 Ry au,         -3.1080 Debye
        Dipole field         -0.0007 Ry au, 
 
        Potential amp.        0.0826 Ry
        Total length         55.1515 bohr
 

     total cpu time spent up to now is      146.5 secs

     total energy              =   -7738.22533689 Ry
     estimated scf accuracy    <      19.73247398 Ry

     total magnetization       =    70.73 Bohr mag/cell
     absolute magnetization    =    88.27 Bohr mag/cell

     iteration #  8     ecut=    50.00 Ry     beta= 0.10
     Davidson diagonalization with overlap
     ethr =  1.44E-03,  avg # of iterations =  1.0

     negative rho (up, down):  6.555E-04 9.521E-04
 
     Adding external electric field

     Computed dipole along edir(3) : 
        Dipole               -1.2294 Ry au,         -3.1248 Debye
        Dipole field         -0.0008 Ry au, 
 
        Potential amp.        0.0830 Ry
        Total length         55.1515 bohr
 
 
     Adding external electric field

     Computed dipole along edir(3) : 
        Dipole               -1.2294 Ry au,         -3.1248 Debye
        Dipole field         -0.0008 Ry au, 
 
        Potential amp.        0.0830 Ry
        Total length         55.1515 bohr
 

     total cpu time spent up to now is      158.5 secs

     total energy              =   -7738.24024685 Ry
     estimated scf accuracy    <      19.15348643 Ry

     total magnetization       =    70.89 Bohr mag/cell
     absolute magnetization    =    87.96 Bohr mag/cell

     iteration #  9     ecut=    50.00 Ry     beta= 0.10
     Davidson diagonalization with overlap
     ethr =  1.44E-03,  avg # of iterations =  1.0

     negative rho (up, down):  2.740E-04 6.115E-04
 
     Adding external electric field

     Computed dipole along edir(3) : 
        Dipole               -1.4145 Ry au,         -3.5953 Debye
        Dipole field         -0.0009 Ry au, 
 
        Potential amp.        0.0955 Ry
        Total length         55.1515 bohr
 
 
     Adding external electric field

     Computed dipole along edir(3) : 
        Dipole               -1.4145 Ry au,         -3.5953 Debye
        Dipole field         -0.0009 Ry au, 
 
        Potential amp.        0.0955 Ry
        Total length         55.1515 bohr
 

     total cpu time spent up to now is      170.9 secs

     total energy              =   -7737.41759463 Ry
     estimated scf accuracy    <      18.56496678 Ry

     total magnetization       =    70.98 Bohr mag/cell
     absolute magnetization    =    87.66 Bohr mag/cell

     iteration # 10     ecut=    50.00 Ry     beta= 0.10
     Davidson diagonalization with overlap
     ethr =  1.44E-03,  avg # of iterations =  1.5

     negative rho (up, down):  2.088E-04 5.618E-04
 
     Adding external electric field

     Computed dipole along edir(3) : 
        Dipole               -1.4123 Ry au,         -3.5896 Debye
        Dipole field         -0.0009 Ry au, 
 
        Potential amp.        0.0954 Ry
        Total length         55.1515 bohr
 
 
     Adding external electric field

     Computed dipole along edir(3) : 
        Dipole               -1.4123 Ry au,         -3.5896 Debye
        Dipole field         -0.0009 Ry au, 
 
        Potential amp.        0.0954 Ry
        Total length         55.1515 bohr
 

     total cpu time spent up to now is      183.6 secs

     total energy              =   -7737.87487210 Ry
     estimated scf accuracy    <       2.20728202 Ry

     total magnetization       =    85.55 Bohr mag/cell
     absolute magnetization    =    96.92 Bohr mag/cell

     iteration # 11     ecut=    50.00 Ry     beta= 0.10
     Davidson diagonalization with overlap
     ethr =  2.02E-04,  avg # of iterations = 14.0

     negative rho (up, down):  1.736E-04 5.245E-04
 
     Adding external electric field

     Computed dipole along edir(3) : 
        Dipole               -1.3701 Ry au,         -3.4824 Debye
        Dipole field         -0.0008 Ry au, 
 
        Potential amp.        0.0925 Ry
        Total length         55.1515 bohr
 
 
     Adding external electric field

     Computed dipole along edir(3) : 
        Dipole               -1.3701 Ry au,         -3.4824 Debye
        Dipole field         -0.0008 Ry au, 
 
        Potential amp.        0.0925 Ry
        Total length         55.1515 bohr
 

     total cpu time spent up to now is      207.9 secs

     total energy              =   -7737.90535953 Ry
     estimated scf accuracy    <       0.88503601 Ry

     total magnetization       =    88.44 Bohr mag/cell
     absolute magnetization    =    98.19 Bohr mag/cell

     iteration # 12     ecut=    50.00 Ry     beta= 0.10
     Davidson diagonalization with overlap
     ethr =  8.10E-05,  avg # of iterations =  3.0

     negative rho (up, down):  6.410E-05 2.715E-04
 
     Adding external electric field

     Computed dipole along edir(3) : 
        Dipole               -1.2852 Ry au,         -3.2667 Debye
        Dipole field         -0.0008 Ry au, 
 
        Potential amp.        0.0868 Ry
        Total length         55.1515 bohr
 
 
     Adding external electric field

     Computed dipole along edir(3) : 
        Dipole               -1.2852 Ry au,         -3.2667 Debye
        Dipole field         -0.0008 Ry au, 
 
        Potential amp.        0.0868 Ry
        Total length         55.1515 bohr
 

     total cpu time spent up to now is      221.9 secs

     total energy              =   -7738.01591519 Ry
     estimated scf accuracy    <       1.72869375 Ry

     total magnetization       =    85.14 Bohr mag/cell
     absolute magnetization    =    94.87 Bohr mag/cell

     iteration # 13     ecut=    50.00 Ry     beta= 0.10
     Davidson diagonalization with overlap
     ethr =  8.10E-05,  avg # of iterations =  2.0

     negative rho (up, down):  8.983E-06 1.623E-04
 
     Adding external electric field

     Computed dipole along edir(3) : 
        Dipole               -1.1770 Ry au,         -2.9915 Debye
        Dipole field         -0.0007 Ry au, 
 
        Potential amp.        0.0795 Ry
        Total length         55.1515 bohr
 
 
     Adding external electric field

     Computed dipole along edir(3) : 
        Dipole               -1.1770 Ry au,         -2.9915 Debye
        Dipole field         -0.0007 Ry au, 
 
        Potential amp.        0.0795 Ry
        Total length         55.1515 bohr
 

     total cpu time spent up to now is      235.1 secs

     total energy              =   -7738.16121586 Ry
     estimated scf accuracy    <       0.76328964 Ry

     total magnetization       =    86.17 Bohr mag/cell
     absolute magnetization    =    94.15 Bohr mag/cell

     iteration # 14     ecut=    50.00 Ry     beta= 0.10
     Davidson diagonalization with overlap
     ethr =  6.98E-05,  avg # of iterations =  2.0

     negative rho (up, down):  1.290E-05 2.114E-04
 
     Adding external electric field

     Computed dipole along edir(3) : 
        Dipole               -1.1823 Ry au,         -3.0051 Debye
        Dipole field         -0.0007 Ry au, 
 
        Potential amp.        0.0798 Ry
        Total length         55.1515 bohr
 
 
     Adding external electric field

     Computed dipole along edir(3) : 
        Dipole               -1.1823 Ry au,         -3.0051 Debye
        Dipole field         -0.0007 Ry au, 
 
        Potential amp.        0.0798 Ry
        Total length         55.1515 bohr
 

     total cpu time spent up to now is      248.0 secs

     total energy              =   -7738.21554599 Ry
     estimated scf accuracy    <       0.63934280 Ry

     total magnetization       =    87.14 Bohr mag/cell
     absolute magnetization    =    92.59 Bohr mag/cell

     iteration # 15     ecut=    50.00 Ry     beta= 0.10
     Davidson diagonalization with overlap
     ethr =  5.85E-05,  avg # of iterations =  2.0

     negative rho (up, down):  1.407E-04 7.106E-04
 
     Adding external electric field

     Computed dipole along edir(3) : 
        Dipole               -0.9998 Ry au,         -2.5413 Debye
        Dipole field         -0.0006 Ry au, 
 
        Potential amp.        0.0675 Ry
        Total length         55.1515 bohr
 
 
     Adding external electric field

     Computed dipole along edir(3) : 
        Dipole               -0.9998 Ry au,         -2.5413 Debye
        Dipole field         -0.0006 Ry au, 
 
        Potential amp.        0.0675 Ry
        Total length         55.1515 bohr
 

     total cpu time spent up to now is      261.5 secs

     total energy              =   -7738.28904446 Ry
     estimated scf accuracy    <       0.45324817 Ry

     total magnetization       =    89.89 Bohr mag/cell
     absolute magnetization    =    94.14 Bohr mag/cell

     iteration # 16     ecut=    50.00 Ry     beta= 0.10
     Davidson diagonalization with overlap
     ethr =  4.15E-05,  avg # of iterations =  3.0

     negative rho (up, down):  2.021E-04 7.171E-04
 
     Adding external electric field

     Computed dipole along edir(3) : 
        Dipole               -0.9549 Ry au,         -2.4270 Debye
        Dipole field         -0.0006 Ry au, 
 
        Potential amp.        0.0645 Ry
        Total length         55.1515 bohr
 
 
     Adding external electric field

     Computed dipole along edir(3) : 
        Dipole               -0.9549 Ry au,         -2.4270 Debye
        Dipole field         -0.0006 Ry au, 
 
        Potential amp.        0.0645 Ry
        Total length         55.1515 bohr
 

     total cpu time spent up to now is      275.5 secs

     total energy              =   -7738.32213913 Ry
     estimated scf accuracy    <       0.50339152 Ry

     total magnetization       =    88.09 Bohr mag/cell
     absolute magnetization    =    90.36 Bohr mag/cell

     iteration # 17     ecut=    50.00 Ry     beta= 0.10
     Davidson diagonalization with overlap
     ethr =  4.15E-05,  avg # of iterations =  1.5

     negative rho (up, down):  1.815E-04 5.465E-04
 
     Adding external electric field

     Computed dipole along edir(3) : 
        Dipole               -0.9224 Ry au,         -2.3446 Debye
        Dipole field         -0.0006 Ry au, 
 
        Potential amp.        0.0623 Ry
        Total length         55.1515 bohr
 
 
     Adding external electric field

     Computed dipole along edir(3) : 
        Dipole               -0.9224 Ry au,         -2.3446 Debye
        Dipole field         -0.0006 Ry au, 
 
        Potential amp.        0.0623 Ry
        Total length         55.1515 bohr
 

     total cpu time spent up to now is      287.6 secs

     total energy              =   -7738.32627624 Ry
     estimated scf accuracy    <       0.39869086 Ry

     total magnetization       =    88.74 Bohr mag/cell
     absolute magnetization    =    90.35 Bohr mag/cell

     iteration # 18     ecut=    50.00 Ry     beta= 0.10
     Davidson diagonalization with overlap
     ethr =  3.65E-05,  avg # of iterations =  2.0

     negative rho (up, down):  1.703E-04 3.441E-04
 
     Adding external electric field

     Computed dipole along edir(3) : 
        Dipole               -0.8878 Ry au,         -2.2567 Debye
        Dipole field         -0.0005 Ry au, 
 
        Potential amp.        0.0599 Ry
        Total length         55.1515 bohr
 
 
     Adding external electric field

     Computed dipole along edir(3) : 
        Dipole               -0.8878 Ry au,         -2.2567 Debye
        Dipole field         -0.0005 Ry au, 
 
        Potential amp.        0.0599 Ry
        Total length         55.1515 bohr
 

     total cpu time spent up to now is      300.5 secs

     total energy              =   -7738.32302528 Ry
     estimated scf accuracy    <       0.37108536 Ry

     total magnetization       =    88.58 Bohr mag/cell
     absolute magnetization    =    90.02 Bohr mag/cell

     iteration # 19     ecut=    50.00 Ry     beta= 0.10
     Davidson diagonalization with overlap
     ethr =  3.40E-05,  avg # of iterations =  2.0

     negative rho (up, down):  1.331E-04 3.249E-04
 
     Adding external electric field

     Computed dipole along edir(3) : 
        Dipole               -0.8887 Ry au,         -2.2588 Debye
        Dipole field         -0.0005 Ry au, 
 
        Potential amp.        0.0600 Ry
        Total length         55.1515 bohr
 
 
     Adding external electric field

     Computed dipole along edir(3) : 
        Dipole               -0.8887 Ry au,         -2.2588 Debye
        Dipole field         -0.0005 Ry au, 
 
        Potential amp.        0.0600 Ry
        Total length         55.1515 bohr
 

     total cpu time spent up to now is      313.6 secs

     total energy              =   -7738.32461596 Ry
     estimated scf accuracy    <       0.28350304 Ry

     total magnetization       =    88.57 Bohr mag/cell
     absolute magnetization    =    89.81 Bohr mag/cell

     iteration # 20     ecut=    50.00 Ry     beta= 0.10
     Davidson diagonalization with overlap
     ethr =  2.59E-05,  avg # of iterations =  2.0

     negative rho (up, down):  1.145E-04 2.475E-04
 
     Adding external electric field

     Computed dipole along edir(3) : 
        Dipole               -0.8930 Ry au,         -2.2698 Debye
        Dipole field         -0.0005 Ry au, 
 
        Potential amp.        0.0603 Ry
        Total length         55.1515 bohr
 
 
     Adding external electric field

     Computed dipole along edir(3) : 
        Dipole               -0.8930 Ry au,         -2.2698 Debye
        Dipole field         -0.0005 Ry au, 
 
        Potential amp.        0.0603 Ry
        Total length         55.1515 bohr
 

     total cpu time spent up to now is      326.4 secs

     total energy              =   -7738.32537710 Ry
     estimated scf accuracy    <       0.28178531 Ry

     total magnetization       =    88.50 Bohr mag/cell
     absolute magnetization    =    89.74 Bohr mag/cell

     iteration # 21     ecut=    50.00 Ry     beta= 0.10
     Davidson diagonalization with overlap
     c_bands:  4 eigenvalues not converged
     ethr =  2.58E-05,  avg # of iterations = 21.0

     negative rho (up, down):  5.778E-05 5.266E-05
 
     Adding external electric field

     Computed dipole along edir(3) : 
        Dipole               -0.8958 Ry au,         -2.2768 Debye
        Dipole field         -0.0005 Ry au, 
 
        Potential amp.        0.0605 Ry
        Total length         55.1515 bohr
 
 
     Adding external electric field

     Computed dipole along edir(3) : 
        Dipole               -0.8958 Ry au,         -2.2768 Debye
        Dipole field         -0.0005 Ry au, 
 
        Potential amp.        0.0605 Ry
        Total length         55.1515 bohr
 

     total cpu time spent up to now is      358.5 secs

     total energy              =   -7738.32333944 Ry
     estimated scf accuracy    <       0.27921287 Ry

     total magnetization       =    88.79 Bohr mag/cell
     absolute magnetization    =    90.00 Bohr mag/cell

     iteration # 22     ecut=    50.00 Ry     beta= 0.10
     Davidson diagonalization with overlap
     ethr =  2.55E-05,  avg # of iterations =  1.5

     negative rho (up, down):  5.677E-05 5.638E-06
 
     Adding external electric field

     Computed dipole along edir(3) : 
        Dipole               -0.8247 Ry au,         -2.0961 Debye
        Dipole field         -0.0005 Ry au, 
 
        Potential amp.        0.0557 Ry
        Total length         55.1515 bohr
 
 
     Adding external electric field

     Computed dipole along edir(3) : 
        Dipole               -0.8247 Ry au,         -2.0961 Debye
        Dipole field         -0.0005 Ry au, 
 
        Potential amp.        0.0557 Ry
        Total length         55.1515 bohr
 

     total cpu time spent up to now is      370.6 secs

     total energy              =   -7738.31628735 Ry
     estimated scf accuracy    <       0.14470226 Ry

     total magnetization       =    88.82 Bohr mag/cell
     absolute magnetization    =    90.19 Bohr mag/cell

     iteration # 23     ecut=    50.00 Ry     beta= 0.10
     Davidson diagonalization with overlap
     ethr =  1.32E-05,  avg # of iterations =  2.0

     negative rho (up, down):  4.067E-05 3.743E-06
 
     Adding external electric field

     Computed dipole along edir(3) : 
        Dipole               -0.8227 Ry au,         -2.0911 Debye
        Dipole field         -0.0005 Ry au, 
 
        Potential amp.        0.0555 Ry
        Total length         55.1515 bohr
 
 
     Adding external electric field

     Computed dipole along edir(3) : 
        Dipole               -0.8227 Ry au,         -2.0911 Debye
        Dipole field         -0.0005 Ry au, 
 
        Potential amp.        0.0555 Ry
        Total length         55.1515 bohr
 

     total cpu time spent up to now is      383.8 secs

     total energy              =   -7738.31454152 Ry
     estimated scf accuracy    <       0.12506103 Ry

     total magnetization       =    88.11 Bohr mag/cell
     absolute magnetization    =    89.54 Bohr mag/cell

     iteration # 24     ecut=    50.00 Ry     beta= 0.10
     Davidson diagonalization with overlap
     ethr =  1.14E-05,  avg # of iterations =  1.5

     negative rho (up, down):  6.718E-05 9.755E-06
 
     Adding external electric field

     Computed dipole along edir(3) : 
        Dipole               -0.8753 Ry au,         -2.2248 Debye
        Dipole field         -0.0005 Ry au, 
 
        Potential amp.        0.0591 Ry
        Total length         55.1515 bohr
 
 
     Adding external electric field

     Computed dipole along edir(3) : 
        Dipole               -0.8753 Ry au,         -2.2248 Debye
        Dipole field         -0.0005 Ry au, 
 
        Potential amp.        0.0591 Ry
        Total length         55.1515 bohr
 

     total cpu time spent up to now is      395.5 secs

     total energy              =   -7738.32195821 Ry
     estimated scf accuracy    <       0.16927956 Ry

     total magnetization       =    88.57 Bohr mag/cell
     absolute magnetization    =    90.13 Bohr mag/cell

     iteration # 25     ecut=    50.00 Ry     beta= 0.10
     Davidson diagonalization with overlap
     ethr =  1.14E-05,  avg # of iterations =  1.5

     negative rho (up, down):  4.728E-05 1.147E-05
 
     Adding external electric field

     Computed dipole along edir(3) : 
        Dipole               -0.8851 Ry au,         -2.2496 Debye
        Dipole field         -0.0005 Ry au, 
 
        Potential amp.        0.0598 Ry
        Total length         55.1515 bohr
 
 
     Adding external electric field

     Computed dipole along edir(3) : 
        Dipole               -0.8851 Ry au,         -2.2496 Debye
        Dipole field         -0.0005 Ry au, 
 
        Potential amp.        0.0598 Ry
        Total length         55.1515 bohr
 

     total cpu time spent up to now is      407.4 secs

     total energy              =   -7738.32352599 Ry
     estimated scf accuracy    <       0.17418623 Ry

     total magnetization       =    88.75 Bohr mag/cell
     absolute magnetization    =    90.21 Bohr mag/cell

     iteration # 26     ecut=    50.00 Ry     beta= 0.10
     Davidson diagonalization with overlap
     ethr =  1.14E-05,  avg # of iterations =  1.5

     negative rho (up, down):  1.536E-05 6.312E-06
 
     Adding external electric field

     Computed dipole along edir(3) : 
        Dipole               -0.7798 Ry au,         -1.9821 Debye
        Dipole field         -0.0005 Ry au, 
 
        Potential amp.        0.0526 Ry
        Total length         55.1515 bohr
 
 
     Adding external electric field

     Computed dipole along edir(3) : 
        Dipole               -0.7798 Ry au,         -1.9821 Debye
        Dipole field         -0.0005 Ry au, 
 
        Potential amp.        0.0526 Ry
        Total length         55.1515 bohr
 

     total cpu time spent up to now is      420.1 secs

     total energy              =   -7738.31794776 Ry
     estimated scf accuracy    <       0.16557844 Ry

     total magnetization       =    88.88 Bohr mag/cell
     absolute magnetization    =    90.36 Bohr mag/cell

     iteration # 27     ecut=    50.00 Ry     beta= 0.10
     Davidson diagonalization with overlap
     ethr =  1.14E-05,  avg # of iterations =  2.0

     negative rho (up, down):  3.634E-05 9.748E-06
 
     Adding external electric field

     Computed dipole along edir(3) : 
        Dipole               -0.7565 Ry au,         -1.9229 Debye
        Dipole field         -0.0005 Ry au, 
 
        Potential amp.        0.0511 Ry
        Total length         55.1515 bohr
 
 
     Adding external electric field

     Computed dipole along edir(3) : 
        Dipole               -0.7565 Ry au,         -1.9229 Debye
        Dipole field         -0.0005 Ry au, 
 
        Potential amp.        0.0511 Ry
        Total length         55.1515 bohr
 

     total cpu time spent up to now is      433.3 secs

     total energy              =   -7738.31733662 Ry
     estimated scf accuracy    <       0.22268566 Ry

     total magnetization       =    88.82 Bohr mag/cell
     absolute magnetization    =    90.57 Bohr mag/cell

     iteration # 28     ecut=    50.00 Ry     beta= 0.10
     Davidson diagonalization with overlap
     ethr =  1.14E-05,  avg # of iterations =  1.0

     negative rho (up, down):  6.589E-05 4.776E-05
 
     Adding external electric field

     Computed dipole along edir(3) : 
        Dipole               -0.7897 Ry au,         -2.0071 Debye
        Dipole field         -0.0005 Ry au, 
 
        Potential amp.        0.0533 Ry
        Total length         55.1515 bohr
 
 
     Adding external electric field

     Computed dipole along edir(3) : 
        Dipole               -0.7897 Ry au,         -2.0071 Debye
        Dipole field         -0.0005 Ry au, 
 
        Potential amp.        0.0533 Ry
        Total length         55.1515 bohr
 

     total cpu time spent up to now is      445.1 secs

     total energy              =   -7738.31820698 Ry
     estimated scf accuracy    <       0.18748487 Ry

     total magnetization       =    88.82 Bohr mag/cell
     absolute magnetization    =    90.49 Bohr mag/cell

     iteration # 29     ecut=    50.00 Ry     beta= 0.10
     Davidson diagonalization with overlap
     ethr =  1.14E-05,  avg # of iterations =  2.0

     negative rho (up, down):  1.247E-04 1.757E-04
 
     Adding external electric field

     Computed dipole along edir(3) : 
        Dipole               -0.8018 Ry au,         -2.0379 Debye
        Dipole field         -0.0005 Ry au, 
 
        Potential amp.        0.0541 Ry
        Total length         55.1515 bohr
 
 
     Adding external electric field

     Computed dipole along edir(3) : 
        Dipole               -0.8018 Ry au,         -2.0379 Debye
        Dipole field         -0.0005 Ry au, 
 
        Potential amp.        0.0541 Ry
        Total length         55.1515 bohr
 

     total cpu time spent up to now is      458.3 secs

     total energy              =   -7738.31996701 Ry
     estimated scf accuracy    <       0.06365192 Ry

     total magnetization       =    88.35 Bohr mag/cell
     absolute magnetization    =    89.96 Bohr mag/cell

     iteration # 30     ecut=    50.00 Ry     beta= 0.10
     Davidson diagonalization with overlap
     ethr =  5.82E-06,  avg # of iterations =  2.0

     negative rho (up, down):  3.051E-04 4.308E-04
 
     Adding external electric field

     Computed dipole along edir(3) : 
        Dipole               -0.7893 Ry au,         -2.0063 Debye
        Dipole field         -0.0005 Ry au, 
 
        Potential amp.        0.0533 Ry
        Total length         55.1515 bohr
 
 
     Adding external electric field

     Computed dipole along edir(3) : 
        Dipole               -0.7893 Ry au,         -2.0063 Debye
        Dipole field         -0.0005 Ry au, 
 
        Potential amp.        0.0533 Ry
        Total length         55.1515 bohr
 

     total cpu time spent up to now is      471.4 secs

     total energy              =   -7738.31936011 Ry
     estimated scf accuracy    <       0.05230742 Ry

     total magnetization       =    88.18 Bohr mag/cell
     absolute magnetization    =    89.80 Bohr mag/cell

     iteration # 31     ecut=    50.00 Ry     beta= 0.10
     Davidson diagonalization with overlap
     ethr =  4.79E-06,  avg # of iterations =  2.0

     negative rho (up, down):  1.282E-03 1.753E-03
 
     Adding external electric field

     Computed dipole along edir(3) : 
        Dipole               -0.7517 Ry au,         -1.9105 Debye
        Dipole field         -0.0005 Ry au, 
 
        Potential amp.        0.0507 Ry
        Total length         55.1515 bohr
 
 
     Adding external electric field

     Computed dipole along edir(3) : 
        Dipole               -0.7517 Ry au,         -1.9105 Debye
        Dipole field         -0.0005 Ry au, 
 
        Potential amp.        0.0507 Ry
        Total length         55.1515 bohr
 

     total cpu time spent up to now is      484.3 secs

     total energy              =   -7738.31661644 Ry
     estimated scf accuracy    <       0.04383442 Ry

     total magnetization       =    88.20 Bohr mag/cell
     absolute magnetization    =    89.79 Bohr mag/cell

     iteration # 32     ecut=    50.00 Ry     beta= 0.10
     Davidson diagonalization with overlap
     c_bands:  1 eigenvalues not converged
     c_bands:  2 eigenvalues not converged
     ethr =  4.01E-06,  avg # of iterations = 20.0

     negative rho (up, down):  2.234E-03 2.943E-03
 
     Adding external electric field

     Computed dipole along edir(3) : 
        Dipole               -0.7316 Ry au,         -1.8596 Debye
        Dipole field         -0.0004 Ry au, 
 
        Potential amp.        0.0494 Ry
        Total length         55.1515 bohr
 
 
     Adding external electric field

     Computed dipole along edir(3) : 
        Dipole               -0.7316 Ry au,         -1.8596 Debye
        Dipole field         -0.0004 Ry au, 
 
        Potential amp.        0.0494 Ry
        Total length         55.1515 bohr
 

     total cpu time spent up to now is      508.4 secs

     total energy              =   -7738.31632862 Ry
     estimated scf accuracy    <       0.03271037 Ry

     total magnetization       =    88.33 Bohr mag/cell
     absolute magnetization    =    89.87 Bohr mag/cell

     iteration # 33     ecut=    50.00 Ry     beta= 0.10
     Davidson diagonalization with overlap
     ethr =  2.99E-06,  avg # of iterations = 18.5

     negative rho (up, down):  2.378E-03 2.654E-03
 
     Adding external electric field

     Computed dipole along edir(3) : 
        Dipole               -0.6504 Ry au,         -1.6531 Debye
        Dipole field         -0.0004 Ry au, 
 
        Potential amp.        0.0439 Ry
        Total length         55.1515 bohr
 
 
     Adding external electric field

     Computed dipole along edir(3) : 
        Dipole               -0.6504 Ry au,         -1.6531 Debye
        Dipole field         -0.0004 Ry au, 
 
        Potential amp.        0.0439 Ry
        Total length         55.1515 bohr
 

     total cpu time spent up to now is      536.6 secs

     total energy              =   -7738.31647657 Ry
     estimated scf accuracy    <       0.02295507 Ry

     total magnetization       =    88.36 Bohr mag/cell
     absolute magnetization    =    89.87 Bohr mag/cell

     iteration # 34     ecut=    50.00 Ry     beta= 0.10
     Davidson diagonalization with overlap
     ethr =  2.10E-06,  avg # of iterations =  4.0

     negative rho (up, down):  2.186E-03 2.455E-03
 
     Adding external electric field

     Computed dipole along edir(3) : 
        Dipole               -0.6545 Ry au,         -1.6637 Debye
        Dipole field         -0.0004 Ry au, 
 
        Potential amp.        0.0442 Ry
        Total length         55.1515 bohr
 
 
     Adding external electric field

     Computed dipole along edir(3) : 
        Dipole               -0.6545 Ry au,         -1.6637 Debye
        Dipole field         -0.0004 Ry au, 
 
        Potential amp.        0.0442 Ry
        Total length         55.1515 bohr
 

     total cpu time spent up to now is      551.6 secs

     total energy              =   -7738.31746202 Ry
     estimated scf accuracy    <       0.06223292 Ry

     total magnetization       =    88.65 Bohr mag/cell
     absolute magnetization    =    90.17 Bohr mag/cell

     iteration # 35     ecut=    50.00 Ry     beta= 0.10
     Davidson diagonalization with overlap
     ethr =  2.10E-06,  avg # of iterations =  1.5

     negative rho (up, down):  1.748E-03 1.958E-03
 
     Adding external electric field

     Computed dipole along edir(3) : 
        Dipole               -0.6781 Ry au,         -1.7236 Debye
        Dipole field         -0.0004 Ry au, 
 
        Potential amp.        0.0458 Ry
        Total length         55.1515 bohr
 
 
     Adding external electric field

     Computed dipole along edir(3) : 
        Dipole               -0.6781 Ry au,         -1.7236 Debye
        Dipole field         -0.0004 Ry au, 
 
        Potential amp.        0.0458 Ry
        Total length         55.1515 bohr
 

     total cpu time spent up to now is      564.2 secs

     total energy              =   -7738.31735263 Ry
     estimated scf accuracy    <       0.06326845 Ry

     total magnetization       =    88.67 Bohr mag/cell
     absolute magnetization    =    90.22 Bohr mag/cell

     iteration # 36     ecut=    50.00 Ry     beta= 0.10
     Davidson diagonalization with overlap
     ethr =  2.10E-06,  avg # of iterations =  2.0

     negative rho (up, down):  2.581E-03 2.675E-03
 
     Adding external electric field

     Computed dipole along edir(3) : 
        Dipole               -0.6681 Ry au,         -1.6981 Debye
        Dipole field         -0.0004 Ry au, 
 
        Potential amp.        0.0451 Ry
        Total length         55.1515 bohr
 
 
     Adding external electric field

     Computed dipole along edir(3) : 
        Dipole               -0.6681 Ry au,         -1.6981 Debye
        Dipole field         -0.0004 Ry au, 
 
        Potential amp.        0.0451 Ry
        Total length         55.1515 bohr
 

     total cpu time spent up to now is      577.4 secs

     total energy              =   -7738.31777553 Ry
     estimated scf accuracy    <       0.04495824 Ry

     total magnetization       =    88.61 Bohr mag/cell
     absolute magnetization    =    90.03 Bohr mag/cell

     iteration # 37     ecut=    50.00 Ry     beta= 0.10
     Davidson diagonalization with overlap
     ethr =  2.10E-06,  avg # of iterations =  2.0

     negative rho (up, down):  3.451E-03 3.819E-03
 
     Adding external electric field

     Computed dipole along edir(3) : 
        Dipole               -0.6341 Ry au,         -1.6116 Debye
        Dipole field         -0.0004 Ry au, 
 
        Potential amp.        0.0428 Ry
        Total length         55.1515 bohr
 
 
     Adding external electric field

     Computed dipole along edir(3) : 
        Dipole               -0.6341 Ry au,         -1.6116 Debye
        Dipole field         -0.0004 Ry au, 
 
        Potential amp.        0.0428 Ry
        Total length         55.1515 bohr
 

     total cpu time spent up to now is      590.8 secs

     total energy              =   -7738.31668759 Ry
     estimated scf accuracy    <       0.04396680 Ry

     total magnetization       =    88.63 Bohr mag/cell
     absolute magnetization    =    90.02 Bohr mag/cell

     iteration # 38     ecut=    50.00 Ry     beta= 0.10
     Davidson diagonalization with overlap
     ethr =  2.10E-06,  avg # of iterations =  2.0

     negative rho (up, down):  4.553E-03 5.130E-03
 
     Adding external electric field

     Computed dipole along edir(3) : 
        Dipole               -0.6035 Ry au,         -1.5339 Debye
        Dipole field         -0.0004 Ry au, 
 
        Potential amp.        0.0407 Ry
        Total length         55.1515 bohr
 
 
     Adding external electric field

     Computed dipole along edir(3) : 
        Dipole               -0.6035 Ry au,         -1.5339 Debye
        Dipole field         -0.0004 Ry au, 
 
        Potential amp.        0.0407 Ry
        Total length         55.1515 bohr
 

     total cpu time spent up to now is      604.1 secs

     total energy              =   -7738.31639497 Ry
     estimated scf accuracy    <       0.02406480 Ry

     total magnetization       =    88.49 Bohr mag/cell
     absolute magnetization    =    89.94 Bohr mag/cell

     iteration # 39     ecut=    50.00 Ry     beta= 0.10
     Davidson diagonalization with overlap
     c_bands:  3 eigenvalues not converged
     ethr =  2.10E-06,  avg # of iterations = 11.0

     negative rho (up, down):  3.594E-03 4.299E-03
 
     Adding external electric field

     Computed dipole along edir(3) : 
        Dipole               -0.5743 Ry au,         -1.4596 Debye
        Dipole field         -0.0004 Ry au, 
 
        Potential amp.        0.0388 Ry
        Total length         55.1515 bohr
 
 
     Adding external electric field

     Computed dipole along edir(3) : 
        Dipole               -0.5743 Ry au,         -1.4596 Debye
        Dipole field         -0.0004 Ry au, 
 
        Potential amp.        0.0388 Ry
        Total length         55.1515 bohr
 

     total cpu time spent up to now is      623.1 secs

     total energy              =   -7738.31625967 Ry
     estimated scf accuracy    <       0.01557481 Ry

     total magnetization       =    88.40 Bohr mag/cell
     absolute magnetization    =    89.84 Bohr mag/cell

     iteration # 40     ecut=    50.00 Ry     beta= 0.10
     Davidson diagonalization with overlap
     ethr =  1.42E-06,  avg # of iterations =  2.0

     negative rho (up, down):  4.236E-03 5.139E-03
 
     Adding external electric field

     Computed dipole along edir(3) : 
        Dipole               -0.5293 Ry au,         -1.3453 Debye
        Dipole field         -0.0003 Ry au, 
 
        Potential amp.        0.0357 Ry
        Total length         55.1515 bohr
 
 
     Adding external electric field

     Computed dipole along edir(3) : 
        Dipole               -0.5293 Ry au,         -1.3453 Debye
        Dipole field         -0.0003 Ry au, 
 
        Potential amp.        0.0357 Ry
        Total length         55.1515 bohr
 

     total cpu time spent up to now is      636.5 secs

     total energy              =   -7738.31599174 Ry
     estimated scf accuracy    <       0.01888323 Ry

     total magnetization       =    88.46 Bohr mag/cell
     absolute magnetization    =    89.88 Bohr mag/cell

     iteration # 41     ecut=    50.00 Ry     beta= 0.10
     Davidson diagonalization with overlap
     ethr =  1.42E-06,  avg # of iterations =  2.0

     negative rho (up, down):  3.980E-04 4.433E-04
 
     Adding external electric field

     Computed dipole along edir(3) : 
        Dipole               -0.4119 Ry au,         -1.0469 Debye
        Dipole field         -0.0003 Ry au, 
 
        Potential amp.        0.0278 Ry
        Total length         55.1515 bohr
 
 
     Adding external electric field

     Computed dipole along edir(3) : 
        Dipole               -0.4119 Ry au,         -1.0469 Debye
        Dipole field         -0.0003 Ry au, 
 
        Potential amp.        0.0278 Ry
        Total length         55.1515 bohr
 

     total cpu time spent up to now is      650.9 secs

     total energy              =   -7738.31618521 Ry
     estimated scf accuracy    <       0.01242327 Ry

     total magnetization       =    88.30 Bohr mag/cell
     absolute magnetization    =    89.70 Bohr mag/cell

     iteration # 42     ecut=    50.00 Ry     beta= 0.10
     Davidson diagonalization with overlap
     ethr =  1.14E-06,  avg # of iterations =  3.0

     negative rho (up, down):  1.602E-03 1.836E-03
 
     Adding external electric field

     Computed dipole along edir(3) : 
        Dipole               -0.3517 Ry au,         -0.8938 Debye
        Dipole field         -0.0002 Ry au, 
 
        Potential amp.        0.0237 Ry
        Total length         55.1515 bohr
 
 
     Adding external electric field

     Computed dipole along edir(3) : 
        Dipole               -0.3517 Ry au,         -0.8938 Debye
        Dipole field         -0.0002 Ry au, 
 
        Potential amp.        0.0237 Ry
        Total length         55.1515 bohr
 

     total cpu time spent up to now is      666.9 secs

     total energy              =   -7738.31704272 Ry
     estimated scf accuracy    <       0.04588816 Ry

     total magnetization       =    88.68 Bohr mag/cell
     absolute magnetization    =    90.05 Bohr mag/cell

     iteration # 43     ecut=    50.00 Ry     beta= 0.10
     Davidson diagonalization with overlap
     ethr =  1.14E-06,  avg # of iterations =  2.0

     negative rho (up, down):  1.762E-03 2.048E-03
 
     Adding external electric field

     Computed dipole along edir(3) : 
        Dipole               -0.3447 Ry au,         -0.8762 Debye
        Dipole field         -0.0002 Ry au, 
 
        Potential amp.        0.0233 Ry
        Total length         55.1515 bohr
 
 
     Adding external electric field

     Computed dipole along edir(3) : 
        Dipole               -0.3447 Ry au,         -0.8762 Debye
        Dipole field         -0.0002 Ry au, 
 
        Potential amp.        0.0233 Ry
        Total length         55.1515 bohr
 

     total cpu time spent up to now is      679.6 secs

     total energy              =   -7738.31690040 Ry
     estimated scf accuracy    <       0.01555903 Ry

     total magnetization       =    88.59 Bohr mag/cell
     absolute magnetization    =    89.95 Bohr mag/cell

     iteration # 44     ecut=    50.00 Ry     beta= 0.10
     Davidson diagonalization with overlap
     ethr =  1.14E-06,  avg # of iterations =  2.0

     negative rho (up, down):  4.095E-04 4.471E-04
 
     Adding external electric field

     Computed dipole along edir(3) : 
        Dipole               -0.3807 Ry au,         -0.9676 Debye
        Dipole field         -0.0002 Ry au, 
 
        Potential amp.        0.0257 Ry
        Total length         55.1515 bohr
 
 
     Adding external electric field

     Computed dipole along edir(3) : 
        Dipole               -0.3807 Ry au,         -0.9676 Debye
        Dipole field         -0.0002 Ry au, 
 
        Potential amp.        0.0257 Ry
        Total length         55.1515 bohr
 

     total cpu time spent up to now is      692.7 secs

     total energy              =   -7738.31688904 Ry
     estimated scf accuracy    <       0.00332747 Ry

     total magnetization       =    88.44 Bohr mag/cell
     absolute magnetization    =    89.83 Bohr mag/cell

     iteration # 45     ecut=    50.00 Ry     beta= 0.10
     Davidson diagonalization with overlap
     ethr =  3.04E-07,  avg # of iterations =  2.0

     negative rho (up, down):  4.891E-04 5.035E-04
 
     Adding external electric field

     Computed dipole along edir(3) : 
        Dipole               -0.3705 Ry au,         -0.9416 Debye
        Dipole field         -0.0002 Ry au, 
 
        Potential amp.        0.0250 Ry
        Total length         55.1515 bohr
 
 
     Adding external electric field

     Computed dipole along edir(3) : 
        Dipole               -0.3705 Ry au,         -0.9416 Debye
        Dipole field         -0.0002 Ry au, 
 
        Potential amp.        0.0250 Ry
        Total length         55.1515 bohr
 

     total cpu time spent up to now is      706.4 secs

     total energy              =   -7738.31697804 Ry
     estimated scf accuracy    <       0.00571982 Ry

     total magnetization       =    88.56 Bohr mag/cell
     absolute magnetization    =    89.98 Bohr mag/cell

     iteration # 46     ecut=    50.00 Ry     beta= 0.10
     Davidson diagonalization with overlap
     ethr =  3.04E-07,  avg # of iterations =  2.0

     negative rho (up, down):  6.275E-05 4.944E-05
 
     Adding external electric field

     Computed dipole along edir(3) : 
        Dipole               -0.3953 Ry au,         -1.0046 Debye
        Dipole field         -0.0002 Ry au, 
 
        Potential amp.        0.0267 Ry
        Total length         55.1515 bohr
 
 
     Adding external electric field

     Computed dipole along edir(3) : 
        Dipole               -0.3953 Ry au,         -1.0046 Debye
        Dipole field         -0.0002 Ry au, 
 
        Potential amp.        0.0267 Ry
        Total length         55.1515 bohr
 

     total cpu time spent up to now is      719.8 secs

     total energy              =   -7738.31689951 Ry
     estimated scf accuracy    <       0.00217400 Ry

     total magnetization       =    88.49 Bohr mag/cell
     absolute magnetization    =    89.91 Bohr mag/cell

     iteration # 47     ecut=    50.00 Ry     beta= 0.10
     Davidson diagonalization with overlap
     c_bands:  1 eigenvalues not converged
     ethr =  1.99E-07,  avg # of iterations = 14.0

     negative rho (up, down):  3.960E-05 2.234E-05
 
     Adding external electric field

     Computed dipole along edir(3) : 
        Dipole               -0.4010 Ry au,         -1.0191 Debye
        Dipole field         -0.0002 Ry au, 
 
        Potential amp.        0.0271 Ry
        Total length         55.1515 bohr
 
 
     Adding external electric field

     Computed dipole along edir(3) : 
        Dipole               -0.4010 Ry au,         -1.0191 Debye
        Dipole field         -0.0002 Ry au, 
 
        Potential amp.        0.0271 Ry
        Total length         55.1515 bohr
 

     total cpu time spent up to now is      739.8 secs

     total energy              =   -7738.31691014 Ry
     estimated scf accuracy    <       0.00134727 Ry

     total magnetization       =    88.47 Bohr mag/cell
     absolute magnetization    =    89.84 Bohr mag/cell

     iteration # 48     ecut=    50.00 Ry     beta= 0.10
     Davidson diagonalization with overlap
     ethr =  1.23E-07,  avg # of iterations =  2.0

     negative rho (up, down):  1.262E-05 4.870E-06
 
     Adding external electric field

     Computed dipole along edir(3) : 
        Dipole               -0.4019 Ry au,         -1.0216 Debye
        Dipole field         -0.0002 Ry au, 
 
        Potential amp.        0.0271 Ry
        Total length         55.1515 bohr
 
 
     Adding external electric field

     Computed dipole along edir(3) : 
        Dipole               -0.4019 Ry au,         -1.0216 Debye
        Dipole field         -0.0002 Ry au, 
 
        Potential amp.        0.0271 Ry
        Total length         55.1515 bohr
 

     total cpu time spent up to now is      752.9 secs

     total energy              =   -7738.31696687 Ry
     estimated scf accuracy    <       0.00130108 Ry

     total magnetization       =    88.49 Bohr mag/cell
     absolute magnetization    =    89.84 Bohr mag/cell

     iteration # 49     ecut=    50.00 Ry     beta= 0.10
     Davidson diagonalization with overlap
     ethr =  1.19E-07,  avg # of iterations =  2.0

     negative rho (up, down):  3.292E-05 1.030E-05
 
     Adding external electric field

     Computed dipole along edir(3) : 
        Dipole               -0.3924 Ry au,         -0.9975 Debye
        Dipole field         -0.0002 Ry au, 
 
        Potential amp.        0.0265 Ry
        Total length         55.1515 bohr
 
 
     Adding external electric field

     Computed dipole along edir(3) : 
        Dipole               -0.3924 Ry au,         -0.9975 Debye
        Dipole field         -0.0002 Ry au, 
 
        Potential amp.        0.0265 Ry
        Total length         55.1515 bohr
 

     total cpu time spent up to now is      765.9 secs

     total energy              =   -7738.31705485 Ry
     estimated scf accuracy    <       0.00141633 Ry

     total magnetization       =    88.51 Bohr mag/cell
     absolute magnetization    =    89.84 Bohr mag/cell

     iteration # 50     ecut=    50.00 Ry     beta= 0.10
     Davidson diagonalization with overlap
     ethr =  1.19E-07,  avg # of iterations =  2.0

     negative rho (up, down):  5.821E-05 1.846E-05
 
     Adding external electric field

     Computed dipole along edir(3) : 
        Dipole               -0.3894 Ry au,         -0.9898 Debye
        Dipole field         -0.0002 Ry au, 
 
        Potential amp.        0.0263 Ry
        Total length         55.1515 bohr
 
 
     Adding external electric field

     Computed dipole along edir(3) : 
        Dipole               -0.3894 Ry au,         -0.9898 Debye
        Dipole field         -0.0002 Ry au, 
 
        Potential amp.        0.0263 Ry
        Total length         55.1515 bohr
 

     total cpu time spent up to now is      779.3 secs

     total energy              =   -7738.31710720 Ry
     estimated scf accuracy    <       0.00043237 Ry

     total magnetization       =    88.47 Bohr mag/cell
     absolute magnetization    =    89.81 Bohr mag/cell

     iteration # 51     ecut=    50.00 Ry     beta= 0.10
     Davidson diagonalization with overlap
     ethr =  3.96E-08,  avg # of iterations =  2.0

     negative rho (up, down):  3.766E-04 2.388E-04
 
     Adding external electric field

     Computed dipole along edir(3) : 
        Dipole               -0.3589 Ry au,         -0.9123 Debye
        Dipole field         -0.0002 Ry au, 
 
        Potential amp.        0.0242 Ry
        Total length         55.1515 bohr
 
 
     Adding external electric field

     Computed dipole along edir(3) : 
        Dipole               -0.3589 Ry au,         -0.9123 Debye
        Dipole field         -0.0002 Ry au, 
 
        Potential amp.        0.0242 Ry
        Total length         55.1515 bohr
 

     total cpu time spent up to now is      792.4 secs

     total energy              =   -7738.31717383 Ry
     estimated scf accuracy    <       0.00024167 Ry

     total magnetization       =    88.47 Bohr mag/cell
     absolute magnetization    =    89.83 Bohr mag/cell

     iteration # 52     ecut=    50.00 Ry     beta= 0.10
     Davidson diagonalization with overlap
     ethr =  2.21E-08,  avg # of iterations =  2.0

     negative rho (up, down):  8.271E-04 6.274E-04
 
     Adding external electric field

     Computed dipole along edir(3) : 
        Dipole               -0.3476 Ry au,         -0.8836 Debye
        Dipole field         -0.0002 Ry au, 
 
        Potential amp.        0.0235 Ry
        Total length         55.1515 bohr
 
 
     Adding external electric field

     Computed dipole along edir(3) : 
        Dipole               -0.3476 Ry au,         -0.8836 Debye
        Dipole field         -0.0002 Ry au, 
 
        Potential amp.        0.0235 Ry
        Total length         55.1515 bohr
 

     total cpu time spent up to now is      805.7 secs

     total energy              =   -7738.31720571 Ry
     estimated scf accuracy    <       0.00012864 Ry

     total magnetization       =    88.46 Bohr mag/cell
     absolute magnetization    =    89.83 Bohr mag/cell

     iteration # 53     ecut=    50.00 Ry     beta= 0.10
     Davidson diagonalization with overlap
     ethr =  1.18E-08,  avg # of iterations =  1.5

     negative rho (up, down):  9.979E-04 7.185E-04
 
     Adding external electric field

     Computed dipole along edir(3) : 
        Dipole               -0.3403 Ry au,         -0.8650 Debye
        Dipole field         -0.0002 Ry au, 
 
        Potential amp.        0.0230 Ry
        Total length         55.1515 bohr
 
 
     Adding external electric field

     Computed dipole along edir(3) : 
        Dipole               -0.3403 Ry au,         -0.8650 Debye
        Dipole field         -0.0002 Ry au, 
 
        Potential amp.        0.0230 Ry
        Total length         55.1515 bohr
 

     total cpu time spent up to now is      817.7 secs

     total energy              =   -7738.31722917 Ry
     estimated scf accuracy    <       0.00009358 Ry

     total magnetization       =    88.46 Bohr mag/cell
     absolute magnetization    =    89.83 Bohr mag/cell

     iteration # 54     ecut=    50.00 Ry     beta= 0.10
     Davidson diagonalization with overlap
     ethr =  8.56E-09,  avg # of iterations =  2.0

     negative rho (up, down):  8.187E-04 4.297E-04
 
     Adding external electric field

     Computed dipole along edir(3) : 
        Dipole               -0.3351 Ry au,         -0.8518 Debye
        Dipole field         -0.0002 Ry au, 
 
        Potential amp.        0.0226 Ry
        Total length         55.1515 bohr
 
 
     Adding external electric field

     Computed dipole along edir(3) : 
        Dipole               -0.3351 Ry au,         -0.8518 Debye
        Dipole field         -0.0002 Ry au, 
 
        Potential amp.        0.0226 Ry
        Total length         55.1515 bohr
 

     total cpu time spent up to now is      831.4 secs

     total energy              =   -7738.31724300 Ry
     estimated scf accuracy    <       0.00006615 Ry

     total magnetization       =    88.46 Bohr mag/cell
     absolute magnetization    =    89.83 Bohr mag/cell

     iteration # 55     ecut=    50.00 Ry     beta= 0.10
     Davidson diagonalization with overlap
     ethr =  6.05E-09,  avg # of iterations =  3.0

     negative rho (up, down):  1.095E-03 6.664E-04
 
     Adding external electric field

     Computed dipole along edir(3) : 
        Dipole               -0.3283 Ry au,         -0.8345 Debye
        Dipole field         -0.0002 Ry au, 
 
        Potential amp.        0.0222 Ry
        Total length         55.1515 bohr
 
 
     Adding external electric field

     Computed dipole along edir(3) : 
        Dipole               -0.3283 Ry au,         -0.8345 Debye
        Dipole field         -0.0002 Ry au, 
 
        Potential amp.        0.0222 Ry
        Total length         55.1515 bohr
 

     total cpu time spent up to now is      845.1 secs

     total energy              =   -7738.31724940 Ry
     estimated scf accuracy    <       0.00003108 Ry

     total magnetization       =    88.47 Bohr mag/cell
     absolute magnetization    =    89.84 Bohr mag/cell

     iteration # 56     ecut=    50.00 Ry     beta= 0.10
     Davidson diagonalization with overlap
     ethr =  2.84E-09,  avg # of iterations =  2.0

     negative rho (up, down):  1.199E-03 7.660E-04
 
     Adding external electric field

     Computed dipole along edir(3) : 
        Dipole               -0.3255 Ry au,         -0.8273 Debye
        Dipole field         -0.0002 Ry au, 
 
        Potential amp.        0.0220 Ry
        Total length         55.1515 bohr
 
 
     Adding external electric field

     Computed dipole along edir(3) : 
        Dipole               -0.3255 Ry au,         -0.8273 Debye
        Dipole field         -0.0002 Ry au, 
 
        Potential amp.        0.0220 Ry
        Total length         55.1515 bohr
 

     total cpu time spent up to now is      858.0 secs

     total energy              =   -7738.31725138 Ry
     estimated scf accuracy    <       0.00001590 Ry

     total magnetization       =    88.46 Bohr mag/cell
     absolute magnetization    =    89.84 Bohr mag/cell

     iteration # 57     ecut=    50.00 Ry     beta= 0.10
     Davidson diagonalization with overlap
     ethr =  1.46E-09,  avg # of iterations =  2.0

     negative rho (up, down):  1.263E-03 8.159E-04
 
     Adding external electric field

     Computed dipole along edir(3) : 
        Dipole               -0.3211 Ry au,         -0.8163 Debye
        Dipole field         -0.0002 Ry au, 
 
        Potential amp.        0.0217 Ry
        Total length         55.1515 bohr
 
 
     Adding external electric field

     Computed dipole along edir(3) : 
        Dipole               -0.3211 Ry au,         -0.8163 Debye
        Dipole field         -0.0002 Ry au, 
 
        Potential amp.        0.0217 Ry
        Total length         55.1515 bohr
 

     total cpu time spent up to now is      870.9 secs

     total energy              =   -7738.31725356 Ry
     estimated scf accuracy    <       0.00000870 Ry

     total magnetization       =    88.46 Bohr mag/cell
     absolute magnetization    =    89.83 Bohr mag/cell

     iteration # 58     ecut=    50.00 Ry     beta= 0.10
     Davidson diagonalization with overlap
     ethr =  7.96E-10,  avg # of iterations =  2.0

     negative rho (up, down):  1.287E-03 8.338E-04
 
     Adding external electric field

     Computed dipole along edir(3) : 
[...]
    -5.9803  -5.9661  -5.9162  -5.9062  -5.8846  -5.8769  -5.8743  -5.8448
    -5.8251  -5.8004  -5.7499  -5.7389  -5.7189  -5.6907  -5.6760  -5.6451
    -5.6401  -5.6300  -5.5918  -5.5755  -5.5680  -5.5592  -5.5558  -5.5316
    -5.5164  -5.5042  -5.4814  -5.4431  -5.4009  -5.3571  -5.3313  -5.3168
    -5.2956  -5.2649  -5.2341  -5.1653  -5.1506  -5.1466  -5.1329  -5.1030
    -5.0540  -5.0112  -4.9696  -4.9435  -4.8995  -4.8883  -4.8598  -4.8548
    -4.8132  -4.7949  -4.7798  -4.7423  -4.7074  -4.6889  -4.6482  -4.6037
    -4.5507  -4.4694  -4.4433  -4.4255  -4.4165  -4.4011  -4.3593  -4.3519
    -4.3043  -4.2823  -4.2553  -4.2330  -4.2033  -4.1694  -4.1170  -4.1062
    -4.0767  -4.0483  -4.0463  -4.0141  -3.9572  -3.9331  -3.9193  -3.8769
    -3.8679  -3.8192  -3.8105  -3.7987  -3.7866  -3.7474  -3.7228  -3.6942
    -3.6915  -3.6631  -3.6454  -3.5967  -3.5840  -3.5772  -3.5731  -3.5468
    -3.5426  -3.5201  -3.5017  -3.4765  -3.4577  -3.4417  -3.4268  -3.4121
    -3.4091  -3.3692  -3.3591  -3.3527  -3.3373  -3.3036  -3.2741  -3.2579
    -3.2534  -3.2103  -3.1960  -3.1813  -3.1485  -3.1154  -3.1031  -3.0810
    -3.0729  -3.0669  -3.0435  -3.0371  -3.0213  -3.0027  -2.9780  -2.9656
    -2.9291  -2.9174  -2.8954  -2.8876  -2.8680  -2.8525  -2.8131  -2.7953
    -2.7870  -2.7579  -2.7533  -2.7447  -2.7273  -2.7162  -2.7023  -2.6949
    -2.6870  -2.6766  -2.6607  -2.6468  -2.6403  -2.6076  -2.6015  -2.5964
    -2.5725  -2.5667  -2.5412  -2.5268  -2.5169  -2.4861  -2.4729  -2.4568
    -2.4441  -2.4207  -2.4093  -2.3788  -2.3575  -2.3532  -2.3200  -2.2865
    -2.2770  -2.2662  -2.2279  -2.2101  -2.1947  -2.1796  -2.1466  -2.1423
    -2.1144  -2.0873  -2.0680  -2.0629  -2.0571  -2.0422  -2.0308  -2.0217
    -1.9976  -1.9782  -1.9404  -1.9179  -1.9129  -1.9113  -1.8777  -1.8562
    -1.8415  -1.8361  -1.8247  -1.8096  -1.7887  -1.7163  -1.7087  -1.6921
    -1.6717  -1.6561  -1.6353  -1.6287  -1.6154  -1.6148  -1.5917  -1.5706
    -1.5497  -1.5335  -1.5154  -1.4887  -1.4858  -1.4551  -1.4361  -1.4285
    -1.3995  -1.3967  -1.3818  -1.3758  -1.3575  -1.3488  -1.3047  -1.2630
    -1.2342  -1.2131  -1.1709  -1.1493  -1.1366  -1.1321  -1.0932  -1.0547
    -1.0434  -0.9955  -0.9294  -0.8481  -0.7389  -0.7296  -0.6208  -0.5557
    -0.5235  -0.5096  -0.3571  -0.2206   0.1776   0.2192   0.2415   0.2464
     0.2984   0.3102   0.3132   0.3201   0.3292   0.3484   0.3577   0.3680
     0.3746   0.3884   0.3957   0.4021   0.4046   0.4135   0.4183   0.4256
     0.4320   0.4398   0.4616   0.4651   0.4748   0.4827   0.4900   0.4907
     0.4953   0.5012   0.5087   0.5157   0.5246   0.5323   0.5354   0.5425
     0.5440   0.5622   0.5661   0.5739   0.5832   0.5989   0.6025   0.6174
     0.6225   0.6239   0.6402   0.6472   0.6523   0.6608   0.6654   0.6772
     0.6835   0.6915   0.6996   0.7016   0.7120   0.7291   0.7315   0.7419
     0.7468   0.7576   0.7661   0.7677   0.7750   0.7903   0.7995   0.8102
     0.8120   0.8213   0.8376   0.8549   0.8655   0.8662   0.8686   0.8737
     0.8819   0.8880   0.9053   0.9087   0.9176   0.9519   0.9852   0.9941
     1.0183   1.0485   1.0869   1.1113   1.1221   1.6726   1.7346   1.7470
     1.7680   1.7890   1.7996   1.8146   1.8279   1.8421   1.9036   1.9188
     1.9385   1.9661   1.9897   2.0089   2.0424   2.0447   2.0947   2.1060
     2.1305   2.1426   2.1446   2.1791   2.1898   2.1952   2.2056   2.2332
     2.2670   2.2754   2.2953   2.2994   2.3120   2.3217   2.3305   2.3492
     2.3712   2.3738   2.3880   2.3914   2.4155   2.4188   2.4306   2.4928
     2.5012   2.5292   2.5350   2.5390   2.5518   2.5675   2.5875   2.5969
     2.6212   2.6803   2.7052   2.7199   2.7421   2.8011   2.8032   2.8635
     2.8746   2.9526   3.6517   3.7068   3.7203   3.7475   3.7827   3.7972
     3.8452   3.9035   3.9270   3.9488   3.9588   3.9813   3.9996   4.0052
     4.0527   4.0584   4.1430   4.1465   4.1562   4.1782   4.6495   4.6628
     4.7700   4.8133   4.8596   4.8952   4.9173   4.9606   5.0375   5.0940
     5.1129   5.1445   5.4257   6.2432   6.3737   6.6112   6.6601   6.7511
     6.8459   6.8649   6.8895   6.9657   6.9882   7.0673   7.1182   7.1300
     7.2700   7.3509   7.3563   7.4199   7.4804   7.5407   7.5737   7.6299
     7.6568   7.6671   7.7436   7.7685   7.8024   7.8626   7.8935   7.9687
     8.0007   8.0491   8.0534   8.0913   8.1064   8.1646   8.1810   8.2127
     8.2453   8.2850   8.3034   8.3317   8.4038   8.4290   8.4307   8.4526
     8.4583   8.4788   8.4981   8.5395   8.5543   8.5730   8.5975   8.6223
     8.6696   8.7072   8.7241   8.7550   8.7693   8.7807   8.8404   8.8539

     the Fermi energy is     1.6593 ev

!    total energy              =   -7738.31725305 Ry
     estimated scf accuracy    <       0.00000046 Ry
     smearing contrib. (-TS)   =      -0.02291999 Ry
     internal energy E=F+TS    =   -7738.29433307 Ry

     The total energy is F=E-TS. E is the sum of the following terms:
     one-electron contribution =  -94545.83232969 Ry
     hartree contribution      =   47890.08492265 Ry
     xc contribution           =   -2218.68841382 Ry
     ewald contribution        =   41137.94641406 Ry
     Dispersion Correction     =      -1.80498932 Ry
     electric field correction =       0.00006305 Ry

     total magnetization       =    88.46 Bohr mag/cell
     absolute magnetization    =    89.84 Bohr mag/cell

     convergence has been achieved in  63 iterations

     negative rho (up, down):  1.051E-03 5.881E-04

     Forces acting on atoms (cartesian axes, Ry/au):

     atom    1 type  1   force =    -0.00049908   -0.00032375   -0.00008946
     atom    2 type  2   force =    -0.00029556    0.00040830   -0.00007893
     atom    3 type  1   force =     0.00017907    0.00031221    0.00024424
     atom    4 type  1   force =    -0.00043304    0.00095492   -0.00044796
     atom    5 type  1   force =    -0.00027373    0.00062974   -0.00030067
     atom    6 type  1   force =     0.00053162    0.00063783   -0.00089517
     atom    7 type  3   force =     0.00025089    0.00036137   -0.00036867
     atom    8 type  3   force =     0.00039963    0.00013414   -0.00082777
     atom    9 type  3   force =    -0.00008484    0.00071877   -0.00003341
     atom   10 type  3   force =    -0.00099521    0.00031542    0.00020007
     atom   11 type  4   force =     0.00037202    0.00034358   -0.00041046
     atom   12 type  4   force =    -0.00041916    0.00044019   -0.00053981
     atom   13 type  4   force =     0.00027313    0.00002213   -0.00027341
     atom   14 type  4   force =    -0.00038495    0.00027693   -0.00025153
     atom   15 type  4   force =    -0.00038078    0.00050818   -0.00002862
     atom   16 type  4   force =     0.00008616    0.00054583   -0.00021805
     atom   17 type  4   force =    -0.00001246    0.00033606    0.00010817
     atom   18 type  4   force =     0.00038516    0.00022568    0.00003500
     atom   19 type  4   force =     0.00046354   -0.00022459   -0.00057206
     atom   20 type  4   force =    -0.00006067    0.00006151    0.00013375
     atom   21 type  4   force =    -0.00039804    0.00024706    0.00031497
     atom   22 type  4   force =     0.00058823    0.00020330    0.00044058
     atom   23 type  4   force =    -0.00022654    0.00025562    0.00022792
     atom   24 type  4   force =     0.00020930    0.00045735    0.00035702
     atom   25 type  4   force =    -0.00098011    0.00033564   -0.00062308
     atom   26 type  4   force =     0.00025910    0.00026026    0.00059153
     atom   27 type  1   force =    -0.00643374   -0.00901179   -0.00268230
     atom   28 type  2   force =    -0.01203544    0.00010362   -0.00177887
     atom   29 type  1   force =     0.00338951   -0.00451660   -0.00034038
     atom   30 type  1   force =     0.00230324    0.00401510   -0.00179248
     atom   31 type  1   force =     0.00201167   -0.00495090   -0.00038799
     atom   32 type  1   force =    -0.00127089    0.00122907    0.00181476
     atom   33 type  3   force =    -0.00716929   -0.00079115   -0.00040848
     atom   34 type  3   force =    -0.00573971    0.00371619   -0.00121599
     atom   35 type  3   force =     0.00354110   -0.00145276   -0.00450586
     atom   36 type  3   force =     0.00105283   -0.00121458    0.00292467
     atom   37 type  4   force =     0.00882403    0.00524847   -0.00761134
     atom   38 type  4   force =     0.00375176   -0.00110092    0.02016272
     atom   39 type  4   force =    -0.00145998    0.00386089    0.01076524
     atom   40 type  4   force =    -0.00160157   -0.00230905   -0.00889067
     atom   41 type  4   force =     0.00212303    0.00855175    0.00653219
     atom   42 type  4   force =    -0.00452139   -0.00348508   -0.01681231
     atom   43 type  4   force =     0.01056294    0.00506854   -0.00753943
     atom   44 type  4   force =     0.00726873   -0.00305291    0.00602319
     atom   45 type  4   force =     0.00230226    0.00584718   -0.00067804
     atom   46 type  4   force =     0.00259233    0.00064703    0.00603794
     atom   47 type  4   force =    -0.01327262    0.00022601    0.00333121
     atom   48 type  4   force =    -0.01414897    0.00206059   -0.00312322
     atom   49 type  4   force =     0.01303702    0.00232422   -0.00477951
     atom   50 type  4   force =    -0.00347550   -0.00478770    0.00056966
     atom   51 type  4   force =    -0.00432369    0.00270534   -0.00071180
     atom   52 type  4   force =     0.01637186   -0.00323232    0.00421484
     atom   53 type  1   force =    -0.00756552   -0.00717185   -0.00848779
     atom   54 type  2   force =     0.01576256    0.01725530   -0.00988210
     atom   55 type  1   force =     0.00581210   -0.00475066   -0.00597089
     atom   56 type  1   force =    -0.02054150    0.01929376    0.01985812
     atom   57 type  1   force =     0.00445963   -0.00759691   -0.00159347
     atom   58 type  1   force =    -0.00392401   -0.00534147   -0.00096440
     atom   59 type  3   force =    -0.03902596   -0.03835732   -0.05605670
     atom   60 type  3   force =    -0.00495856   -0.00126686   -0.00116706
     atom   61 type  3   force =     0.00273167   -0.00101470   -0.01012353
     atom   62 type  3   force =     0.02910579   -0.04951120   -0.06059145
     atom   63 type  4   force =     0.00628466    0.00352093    0.02094707
     atom   64 type  4   force =     0.00452047    0.00228244    0.01461252
     atom   65 type  4   force =    -0.00067575    0.00292108    0.01275001
     atom   66 type  4   force =     0.00013022    0.00215903    0.01615329
     atom   67 type  4   force =     0.00107994   -0.00060427    0.03916517
     atom   68 type  4   force =    -0.00566167   -0.00396898   -0.01722884
     atom   69 type  4   force =     0.00781810    0.00449904   -0.00261251
     atom   70 type  4   force =     0.00173916   -0.00734208    0.03545738
     atom   71 type  4   force =    -0.00913866    0.03910675    0.00096529
     atom   72 type  4   force =     0.00228028   -0.00045175    0.00792581
     atom   73 type  4   force =    -0.03004193    0.00086952    0.00765200
     atom   74 type  4   force =    -0.01348680    0.00143634   -0.00043859
     atom   75 type  4   force =     0.01187213    0.00348820   -0.00252537
     atom   76 type  4   force =    -0.00236510   -0.00284956    0.00255888
     atom   77 type  4   force =     0.00919190    0.02574803   -0.00255307
     atom   78 type  4   force =     0.03346906   -0.00637207    0.00619158
     atom   79 type  1   force =    -0.00041155   -0.00011515    0.00012075
     atom   80 type  2   force =    -0.00002049    0.00029180   -0.00010549
     atom   81 type  1   force =     0.00059902    0.00022648    0.00008037
     atom   82 type  1   force =    -0.00008451    0.00108211   -0.00020250
     atom   83 type  1   force =    -0.00073253    0.00068967    0.00034216
     atom   84 type  1   force =     0.00039039    0.00014369   -0.00058073
     atom   85 type  3   force =     0.00021290    0.00044492   -0.00024204
     atom   86 type  3   force =     0.00008917   -0.00018689   -0.00092606
     atom   87 type  3   force =    -0.00035183    0.00049346   -0.00007846
     atom   88 type  3   force =    -0.00079002    0.00088242    0.00026498
     atom   89 type  4   force =    -0.00009336    0.00059314   -0.00029726
     atom   90 type  4   force =    -0.00057168    0.00021008   -0.00022935
     atom   91 type  4   force =     0.00064171   -0.00055998    0.00025588
     atom   92 type  4   force =    -0.00055716    0.00030238   -0.00034229
     atom   93 type  4   force =    -0.00007687    0.00039510    0.00007648
     atom   94 type  4   force =    -0.00009960    0.00032079   -0.00010306
     atom   95 type  4   force =     0.00005545   -0.00026829   -0.00019308
     atom   96 type  4   force =     0.00021975    0.00029414   -0.00048090
     atom   97 type  4   force =     0.00022218   -0.00024686   -0.00021012
     atom   98 type  4   force =     0.00029219    0.00061259   -0.00017387
     atom   99 type  4   force =    -0.00026065    0.00013664    0.00067802
     atom  100 type  4   force =    -0.00059805    0.00022782    0.00003597
     atom  101 type  4   force =    -0.00051917    0.00029085    0.00015421
     atom  102 type  4   force =     0.00003099    0.00042808    0.00041857
     atom  103 type  4   force =    -0.00051983    0.00028400   -0.00046787
     atom  104 type  4   force =     0.00049637    0.00025058   -0.00004760
     atom  105 type  1   force =    -0.00668309   -0.00750605   -0.00175822
     atom  106 type  2   force =    -0.01231107   -0.00010902   -0.00159652
     atom  107 type  1   force =     0.00388517   -0.00431843    0.00025461
     atom  108 type  1   force =     0.00239738    0.00404754   -0.00168930
     atom  109 type  1   force =     0.00152520   -0.00489682   -0.00020975
     atom  110 type  1   force =    -0.00105017    0.00142017    0.00191817
     atom  111 type  3   force =    -0.00698517   -0.00092709    0.00011956
     atom  112 type  3   force =    -0.00675544    0.00426786   -0.00242189
     atom  113 type  3   force =     0.00391371   -0.00301509   -0.00322902
     atom  114 type  3   force =     0.00118717   -0.00123614    0.00294444
     atom  115 type  4   force =     0.00863483    0.00510111   -0.00785537
     atom  116 type  4   force =     0.00467457   -0.00229774    0.01988568
     atom  117 type  4   force =    -0.00111766    0.00414631    0.01040515
     atom  118 type  4   force =    -0.00162837   -0.00247845   -0.00894925
     atom  119 type  4   force =     0.00202681    0.00834400    0.00619286
     atom  120 type  4   force =    -0.00462859   -0.00385365   -0.01888706
     atom  121 type  4   force =     0.00992584    0.00544510   -0.00684729
     atom  122 type  4   force =     0.00705323   -0.00302851    0.00601078
     atom  123 type  4   force =     0.00205047    0.00589398   -0.00062270
     atom  124 type  4   force =     0.00295557    0.00170374    0.00507882
     atom  125 type  4   force =    -0.01309972    0.00017441    0.00325120
     atom  126 type  4   force =    -0.01475258    0.00243274   -0.00304102
     atom  127 type  4   force =     0.01242363    0.00191352   -0.00475184
     atom  128 type  4   force =    -0.00368622   -0.00460055    0.00044081
     atom  129 type  4   force =    -0.00444323    0.00273893   -0.00061633
     atom  130 type  4   force =     0.01642052   -0.00326742    0.00400084
     atom  131 type  1   force =    -0.00746020   -0.00726433   -0.00849132
     atom  132 type  2   force =     0.01578542    0.01727070   -0.00992238
     atom  133 type  1   force =     0.00580133   -0.00475106   -0.00598554
     atom  134 type  1   force =    -0.02053126    0.01929590    0.01985108
     atom  135 type  1   force =     0.00448710   -0.00761963   -0.00160459
     atom  136 type  1   force =    -0.00390100   -0.00535337   -0.00096662
     atom  137 type  3   force =    -0.03899414   -0.03830649   -0.05611653
     atom  138 type  3   force =    -0.00478449   -0.00134466   -0.00110941
     atom  139 type  3   force =     0.00271390   -0.00092999   -0.01013096
     atom  140 type  3   force =     0.02908610   -0.04950511   -0.06059736
     atom  141 type  4   force =     0.00623917    0.00351846    0.02109077
     atom  142 type  4   force =     0.00431557    0.00239008    0.01470391
     atom  143 type  4   force =    -0.00061351    0.00280789    0.01281038
     atom  144 type  4   force =     0.00018237    0.00224641    0.01636483
     atom  145 type  4   force =     0.00123175   -0.00060431    0.03916960
     atom  146 type  4   force =    -0.00549068   -0.00391903   -0.01730548
     atom  147 type  4   force =     0.00780470    0.00453562   -0.00280509
     atom  148 type  4   force =     0.00163730   -0.00738450    0.03550725
     atom  149 type  4   force =    -0.00931428    0.03910488    0.00096201
     atom  150 type  4   force =     0.00206423   -0.00053510    0.00793475
     atom  151 type  4   force =    -0.02993437    0.00087437    0.00765964
     atom  152 type  4   force =    -0.01357597    0.00142315   -0.00044120
     atom  153 type  4   force =     0.01213639    0.00363828   -0.00251944
     atom  154 type  4   force =    -0.00242500   -0.00271164    0.00246403
     atom  155 type  4   force =     0.00910080    0.02575450   -0.00260865
     atom  156 type  4   force =     0.03341401   -0.00619665    0.00603672
     atom  157 type  4   force =     0.00414701    0.00188476   -0.00205733
     atom  158 type  5   force =    -0.00372328   -0.00175984    0.00247953

     Total force =     0.236802     Total SCF correction =     0.002872
 
     init_run     :      9.33s CPU     10.22s WALL (       1 calls)
     electrons    :    888.98s CPU    936.91s WALL (       1 calls)
     forces       :      4.14s CPU      4.55s WALL (       1 calls)
     force_london :      0.11s CPU      0.11s WALL (       1 calls)

     Called by init_run:
     wfcinit      :      5.60s CPU      5.89s WALL (       1 calls)
     potinit      :      0.59s CPU      0.75s WALL (       1 calls)
     hinit0       :      1.49s CPU      1.59s WALL (       1 calls)

     Called by electrons:
     c_bands      :    707.41s CPU    732.66s WALL (      63 calls)
     sum_band     :    113.27s CPU    124.86s WALL (      63 calls)
     v_of_rho     :     15.56s CPU     17.18s WALL (      64 calls)
     newd         :     35.43s CPU     44.90s WALL (      64 calls)
     mix_rho      :     17.15s CPU     17.25s WALL (      63 calls)
     energy_londo :      0.11s CPU      0.11s WALL (       1 calls)

     Called by c_bands:
     init_us_2    :      1.77s CPU      1.85s WALL (     256 calls)
     init_us_2:cp :      1.77s CPU      1.85s WALL (     256 calls)
     regterg      :    691.38s CPU    716.35s WALL (     129 calls)

     Called by *egterg:
     rdiaghg      :    198.04s CPU    210.81s WALL (     562 calls)
     h_psi        :    261.79s CPU    267.56s WALL (     564 calls)
     s_psi        :     48.96s CPU     49.01s WALL (     564 calls)
     g_psi        :      0.38s CPU      0.38s WALL (     433 calls)

     Called by h_psi:
     h_psi:calbec :     66.62s CPU     71.17s WALL (     564 calls)
     vloc_psi     :    145.59s CPU    146.24s WALL (     564 calls)
     add_vuspsi   :     49.06s CPU     49.62s WALL (     564 calls)

     General routines
     calbec       :     98.03s CPU    104.94s WALL (     698 calls)
     fft          :     15.17s CPU     17.39s WALL (    1165 calls)
     ffts         :     10.83s CPU     10.87s WALL (    7817 calls)
     fftw         :    163.85s CPU    164.53s WALL (  217978 calls)
     interpolate  :      1.10s CPU      1.35s WALL (     128 calls)
 
     Parallel routines
 
     PWSCF        :  15m 4.54s CPU  15m54.10s WALL

 
   This run was terminated on:  21: 4:26  19Nov2025            

=------------------------------------------------------------------------------=
   JOB DONE.
=------------------------------------------------------------------------------=
