
     Program PWSCF v.7.2 starts on 17Nov2025 at 23:22: 2 

     This program is part of the open-source Quantum ESPRESSO suite
     for quantum simulation of materials; please cite
         "P. Giannozzi et al., J. Phys.:Condens. Matter 21 395502 (2009);
         "P. Giannozzi et al., J. Phys.:Condens. Matter 29 465901 (2017);
         "P. Giannozzi et al., J. Chem. Phys. 152 154105 (2020);
          URL http://www.quantum-espresso.org", 
     in publications or presentations arising from this work. More details at
     http://www.quantum-espresso.org/quote

     Parallel version (MPI), running on    64 processors

     MPI processes distributed on     4 nodes
     468630 MiB available memory on the printing compute node when the environment starts
 
     Reading input from PWINPUT_atm157_zp

     Current dimensions of program PWSCF are:
     Max number of different atomic species (ntypx) = 10
     Max number of k-points (npk) =  40000
     Max angular momentum in pseudopotentials (lmaxx) =  4
     Presently no symmetry can be used with electric field

     file Ni.pbe-n-rrkjus_psl.1.0.0.UPF: wavefunction(s)  3D renormalized
     file Mn.pbe-spn-rrkjus_psl.0.3.1.UPF: wavefunction(s)  3D renormalized
     file O.pbe-rrkjus.UPF: wavefunction(s)  2S renormalized
     file H.pbe-rrkjus.UPF: wavefunction(s)  1S renormalized

     gamma-point specific algorithms are used
 
     R & G space division:  proc/nbgrp/npool/nimage =      64
     Subspace diagonalization in iterative solution of the eigenvalue problem:
     one sub-group per band group will be used
     custom distributed-memory algorithm (size of sub-group:  7*  7 procs)

 
     Parallelization info
     --------------------
     sticks:   dense  smooth     PW     G-vecs:    dense   smooth      PW
     Min         207      82     20                60552    15302    1896
     Max         210      84     22                60574    15336    1950
     Sum       13325    5345   1333              3876045   980655  122653
 
     Using Slab Decomposition
 


     bravais-lattice index     =            0
     lattice parameter (alat)  =      17.4067  a.u.
     unit-cell volume          =   20529.8182 (a.u.)^3
     number of atoms/cell      =          158
     number of atomic types    =            5
     number of electrons       =      1093.00
     number of Kohn-Sham states=          656
     kinetic-energy cutoff     =      50.0000  Ry
     charge density cutoff     =     500.0000  Ry
     scf convergence threshold =      1.0E-06
     mixing beta               =       0.1000
     number of iterations used =            8  local-TF  mixing
     Exchange-correlation=  SLA  PW   PBE  PBE
                           (   1   4   3   4   0   0   0)

     celldm(1)=  17.406729  celldm(2)=   0.000000  celldm(3)=   0.000000
     celldm(4)=   0.000000  celldm(5)=   0.000000  celldm(6)=   0.000000

     crystal axes: (cart. coord. in units of alat)
               a(1) = (   1.000000   0.000000   0.000000 )  
               a(2) = (  -0.001404   1.105696   0.000000 )  
               a(3) = (   0.000000   0.000000   3.520448 )  

     reciprocal axes: (cart. coord. in units 2 pi/alat)
               b(1) = (  1.000000  0.001270  0.000000 )  
               b(2) = (  0.000000  0.904408  0.000000 )  
               b(3) = (  0.000000  0.000000  0.284055 )  


     PseudoPot. # 1 for Ni read from file:
     ~/PSEUDO/Ni.pbe-n-rrkjus_psl.1.0.0.UPF
     MD5 check sum: Not computed, couldn't open file
     Pseudo is Ultrasoft + core correction, Zval = 10.0
     Generated using "atomic" code by A. Dal Corso  v.5.1.2
     Using radial grid of 1195 points,  6 beta functions with: 
                l(1) =   0
                l(2) =   0
                l(3) =   1
                l(4) =   1
                l(5) =   2
                l(6) =   2
     Q(r) pseudized with 0 coefficients 


     PseudoPot. # 2 for Mn read from file:
     ~/PSEUDO/Mn.pbe-spn-rrkjus_psl.0.3.1.UPF
     MD5 check sum: Not computed, couldn't open file
     Pseudo is Ultrasoft + core correction, Zval = 15.0
     Generated using &quot;atomic&quot; code by A. Dal Corso  v.6.2.2
     Using radial grid of 1187 points,  6 beta functions with: 
                l(1) =   0
                l(2) =   0
                l(3) =   1
                l(4) =   1
                l(5) =   2
                l(6) =   2
     Q(r) pseudized with 0 coefficients 


     PseudoPot. # 3 for P  read from file:
     ~/PSEUDO/P.pbe-n-rrkjus_psl.1.0.0.UPF
     MD5 check sum: Not computed, couldn't open file
     Pseudo is Ultrasoft + core correction, Zval =  5.0
     Generated using "atomic" code by A. Dal Corso  v.5.1
     Using radial grid of 1147 points,  6 beta functions with: 
                l(1) =   0
                l(2) =   0
                l(3) =   1
                l(4) =   1
                l(5) =   2
                l(6) =   2
     Q(r) pseudized with 0 coefficients 


     PseudoPot. # 4 for O  read from file:
     ~/PSEUDO/O.pbe-rrkjus.UPF
     MD5 check sum: Not computed, couldn't open file
     Pseudo is Ultrasoft, Zval =  6.0
     Generated by new atomic code, or converted to UPF format
     Using radial grid of 1269 points,  4 beta functions with: 
                l(1) =   0
                l(2) =   0
                l(3) =   1
                l(4) =   1
     Q(r) pseudized with 0 coefficients 


     PseudoPot. # 5 for H  read from file:
     ~/PSEUDO/H.pbe-rrkjus.UPF
     MD5 check sum: Not computed, couldn't open file
     Pseudo is Ultrasoft, Zval =  1.0
     Generated by new atomic code, or converted to UPF format
     Using radial grid of 1061 points,  2 beta functions with: 
                l(1) =   0
                l(2) =   0
     Q(r) pseudized with 0 coefficients 


     atomic species   valence    mass     pseudopotential
     Ni               10.00    58.69300     Ni( 1.00)
     Mn               15.00    54.93800     Mn( 1.00)
     P                 5.00    30.97300     P ( 1.00)
     O                 6.00    15.99900     O ( 1.00)
     H                 1.00     1.00790     H ( 1.00)

     Starting magnetic structure 
     atomic species   magnetization
     Ni              1.000
     Mn              1.000
     P               1.000
     O               1.000
     H               0.000

     No symmetry found



   Cartesian axes

     site n.     atom                  positions (alat units)
         1        Ni     tau(   1) = (   0.2506653   0.8550566   1.7482270  )
         2        Mn     tau(   2) = (   0.4868615   0.7893541   1.4308660  )
         3        Ni     tau(   3) = (  -0.0020905   0.3037554   1.7430097  )
         4        Ni     tau(   4) = (   0.2581845   0.2397011   1.4315278  )
         5        Ni     tau(   5) = (   0.4980783   1.1004513   1.6017203  )
         6        Ni     tau(   6) = (   0.2518422   0.5462731   1.6005047  )
         7        P      tau(   7) = (   0.2086760   0.9985220   1.4334561  )
         8        P      tau(   8) = (   0.4610745   0.6542330   1.7693768  )
         9        P      tau(   9) = (   0.2852120   0.1078232   1.7622391  )
        10        P      tau(  10) = (   0.0403977   0.4405659   1.4311024  )
        11        O      tau(  11) = (   0.1336577   0.9255702   1.5727005  )
        12        O      tau(  12) = (   0.3859844   0.7230279   1.6232271  )
        13        O      tau(  13) = (   0.3640826   0.1694454   1.6133293  )
        14        O      tau(  14) = (   0.1188105   0.3688923   1.5703532  )
        15        O      tau(  15) = (   0.1503492   0.9077861   1.3047839  )
        16        O      tau(  16) = (   0.3958379   0.7487419   1.8889350  )
        17        O      tau(  17) = (   0.3469236   0.2073723   1.8785519  )
        18        O      tau(  18) = (   0.1007453   0.3527083   1.3018906  )
        19        O      tau(  19) = (   0.0999278   0.5992574   1.4366202  )
        20        O      tau(  20) = (   0.3385595   1.0523920   1.7620033  )
        21        O      tau(  21) = (   0.3744945   0.4340276   1.4450679  )
        22        O      tau(  22) = (   0.1180138   0.1150013   1.7458001  )
        23        O      tau(  23) = (   0.1304815   0.6665087   1.7470642  )
        24        O      tau(  24) = (   0.4037610   0.4941012   1.7602096  )
        25        O      tau(  25) = (   0.1493555   0.0500451   1.4360519  )
        26        O      tau(  26) = (   0.3753238   0.9895344   1.4462146  )
        27        Ni     tau(  27) = (   0.2413539   0.8509941   1.1121345  )
        28        Mn     tau(  28) = (   0.4917018   0.7787406   0.7768134  )
        29        Ni     tau(  29) = (   0.0044877   0.2932623   1.1138982  )
        30        Ni     tau(  30) = (   0.2563139   0.2275682   0.7805625  )
        31        Ni     tau(  31) = (   0.4969120   1.0949007   0.9459116  )
        32        Ni     tau(  32) = (   0.2488318   0.5341111   0.9469721  )
        33        P      tau(  33) = (   0.2076029   0.9882917   0.7835381  )
        34        P      tau(  34) = (   0.4577012   0.6460068   1.1076436  )
        35        P      tau(  35) = (   0.2881931   0.0932770   1.1104179  )
        36        P      tau(  36) = (   0.0392916   0.4238898   0.7837243  )
        37        O      tau(  37) = (   0.1306755   0.9148866   0.9233554  )
        38        O      tau(  38) = (   0.3789780   0.7172835   0.9680652  )
        39        O      tau(  39) = (   0.3654852   0.1662865   0.9702638  )
        40        O      tau(  40) = (   0.1163776   0.3546954   0.9254186  )
        41        O      tau(  41) = (   0.1502901   0.8969129   0.6541592  )
        42        O      tau(  42) = (   0.3974525   0.7354243   1.2370031  )
        43        O      tau(  43) = (   0.3483097   0.1789497   1.2412670  )
        44        O      tau(  44) = (   0.0974932   0.3376387   0.6529083  )
        45        O      tau(  45) = (   0.0984699   0.5818903   0.7881021  )
        46        O      tau(  46) = (   0.3459978   1.0405493   1.1018526  )
        47        O      tau(  47) = (   0.3731719   0.4204123   0.7945555  )
        48        O      tau(  48) = (   0.1223503   0.0989699   1.1000566  )
        49        O      tau(  49) = (   0.1235438   0.6536772   1.0980598  )
        50        O      tau(  50) = (   0.4004339   0.4872435   1.1047245  )
        51        O      tau(  51) = (   0.1476543   0.0398268   0.7872561  )
        52        O      tau(  52) = (   0.3728637   0.9843360   0.7931368  )
        53        Ni     tau(  53) = (   0.2406075   0.8410745   0.4603118  )
        54        Mn     tau(  54) = (   0.4909555   0.7688210   0.1249907  )
        55        Ni     tau(  55) = (   0.0037414   0.2833427   0.4620755  )
        56        Ni     tau(  56) = (   0.2555676   0.2176485   0.1287398  )
        57        Ni     tau(  57) = (   0.4961657   1.0849810   0.2940889  )
        58        Ni     tau(  58) = (   0.2480854   0.5241915   0.2951494  )
        59        P      tau(  59) = (   0.2068565   0.9783721   0.1317154  )
        60        P      tau(  60) = (   0.4569549   0.6360871   0.4558210  )
        61        P      tau(  61) = (   0.2874467   0.0833574   0.4585952  )
        62        P      tau(  62) = (   0.0385452   0.4139702   0.1319017  )
        63        O      tau(  63) = (   0.1299291   0.9049669   0.2715327  )
        64        O      tau(  64) = (   0.3782317   0.7073639   0.3162425  )
        65        O      tau(  65) = (   0.3647389   0.1563669   0.3184411  )
        66        O      tau(  66) = (   0.1156313   0.3447757   0.2735959  )
        67        O      tau(  67) = (   0.1495437   0.8869933   0.0023366  )
        68        O      tau(  68) = (   0.3967062   0.7255047   0.5851804  )
        69        O      tau(  69) = (   0.3475634   0.1690300   0.5894443  )
        70        O      tau(  70) = (   0.0967469   0.3277190   0.0010856  )
        71        O      tau(  71) = (   0.0977236   0.5719706   0.1362794  )
        72        O      tau(  72) = (   0.3452514   1.0306297   0.4500300  )
        73        O      tau(  73) = (   0.3724256   0.4104926   0.1427328  )
        74        O      tau(  74) = (   0.1216040   0.0890503   0.4482339  )
        75        O      tau(  75) = (   0.1227974   0.6437575   0.4462371  )
        76        O      tau(  76) = (   0.3996875   0.4773239   0.4529018  )
        77        O      tau(  77) = (   0.1469079   0.0299071   0.1354334  )
        78        O      tau(  78) = (   0.3721173   0.9744163   0.1413141  )
        79        Ni     tau(  79) = (   0.7414379   0.8631934   1.7811905  )
        80        Mn     tau(  80) = (   0.9841778   0.7888082   1.4314224  )
        81        Ni     tau(  81) = (   0.4981575   0.2996622   1.7438399  )
        82        Ni     tau(  82) = (   0.7578892   0.2404171   1.4315495  )
        83        Ni     tau(  83) = (   0.9960243   1.1035763   1.5974106  )
        84        Ni     tau(  84) = (   0.7511014   0.5491218   1.6034046  )
        85        P      tau(  85) = (   0.7087866   0.9973915   1.4351950  )
        86        P      tau(  86) = (   0.9628486   0.6621696   1.7637363  )
        87        P      tau(  87) = (   0.7871746   0.1114899   1.7616375  )
        88        P      tau(  88) = (   0.5410567   0.4395544   1.4323437  )
        89        O      tau(  89) = (   0.6354630   0.9223360   1.5730365  )
        90        O      tau(  90) = (   0.8842257   0.7257126   1.6195033  )
        91        O      tau(  91) = (   0.8650973   0.1749877   1.6118653  )
        92        O      tau(  92) = (   0.6191862   0.3687812   1.5717219  )
        93        O      tau(  93) = (   0.6506723   0.9089988   1.3043577  )
        94        O      tau(  94) = (   0.9054210   0.7593145   1.8845788  )
        95        O      tau(  95) = (   0.8458988   0.2143962   1.8769408  )
        96        O      tau(  96) = (   0.6009712   0.3522741   1.3025522  )
        97        O      tau(  97) = (   0.5994071   0.5984853   1.4384741  )
        98        O      tau(  98) = (   0.8467958   1.0589836   1.7578834  )
        99        O      tau(  99) = (   0.8740438   0.4364663   1.4443826  )
       100        O      tau( 100) = (   0.6200794   0.1160167   1.7440992  )
       101        O      tau( 101) = (   0.6282264   0.6595953   1.7561119  )
       102        O      tau( 102) = (   0.9078379   0.5006245   1.7604184  )
       103        O      tau( 103) = (   0.6500092   0.0493715   1.4390795  )
       104        O      tau( 104) = (   0.8760524   0.9898930   1.4442019  )
       105        Ni     tau( 105) = (   0.7413539   0.8509941   1.1121345  )
       106        Mn     tau( 106) = (   0.9917018   0.7787406   0.7768134  )
       107        Ni     tau( 107) = (   0.5044877   0.2932623   1.1138982  )
       108        Ni     tau( 108) = (   0.7563139   0.2275682   0.7805625  )
       109        Ni     tau( 109) = (   0.9969120   1.0949007   0.9459116  )
       110        Ni     tau( 110) = (   0.7488318   0.5341111   0.9469721  )
       111        P      tau( 111) = (   0.7076029   0.9882917   0.7835381  )
       112        P      tau( 112) = (   0.9577012   0.6460068   1.1076436  )
       113        P      tau( 113) = (   0.7881931   0.0932770   1.1104179  )
       114        P      tau( 114) = (   0.5392916   0.4238898   0.7837243  )
       115        O      tau( 115) = (   0.6306755   0.9148866   0.9233554  )
       116        O      tau( 116) = (   0.8789780   0.7172835   0.9680652  )
       117        O      tau( 117) = (   0.8654852   0.1662865   0.9702638  )
       118        O      tau( 118) = (   0.6163776   0.3546954   0.9254186  )
       119        O      tau( 119) = (   0.6502901   0.8969129   0.6541592  )
       120        O      tau( 120) = (   0.8974525   0.7354243   1.2370031  )
       121        O      tau( 121) = (   0.8483097   0.1789497   1.2412670  )
       122        O      tau( 122) = (   0.5974932   0.3376387   0.6529083  )
       123        O      tau( 123) = (   0.5984699   0.5818903   0.7881021  )
       124        O      tau( 124) = (   0.8459978   1.0405493   1.1018526  )
       125        O      tau( 125) = (   0.8731719   0.4204123   0.7945555  )
       126        O      tau( 126) = (   0.6223503   0.0989699   1.1000566  )
       127        O      tau( 127) = (   0.6235438   0.6536772   1.0980598  )
       128        O      tau( 128) = (   0.9004339   0.4872435   1.1047245  )
       129        O      tau( 129) = (   0.6476543   0.0398268   0.7872561  )
       130        O      tau( 130) = (   0.8728637   0.9843360   0.7931368  )
       131        Ni     tau( 131) = (   0.7406075   0.8410745   0.4603118  )
       132        Mn     tau( 132) = (   0.9909555   0.7688210   0.1249907  )
       133        Ni     tau( 133) = (   0.5037414   0.2833427   0.4620755  )
       134        Ni     tau( 134) = (   0.7555676   0.2176485   0.1287398  )
       135        Ni     tau( 135) = (   0.9961657   1.0849810   0.2940889  )
       136        Ni     tau( 136) = (   0.7480854   0.5241915   0.2951494  )
       137        P      tau( 137) = (   0.7068565   0.9783721   0.1317154  )
       138        P      tau( 138) = (   0.9569549   0.6360871   0.4558210  )
       139        P      tau( 139) = (   0.7874467   0.0833574   0.4585952  )
       140        P      tau( 140) = (   0.5385452   0.4139702   0.1319017  )
       141        O      tau( 141) = (   0.6299291   0.9049669   0.2715327  )
       142        O      tau( 142) = (   0.8782317   0.7073639   0.3162425  )
       143        O      tau( 143) = (   0.8647389   0.1563669   0.3184411  )
       144        O      tau( 144) = (   0.6156313   0.3447757   0.2735959  )
       145        O      tau( 145) = (   0.6495437   0.8869933   0.0023366  )
       146        O      tau( 146) = (   0.8967062   0.7255047   0.5851804  )
       147        O      tau( 147) = (   0.8475634   0.1690300   0.5894443  )
       148        O      tau( 148) = (   0.5967469   0.3277190   0.0010856  )
       149        O      tau( 149) = (   0.5977236   0.5719706   0.1362794  )
       150        O      tau( 150) = (   0.8452514   1.0306297   0.4500300  )
       151        O      tau( 151) = (   0.8724256   0.4104926   0.1427328  )
       152        O      tau( 152) = (   0.6216040   0.0890503   0.4482339  )
       153        O      tau( 153) = (   0.6227974   0.6437575   0.4462371  )
       154        O      tau( 154) = (   0.8996875   0.4773239   0.4529018  )
       155        O      tau( 155) = (   0.6469079   0.0299071   0.1354334  )
       156        O      tau( 156) = (   0.8721173   0.9744163   0.1413141  )
       157        O      tau( 157) = (   0.6206852   0.9487225   1.9121960  )
       158        H      tau( 158) = (   0.5390407   0.8844830   1.9390630  )

     -------------------------------------------------
     Parameters for Dispersion (Grimme-D2) Correction:
     -------------------------------------------------
       atom      VdW radius       C_6     

        Ni         2.952        374.666
        Mn         2.952        374.666
        P          3.222        271.980
        O          2.536         24.284
        H          1.892          4.857

     number of k points=     1  Gaussian smearing, width (Ry)=  0.0100
                       cart. coord. in units 2pi/alat
        k(    1) = (   0.0000000   0.0000000   0.0000000), wk =   1.0000000

     Dense  grid:  1938023 G-vectors     FFT dimensions: ( 125, 144, 450)

     Smooth grid:   490328 G-vectors     FFT dimensions: (  80,  90, 288)

     Estimated max dynamical RAM per process >     326.29 MB

     Estimated total dynamical RAM >      20.39 GB

     Check: negative core charge=   -0.000001
     Generating pointlists ...
     new r_m :   0.0815 (alat units)  1.4191 (a.u.) for type    1
     new r_m :   0.0905 (alat units)  1.5759 (a.u.) for type    2
     new r_m :   0.0681 (alat units)  1.1852 (a.u.) for type    3
     new r_m :   0.0443 (alat units)  0.7705 (a.u.) for type    4
     new r_m :   0.0443 (alat units)  0.7705 (a.u.) for type    5

     Initial potential from superposition of free atoms

     starting charge    1092.8893, renormalised to    1093.0000

     negative rho (up, down):  1.394E-03 4.563E-04
 
     Adding external electric field

     Computed dipole along edir(3) : 
        Dipole                1.6566 Ry au,          4.2107 Debye
        Dipole field          0.0010 Ry au, 
 
        Potential amp.       -0.1118 Ry
        Total length         55.1515 bohr
 
 
     Adding external electric field

     Computed dipole along edir(3) : 
        Dipole                1.6566 Ry au,          4.2107 Debye
        Dipole field          0.0010 Ry au, 
 
        Potential amp.       -0.1118 Ry
        Total length         55.1515 bohr
 
     Starting wfcs are  815 randomized atomic wfcs

     total cpu time spent up to now is        9.6 secs

     Self-consistent Calculation

     iteration #  1     ecut=    50.00 Ry     beta= 0.10
     Davidson diagonalization with overlap
     ethr =  1.00E-02,  avg # of iterations =  6.0

     negative rho (up, down):  4.038E-01 6.592E-06
 
     Adding external electric field

     Computed dipole along edir(3) : 
        Dipole               -3.2790 Ry au,         -8.3345 Debye
        Dipole field         -0.0020 Ry au, 
 
        Potential amp.        0.2214 Ry
        Total length         55.1515 bohr
 
 
     Adding external electric field

     Computed dipole along edir(3) : 
        Dipole               -3.2790 Ry au,         -8.3345 Debye
        Dipole field         -0.0020 Ry au, 
 
        Potential amp.        0.2214 Ry
        Total length         55.1515 bohr
 

     total cpu time spent up to now is       36.0 secs

     total energy              =   -7520.40150558 Ry
     estimated scf accuracy    <     800.33162040 Ry

     total magnetization       =   219.00 Bohr mag/cell
     absolute magnetization    =   307.99 Bohr mag/cell

     iteration #  2     ecut=    50.00 Ry     beta= 0.10
     Davidson diagonalization with overlap
     ethr =  1.00E-02,  avg # of iterations =  2.0

     negative rho (up, down):  3.697E-01 5.050E-06
 
     Adding external electric field

     Computed dipole along edir(3) : 
        Dipole               -2.4354 Ry au,         -6.1901 Debye
        Dipole field         -0.0015 Ry au, 
 
        Potential amp.        0.1644 Ry
        Total length         55.1515 bohr
 
 
     Adding external electric field

     Computed dipole along edir(3) : 
        Dipole               -2.4354 Ry au,         -6.1901 Debye
        Dipole field         -0.0015 Ry au, 
 
        Potential amp.        0.1644 Ry
        Total length         55.1515 bohr
 

     total cpu time spent up to now is       52.1 secs

     total energy              =   -7603.34988545 Ry
     estimated scf accuracy    <     160.59744526 Ry

     total magnetization       =   153.14 Bohr mag/cell
     absolute magnetization    =   203.47 Bohr mag/cell

     iteration #  3     ecut=    50.00 Ry     beta= 0.10
     Davidson diagonalization with overlap
     ethr =  1.00E-02,  avg # of iterations =  1.5

     negative rho (up, down):  3.224E-01 5.596E-06
 
     Adding external electric field

     Computed dipole along edir(3) : 
        Dipole               -1.9848 Ry au,         -5.0448 Debye
        Dipole field         -0.0012 Ry au, 
 
        Potential amp.        0.1340 Ry
        Total length         55.1515 bohr
 
 
     Adding external electric field

     Computed dipole along edir(3) : 
        Dipole               -1.9848 Ry au,         -5.0448 Debye
        Dipole field         -0.0012 Ry au, 
 
        Potential amp.        0.1340 Ry
        Total length         55.1515 bohr
 

     total cpu time spent up to now is       64.3 secs

     total energy              =   -7636.47905906 Ry
     estimated scf accuracy    <     102.78639176 Ry

     total magnetization       =   131.01 Bohr mag/cell
     absolute magnetization    =   182.52 Bohr mag/cell

     iteration #  4     ecut=    50.00 Ry     beta= 0.10
     Davidson diagonalization with overlap
     ethr =  9.40E-03,  avg # of iterations =  1.5

     negative rho (up, down):  2.480E-01 4.205E-06
 
     Adding external electric field

     Computed dipole along edir(3) : 
        Dipole               -1.9233 Ry au,         -4.8884 Debye
        Dipole field         -0.0012 Ry au, 
 
        Potential amp.        0.1299 Ry
        Total length         55.1515 bohr
 
 
     Adding external electric field

     Computed dipole along edir(3) : 
        Dipole               -1.9233 Ry au,         -4.8884 Debye
        Dipole field         -0.0012 Ry au, 
 
        Potential amp.        0.1299 Ry
        Total length         55.1515 bohr
 

     total cpu time spent up to now is       76.2 secs

     total energy              =   -7668.71486148 Ry
     estimated scf accuracy    <      79.33475738 Ry

     total magnetization       =   113.76 Bohr mag/cell
     absolute magnetization    =   167.36 Bohr mag/cell

     iteration #  5     ecut=    50.00 Ry     beta= 0.10
     Davidson diagonalization with overlap
     ethr =  7.26E-03,  avg # of iterations =  1.0

     negative rho (up, down):  9.849E-03 2.670E-06
 
     Adding external electric field

     Computed dipole along edir(3) : 
        Dipole               -1.3524 Ry au,         -3.4375 Debye
        Dipole field         -0.0008 Ry au, 
 
        Potential amp.        0.0913 Ry
        Total length         55.1515 bohr
 
 
     Adding external electric field

     Computed dipole along edir(3) : 
        Dipole               -1.3524 Ry au,         -3.4375 Debye
        Dipole field         -0.0008 Ry au, 
 
        Potential amp.        0.0913 Ry
        Total length         55.1515 bohr
 

     total cpu time spent up to now is       87.6 secs

     total energy              =   -7728.01057735 Ry
     estimated scf accuracy    <      61.69466867 Ry

     total magnetization       =    97.00 Bohr mag/cell
     absolute magnetization    =   150.31 Bohr mag/cell

     iteration #  6     ecut=    50.00 Ry     beta= 0.10
     Davidson diagonalization with overlap
     ethr =  5.64E-03,  avg # of iterations =  1.5

     negative rho (up, down):  1.033E-04 2.641E-04
 
     Adding external electric field

     Computed dipole along edir(3) : 
        Dipole               -1.0128 Ry au,         -2.5742 Debye
        Dipole field         -0.0006 Ry au, 
 
        Potential amp.        0.0684 Ry
        Total length         55.1515 bohr
 
 
     Adding external electric field

     Computed dipole along edir(3) : 
        Dipole               -1.0128 Ry au,         -2.5742 Debye
        Dipole field         -0.0006 Ry au, 
 
        Potential amp.        0.0684 Ry
        Total length         55.1515 bohr
 

     total cpu time spent up to now is       99.3 secs

     total energy              =   -7736.40082706 Ry
     estimated scf accuracy    <       8.91157588 Ry

     total magnetization       =    90.29 Bohr mag/cell
     absolute magnetization    =   119.82 Bohr mag/cell

     iteration #  7     ecut=    50.00 Ry     beta= 0.10
     Davidson diagonalization with overlap
     ethr =  8.15E-04,  avg # of iterations =  7.5

     negative rho (up, down):  1.063E-04 2.623E-04
 
     Adding external electric field

     Computed dipole along edir(3) : 
        Dipole               -1.0132 Ry au,         -2.5753 Debye
        Dipole field         -0.0006 Ry au, 
 
        Potential amp.        0.0684 Ry
        Total length         55.1515 bohr
 
 
     Adding external electric field

     Computed dipole along edir(3) : 
        Dipole               -1.0132 Ry au,         -2.5753 Debye
        Dipole field         -0.0006 Ry au, 
 
        Potential amp.        0.0684 Ry
        Total length         55.1515 bohr
 

     total cpu time spent up to now is      121.4 secs

     total energy              =   -7738.33343417 Ry
     estimated scf accuracy    <      19.69541108 Ry

     total magnetization       =    70.34 Bohr mag/cell
     absolute magnetization    =    87.42 Bohr mag/cell

     iteration #  8     ecut=    50.00 Ry     beta= 0.10
     Davidson diagonalization with overlap
     ethr =  8.15E-04,  avg # of iterations =  1.0

     negative rho (up, down):  9.287E-05 2.484E-04
 
     Adding external electric field

     Computed dipole along edir(3) : 
        Dipole               -1.0153 Ry au,         -2.5805 Debye
        Dipole field         -0.0006 Ry au, 
 
        Potential amp.        0.0685 Ry
        Total length         55.1515 bohr
 
 
     Adding external electric field

     Computed dipole along edir(3) : 
        Dipole               -1.0153 Ry au,         -2.5805 Debye
        Dipole field         -0.0006 Ry au, 
 
        Potential amp.        0.0685 Ry
        Total length         55.1515 bohr
 

     total cpu time spent up to now is      132.4 secs

     total energy              =   -7738.30088732 Ry
     estimated scf accuracy    <      19.97069843 Ry

     total magnetization       =    70.25 Bohr mag/cell
     absolute magnetization    =    86.99 Bohr mag/cell

     iteration #  9     ecut=    50.00 Ry     beta= 0.10
     Davidson diagonalization with overlap
     ethr =  8.15E-04,  avg # of iterations =  1.0

     negative rho (up, down):  1.003E-02 7.099E-03
 
     Adding external electric field

     Computed dipole along edir(3) : 
        Dipole               -1.0391 Ry au,         -2.6411 Debye
        Dipole field         -0.0006 Ry au, 
 
        Potential amp.        0.0702 Ry
        Total length         55.1515 bohr
 
 
     Adding external electric field

     Computed dipole along edir(3) : 
        Dipole               -1.0391 Ry au,         -2.6411 Debye
        Dipole field         -0.0006 Ry au, 
 
        Potential amp.        0.0702 Ry
        Total length         55.1515 bohr
 

     total cpu time spent up to now is      143.6 secs

     total energy              =   -7738.06463567 Ry
     estimated scf accuracy    <      18.10063175 Ry

     total magnetization       =    70.83 Bohr mag/cell
     absolute magnetization    =    86.97 Bohr mag/cell

     iteration # 10     ecut=    50.00 Ry     beta= 0.10
     Davidson diagonalization with overlap
     ethr =  8.15E-04,  avg # of iterations =  1.0

     negative rho (up, down):  4.505E-02 4.003E-02
 
     Adding external electric field

     Computed dipole along edir(3) : 
        Dipole               -1.1180 Ry au,         -2.8418 Debye
        Dipole field         -0.0007 Ry au, 
 
        Potential amp.        0.0755 Ry
        Total length         55.1515 bohr
 
 
     Adding external electric field

     Computed dipole along edir(3) : 
        Dipole               -1.1180 Ry au,         -2.8418 Debye
        Dipole field         -0.0007 Ry au, 
 
        Potential amp.        0.0755 Ry
        Total length         55.1515 bohr
 

     total cpu time spent up to now is      154.3 secs

     total energy              =   -7737.89904925 Ry
     estimated scf accuracy    <      13.13360483 Ry

     total magnetization       =    73.79 Bohr mag/cell
     absolute magnetization    =    88.78 Bohr mag/cell

     iteration # 11     ecut=    50.00 Ry     beta= 0.10
     Davidson diagonalization with overlap
     ethr =  8.15E-04,  avg # of iterations =  1.0

     negative rho (up, down):  7.155E-02 6.868E-02
 
     Adding external electric field

     Computed dipole along edir(3) : 
        Dipole               -1.1026 Ry au,         -2.8026 Debye
        Dipole field         -0.0007 Ry au, 
 
        Potential amp.        0.0744 Ry
        Total length         55.1515 bohr
 
 
     Adding external electric field

     Computed dipole along edir(3) : 
        Dipole               -1.1026 Ry au,         -2.8026 Debye
        Dipole field         -0.0007 Ry au, 
 
        Potential amp.        0.0744 Ry
        Total length         55.1515 bohr
 

     total cpu time spent up to now is      165.2 secs

     total energy              =   -7737.90879918 Ry
     estimated scf accuracy    <       8.18470311 Ry

     total magnetization       =    78.45 Bohr mag/cell
     absolute magnetization    =    92.00 Bohr mag/cell

     iteration # 12     ecut=    50.00 Ry     beta= 0.10
     Davidson diagonalization with overlap
     ethr =  7.49E-04,  avg # of iterations =  1.0

     negative rho (up, down):  6.606E-02 6.434E-02
 
     Adding external electric field

     Computed dipole along edir(3) : 
        Dipole               -1.0828 Ry au,         -2.7522 Debye
        Dipole field         -0.0007 Ry au, 
 
        Potential amp.        0.0731 Ry
        Total length         55.1515 bohr
 
 
     Adding external electric field

     Computed dipole along edir(3) : 
        Dipole               -1.0828 Ry au,         -2.7522 Debye
        Dipole field         -0.0007 Ry au, 
 
        Potential amp.        0.0731 Ry
        Total length         55.1515 bohr
 

     total cpu time spent up to now is      175.3 secs

     total energy              =   -7737.93170079 Ry
     estimated scf accuracy    <       6.09606888 Ry

     total magnetization       =    81.24 Bohr mag/cell
     absolute magnetization    =    93.54 Bohr mag/cell

     iteration # 13     ecut=    50.00 Ry     beta= 0.10
     Davidson diagonalization with overlap
     ethr =  5.58E-04,  avg # of iterations =  1.0

     negative rho (up, down):  9.821E-02 9.682E-02
 
     Adding external electric field

     Computed dipole along edir(3) : 
        Dipole               -1.1210 Ry au,         -2.8492 Debye
        Dipole field         -0.0007 Ry au, 
 
        Potential amp.        0.0757 Ry
        Total length         55.1515 bohr
 
 
     Adding external electric field

     Computed dipole along edir(3) : 
        Dipole               -1.1210 Ry au,         -2.8492 Debye
        Dipole field         -0.0007 Ry au, 
 
        Potential amp.        0.0757 Ry
        Total length         55.1515 bohr
 

     total cpu time spent up to now is      185.6 secs

     total energy              =   -7737.87471626 Ry
     estimated scf accuracy    <       6.59508119 Ry

     total magnetization       =    79.80 Bohr mag/cell
     absolute magnetization    =    92.09 Bohr mag/cell

     iteration # 14     ecut=    50.00 Ry     beta= 0.10
     Davidson diagonalization with overlap
     ethr =  5.58E-04,  avg # of iterations =  1.0

     negative rho (up, down):  1.065E-01 1.036E-01
 
     Adding external electric field

     Computed dipole along edir(3) : 
        Dipole               -1.1664 Ry au,         -2.9646 Debye
        Dipole field         -0.0007 Ry au, 
 
        Potential amp.        0.0788 Ry
        Total length         55.1515 bohr
 
 
     Adding external electric field

     Computed dipole along edir(3) : 
        Dipole               -1.1664 Ry au,         -2.9646 Debye
        Dipole field         -0.0007 Ry au, 
 
        Potential amp.        0.0788 Ry
        Total length         55.1515 bohr
 

     total cpu time spent up to now is      196.0 secs

     total energy              =   -7738.00453274 Ry
     estimated scf accuracy    <       1.73799306 Ry

     total magnetization       =    86.68 Bohr mag/cell
     absolute magnetization    =    97.09 Bohr mag/cell

     iteration # 15     ecut=    50.00 Ry     beta= 0.10
     Davidson diagonalization with overlap
     ethr =  1.59E-04,  avg # of iterations =  2.0

     negative rho (up, down):  1.172E-01 1.182E-01
 
     Adding external electric field

     Computed dipole along edir(3) : 
        Dipole               -1.1834 Ry au,         -3.0080 Debye
        Dipole field         -0.0007 Ry au, 
 
        Potential amp.        0.0799 Ry
        Total length         55.1515 bohr
 
 
     Adding external electric field

     Computed dipole along edir(3) : 
        Dipole               -1.1834 Ry au,         -3.0080 Debye
        Dipole field         -0.0007 Ry au, 
 
        Potential amp.        0.0799 Ry
        Total length         55.1515 bohr
 

     total cpu time spent up to now is      207.9 secs

     total energy              =   -7738.10351847 Ry
     estimated scf accuracy    <       1.09485984 Ry

     total magnetization       =    88.56 Bohr mag/cell
     absolute magnetization    =    97.92 Bohr mag/cell

     iteration # 16     ecut=    50.00 Ry     beta= 0.10
     Davidson diagonalization with overlap
     c_bands:  1 eigenvalues not converged
     ethr =  1.00E-04,  avg # of iterations = 11.0

     negative rho (up, down):  6.610E-02 6.641E-02
 
     Adding external electric field

     Computed dipole along edir(3) : 
        Dipole               -1.1720 Ry au,         -2.9789 Debye
        Dipole field         -0.0007 Ry au, 
 
        Potential amp.        0.0791 Ry
        Total length         55.1515 bohr
 
 
     Adding external electric field

     Computed dipole along edir(3) : 
        Dipole               -1.1720 Ry au,         -2.9789 Debye
        Dipole field         -0.0007 Ry au, 
 
        Potential amp.        0.0791 Ry
        Total length         55.1515 bohr
 

     total cpu time spent up to now is      226.5 secs

     total energy              =   -7738.19354264 Ry
     estimated scf accuracy    <       0.95578817 Ry

     total magnetization       =    89.13 Bohr mag/cell
     absolute magnetization    =    96.74 Bohr mag/cell

     iteration # 17     ecut=    50.00 Ry     beta= 0.10
     Davidson diagonalization with overlap
     ethr =  8.74E-05,  avg # of iterations =  1.5

     negative rho (up, down):  7.403E-02 7.656E-02
 
     Adding external electric field

     Computed dipole along edir(3) : 
        Dipole               -1.1881 Ry au,         -3.0199 Debye
        Dipole field         -0.0007 Ry au, 
 
        Potential amp.        0.0802 Ry
        Total length         55.1515 bohr
 
 
     Adding external electric field

     Computed dipole along edir(3) : 
        Dipole               -1.1881 Ry au,         -3.0199 Debye
        Dipole field         -0.0007 Ry au, 
 
        Potential amp.        0.0802 Ry
        Total length         55.1515 bohr
 

     total cpu time spent up to now is      238.1 secs

     total energy              =   -7738.24522130 Ry
     estimated scf accuracy    <       1.07407782 Ry

     total magnetization       =    87.36 Bohr mag/cell
     absolute magnetization    =    93.64 Bohr mag/cell

     iteration # 18     ecut=    50.00 Ry     beta= 0.10
     Davidson diagonalization with overlap
     ethr =  8.74E-05,  avg # of iterations =  1.0

     negative rho (up, down):  1.993E-02 2.312E-02
 
     Adding external electric field

     Computed dipole along edir(3) : 
        Dipole               -1.1455 Ry au,         -2.9117 Debye
        Dipole field         -0.0007 Ry au, 
 
        Potential amp.        0.0773 Ry
        Total length         55.1515 bohr
 
 
     Adding external electric field

     Computed dipole along edir(3) : 
        Dipole               -1.1455 Ry au,         -2.9117 Debye
        Dipole field         -0.0007 Ry au, 
 
        Potential amp.        0.0773 Ry
        Total length         55.1515 bohr
 

     total cpu time spent up to now is      248.4 secs

     total energy              =   -7738.31525816 Ry
     estimated scf accuracy    <       0.69839154 Ry

     total magnetization       =    89.10 Bohr mag/cell
     absolute magnetization    =    94.19 Bohr mag/cell

     iteration # 19     ecut=    50.00 Ry     beta= 0.10
     Davidson diagonalization with overlap
     c_bands:  1 eigenvalues not converged
     ethr =  6.39E-05,  avg # of iterations = 11.0

     negative rho (up, down):  2.809E-03 3.376E-03
 
     Adding external electric field

     Computed dipole along edir(3) : 
        Dipole               -1.0748 Ry au,         -2.7318 Debye
        Dipole field         -0.0007 Ry au, 
 
        Potential amp.        0.0726 Ry
        Total length         55.1515 bohr
 
 
     Adding external electric field

     Computed dipole along edir(3) : 
        Dipole               -1.0748 Ry au,         -2.7318 Debye
        Dipole field         -0.0007 Ry au, 
 
        Potential amp.        0.0726 Ry
        Total length         55.1515 bohr
 

     total cpu time spent up to now is      266.8 secs

     total energy              =   -7738.32789090 Ry
     estimated scf accuracy    <       0.52787371 Ry

     total magnetization       =    89.42 Bohr mag/cell
     absolute magnetization    =    91.59 Bohr mag/cell

     iteration # 20     ecut=    50.00 Ry     beta= 0.10
     Davidson diagonalization with overlap
     ethr =  4.83E-05,  avg # of iterations =  2.0

     negative rho (up, down):  1.498E-03 1.753E-03
 
     Adding external electric field

     Computed dipole along edir(3) : 
        Dipole               -1.0283 Ry au,         -2.6137 Debye
        Dipole field         -0.0006 Ry au, 
 
        Potential amp.        0.0694 Ry
        Total length         55.1515 bohr
 
 
     Adding external electric field

     Computed dipole along edir(3) : 
        Dipole               -1.0283 Ry au,         -2.6137 Debye
        Dipole field         -0.0006 Ry au, 
 
        Potential amp.        0.0694 Ry
        Total length         55.1515 bohr
 

     total cpu time spent up to now is      278.6 secs

     total energy              =   -7738.33581137 Ry
     estimated scf accuracy    <       0.27810928 Ry

     total magnetization       =    89.26 Bohr mag/cell
     absolute magnetization    =    91.37 Bohr mag/cell

     iteration # 21     ecut=    50.00 Ry     beta= 0.10
     Davidson diagonalization with overlap
     ethr =  2.54E-05,  avg # of iterations =  2.0

     negative rho (up, down):  1.160E-03 1.066E-03
 
     Adding external electric field

     Computed dipole along edir(3) : 
        Dipole               -1.0054 Ry au,         -2.5554 Debye
        Dipole field         -0.0006 Ry au, 
 
        Potential amp.        0.0679 Ry
        Total length         55.1515 bohr
 
 
     Adding external electric field

     Computed dipole along edir(3) : 
        Dipole               -1.0054 Ry au,         -2.5554 Debye
        Dipole field         -0.0006 Ry au, 
 
        Potential amp.        0.0679 Ry
        Total length         55.1515 bohr
 

     total cpu time spent up to now is      290.5 secs

     total energy              =   -7738.33644216 Ry
     estimated scf accuracy    <       0.24066820 Ry

     total magnetization       =    89.32 Bohr mag/cell
     absolute magnetization    =    91.16 Bohr mag/cell

     iteration # 22     ecut=    50.00 Ry     beta= 0.10
     Davidson diagonalization with overlap
     ethr =  2.20E-05,  avg # of iterations =  2.0

     negative rho (up, down):  4.454E-04 1.629E-04
 
     Adding external electric field

     Computed dipole along edir(3) : 
        Dipole               -0.9383 Ry au,         -2.3850 Debye
        Dipole field         -0.0006 Ry au, 
 
        Potential amp.        0.0634 Ry
        Total length         55.1515 bohr
 
 
     Adding external electric field

     Computed dipole along edir(3) : 
        Dipole               -0.9383 Ry au,         -2.3850 Debye
        Dipole field         -0.0006 Ry au, 
 
        Potential amp.        0.0634 Ry
        Total length         55.1515 bohr
 

     total cpu time spent up to now is      302.5 secs

     total energy              =   -7738.31759803 Ry
     estimated scf accuracy    <       0.21968771 Ry

     total magnetization       =    89.42 Bohr mag/cell
     absolute magnetization    =    91.20 Bohr mag/cell

     iteration # 23     ecut=    50.00 Ry     beta= 0.10
     Davidson diagonalization with overlap
     ethr =  2.01E-05,  avg # of iterations = 12.0

     negative rho (up, down):  9.567E-04 3.742E-04
 
     Adding external electric field

     Computed dipole along edir(3) : 
        Dipole               -0.7898 Ry au,         -2.0074 Debye
        Dipole field         -0.0005 Ry au, 
 
        Potential amp.        0.0533 Ry
        Total length         55.1515 bohr
 
 
     Adding external electric field

     Computed dipole along edir(3) : 
        Dipole               -0.7898 Ry au,         -2.0074 Debye
        Dipole field         -0.0005 Ry au, 
 
        Potential amp.        0.0533 Ry
        Total length         55.1515 bohr
 

     total cpu time spent up to now is      324.0 secs

     total energy              =   -7738.28989753 Ry
     estimated scf accuracy    <       0.26734545 Ry

     total magnetization       =    88.64 Bohr mag/cell
     absolute magnetization    =    90.62 Bohr mag/cell

     iteration # 24     ecut=    50.00 Ry     beta= 0.10
     Davidson diagonalization with overlap
     ethr =  2.01E-05,  avg # of iterations = 10.0

     negative rho (up, down):  1.643E-03 6.095E-04
 
     Adding external electric field

     Computed dipole along edir(3) : 
        Dipole               -0.8971 Ry au,         -2.2801 Debye
        Dipole field         -0.0005 Ry au, 
 
        Potential amp.        0.0606 Ry
        Total length         55.1515 bohr
 
 
     Adding external electric field

     Computed dipole along edir(3) : 
        Dipole               -0.8971 Ry au,         -2.2801 Debye
        Dipole field         -0.0005 Ry au, 
 
        Potential amp.        0.0606 Ry
        Total length         55.1515 bohr
 

     total cpu time spent up to now is      339.7 secs

     total energy              =   -7738.28280053 Ry
     estimated scf accuracy    <       0.39248036 Ry

     total magnetization       =    88.61 Bohr mag/cell
     absolute magnetization    =    90.46 Bohr mag/cell

     iteration # 25     ecut=    50.00 Ry     beta= 0.10
     Davidson diagonalization with overlap
     ethr =  2.01E-05,  avg # of iterations =  2.0

     negative rho (up, down):  5.077E-05 4.966E-06
 
     Adding external electric field

     Computed dipole along edir(3) : 
        Dipole               -0.9051 Ry au,         -2.3006 Debye
        Dipole field         -0.0006 Ry au, 
 
        Potential amp.        0.0611 Ry
        Total length         55.1515 bohr
 
 
     Adding external electric field

     Computed dipole along edir(3) : 
        Dipole               -0.9051 Ry au,         -2.3006 Debye
        Dipole field         -0.0006 Ry au, 
 
        Potential amp.        0.0611 Ry
        Total length         55.1515 bohr
 

     total cpu time spent up to now is      351.3 secs

     total energy              =   -7738.29173964 Ry
     estimated scf accuracy    <       0.16223236 Ry

     total magnetization       =    89.04 Bohr mag/cell
     absolute magnetization    =    91.10 Bohr mag/cell

     iteration # 26     ecut=    50.00 Ry     beta= 0.10
     Davidson diagonalization with overlap
     ethr =  1.48E-05,  avg # of iterations =  2.0

     negative rho (up, down):  1.414E-03 1.090E-03
 
     Adding external electric field

     Computed dipole along edir(3) : 
        Dipole               -0.8752 Ry au,         -2.2244 Debye
        Dipole field         -0.0005 Ry au, 
 
        Potential amp.        0.0591 Ry
        Total length         55.1515 bohr
 
 
     Adding external electric field

     Computed dipole along edir(3) : 
        Dipole               -0.8752 Ry au,         -2.2244 Debye
        Dipole field         -0.0005 Ry au, 
 
        Potential amp.        0.0591 Ry
        Total length         55.1515 bohr
 

     total cpu time spent up to now is      363.2 secs

     total energy              =   -7738.29921340 Ry
     estimated scf accuracy    <       0.14157784 Ry

     total magnetization       =    89.38 Bohr mag/cell
     absolute magnetization    =    91.49 Bohr mag/cell

     iteration # 27     ecut=    50.00 Ry     beta= 0.10
     Davidson diagonalization with overlap
     ethr =  1.30E-05,  avg # of iterations =  2.0

     negative rho (up, down):  1.848E-03 1.520E-03
 
     Adding external electric field

     Computed dipole along edir(3) : 
        Dipole               -0.8702 Ry au,         -2.2118 Debye
        Dipole field         -0.0005 Ry au, 
 
        Potential amp.        0.0588 Ry
        Total length         55.1515 bohr
 
 
     Adding external electric field

     Computed dipole along edir(3) : 
        Dipole               -0.8702 Ry au,         -2.2118 Debye
        Dipole field         -0.0005 Ry au, 
 
        Potential amp.        0.0588 Ry
        Total length         55.1515 bohr
 

     total cpu time spent up to now is      374.8 secs

     total energy              =   -7738.31031733 Ry
     estimated scf accuracy    <       0.11632093 Ry

     total magnetization       =    89.24 Bohr mag/cell
     absolute magnetization    =    91.28 Bohr mag/cell

     iteration # 28     ecut=    50.00 Ry     beta= 0.10
     Davidson diagonalization with overlap
     c_bands:  3 eigenvalues not converged
     ethr =  1.06E-05,  avg # of iterations = 11.0

     negative rho (up, down):  9.338E-04 5.060E-04
 
     Adding external electric field

     Computed dipole along edir(3) : 
        Dipole               -0.8645 Ry au,         -2.1974 Debye
        Dipole field         -0.0005 Ry au, 
 
        Potential amp.        0.0584 Ry
        Total length         55.1515 bohr
 
 
     Adding external electric field

     Computed dipole along edir(3) : 
        Dipole               -0.8645 Ry au,         -2.1974 Debye
        Dipole field         -0.0005 Ry au, 
 
        Potential amp.        0.0584 Ry
        Total length         55.1515 bohr
 

     total cpu time spent up to now is      391.0 secs

     total energy              =   -7738.30508176 Ry
     estimated scf accuracy    <       0.10345447 Ry

     total magnetization       =    89.40 Bohr mag/cell
     absolute magnetization    =    91.07 Bohr mag/cell

     iteration # 29     ecut=    50.00 Ry     beta= 0.10
     Davidson diagonalization with overlap
     ethr =  9.47E-06,  avg # of iterations =  5.0

     negative rho (up, down):  2.473E-03 2.023E-03
 
     Adding external electric field

     Computed dipole along edir(3) : 
        Dipole               -0.8206 Ry au,         -2.0859 Debye
        Dipole field         -0.0005 Ry au, 
 
        Potential amp.        0.0554 Ry
        Total length         55.1515 bohr
 
 
     Adding external electric field

     Computed dipole along edir(3) : 
        Dipole               -0.8206 Ry au,         -2.0859 Debye
        Dipole field         -0.0005 Ry au, 
 
        Potential amp.        0.0554 Ry
        Total length         55.1515 bohr
 

     total cpu time spent up to now is      404.3 secs

     total energy              =   -7738.30888755 Ry
     estimated scf accuracy    <       0.08107329 Ry

     total magnetization       =    89.21 Bohr mag/cell
     absolute magnetization    =    90.89 Bohr mag/cell

     iteration # 30     ecut=    50.00 Ry     beta= 0.10
     Davidson diagonalization with overlap
     ethr =  7.42E-06,  avg # of iterations =  2.0

     negative rho (up, down):  8.176E-03 7.659E-03
 
     Adding external electric field

     Computed dipole along edir(3) : 
        Dipole               -0.7757 Ry au,         -1.9716 Debye
        Dipole field         -0.0005 Ry au, 
 
        Potential amp.        0.0524 Ry
        Total length         55.1515 bohr
 
 
     Adding external electric field

     Computed dipole along edir(3) : 
        Dipole               -0.7757 Ry au,         -1.9716 Debye
        Dipole field         -0.0005 Ry au, 
 
        Potential amp.        0.0524 Ry
        Total length         55.1515 bohr
 

     total cpu time spent up to now is      416.5 secs

     total energy              =   -7738.31197987 Ry
     estimated scf accuracy    <       0.06757836 Ry

     total magnetization       =    88.92 Bohr mag/cell
     absolute magnetization    =    90.37 Bohr mag/cell

     iteration # 31     ecut=    50.00 Ry     beta= 0.10
     Davidson diagonalization with overlap
     ethr =  6.18E-06,  avg # of iterations = 10.5

     negative rho (up, down):  1.035E-02 9.502E-03
 
     Adding external electric field

     Computed dipole along edir(3) : 
        Dipole               -0.7496 Ry au,         -1.9054 Debye
        Dipole field         -0.0005 Ry au, 
 
        Potential amp.        0.0506 Ry
        Total length         55.1515 bohr
 
 
     Adding external electric field

     Computed dipole along edir(3) : 
        Dipole               -0.7496 Ry au,         -1.9054 Debye
        Dipole field         -0.0005 Ry au, 
 
        Potential amp.        0.0506 Ry
        Total length         55.1515 bohr
 

     total cpu time spent up to now is      432.7 secs

     total energy              =   -7738.30949322 Ry
     estimated scf accuracy    <       0.09280177 Ry

     total magnetization       =    88.73 Bohr mag/cell
     absolute magnetization    =    90.14 Bohr mag/cell

     iteration # 32     ecut=    50.00 Ry     beta= 0.10
     Davidson diagonalization with overlap
     ethr =  6.18E-06,  avg # of iterations =  2.0

     negative rho (up, down):  1.045E-02 9.746E-03
 
     Adding external electric field

     Computed dipole along edir(3) : 
        Dipole               -0.7514 Ry au,         -1.9097 Debye
        Dipole field         -0.0005 Ry au, 
 
        Potential amp.        0.0507 Ry
        Total length         55.1515 bohr
 
 
     Adding external electric field

     Computed dipole along edir(3) : 
        Dipole               -0.7514 Ry au,         -1.9097 Debye
        Dipole field         -0.0005 Ry au, 
 
        Potential amp.        0.0507 Ry
        Total length         55.1515 bohr
 

     total cpu time spent up to now is      444.4 secs

     total energy              =   -7738.31195832 Ry
     estimated scf accuracy    <       0.13270954 Ry

     total magnetization       =    88.50 Bohr mag/cell
     absolute magnetization    =    89.93 Bohr mag/cell

     iteration # 33     ecut=    50.00 Ry     beta= 0.10
     Davidson diagonalization with overlap
     ethr =  6.18E-06,  avg # of iterations =  2.0

     negative rho (up, down):  8.003E-03 7.668E-03
 
     Adding external electric field

     Computed dipole along edir(3) : 
        Dipole               -0.8091 Ry au,         -2.0565 Debye
        Dipole field         -0.0005 Ry au, 
 
        Potential amp.        0.0546 Ry
        Total length         55.1515 bohr
 
 
     Adding external electric field

     Computed dipole along edir(3) : 
        Dipole               -0.8091 Ry au,         -2.0565 Debye
        Dipole field         -0.0005 Ry au, 
 
        Potential amp.        0.0546 Ry
        Total length         55.1515 bohr
 

     total cpu time spent up to now is      455.6 secs

     total energy              =   -7738.31624621 Ry
     estimated scf accuracy    <       0.13142599 Ry

     total magnetization       =    88.46 Bohr mag/cell
     absolute magnetization    =    89.86 Bohr mag/cell

     iteration # 34     ecut=    50.00 Ry     beta= 0.10
     Davidson diagonalization with overlap
     ethr =  6.18E-06,  avg # of iterations =  2.0

     negative rho (up, down):  4.158E-03 3.895E-03
 
     Adding external electric field

     Computed dipole along edir(3) : 
        Dipole               -0.8161 Ry au,         -2.0744 Debye
        Dipole field         -0.0005 Ry au, 
 
        Potential amp.        0.0551 Ry
        Total length         55.1515 bohr
 
 
     Adding external electric field

     Computed dipole along edir(3) : 
        Dipole               -0.8161 Ry au,         -2.0744 Debye
        Dipole field         -0.0005 Ry au, 
 
        Potential amp.        0.0551 Ry
        Total length         55.1515 bohr
 

     total cpu time spent up to now is      466.9 secs

     total energy              =   -7738.31518991 Ry
     estimated scf accuracy    <       0.09331124 Ry

     total magnetization       =    88.60 Bohr mag/cell
     absolute magnetization    =    90.07 Bohr mag/cell

     iteration # 35     ecut=    50.00 Ry     beta= 0.10
     Davidson diagonalization with overlap
     ethr =  6.18E-06,  avg # of iterations =  2.0

     negative rho (up, down):  3.674E-03 3.515E-03
 
     Adding external electric field

     Computed dipole along edir(3) : 
        Dipole               -0.8002 Ry au,         -2.0338 Debye
        Dipole field         -0.0005 Ry au, 
 
        Potential amp.        0.0540 Ry
        Total length         55.1515 bohr
 
 
     Adding external electric field

     Computed dipole along edir(3) : 
        Dipole               -0.8002 Ry au,         -2.0338 Debye
        Dipole field         -0.0005 Ry au, 
 
        Potential amp.        0.0540 Ry
        Total length         55.1515 bohr
 

     total cpu time spent up to now is      478.9 secs

     total energy              =   -7738.31722726 Ry
     estimated scf accuracy    <       0.06571858 Ry

     total magnetization       =    88.90 Bohr mag/cell
     absolute magnetization    =    90.28 Bohr mag/cell

     iteration # 36     ecut=    50.00 Ry     beta= 0.10
     Davidson diagonalization with overlap
     ethr =  6.01E-06,  avg # of iterations =  1.5

     negative rho (up, down):  4.767E-03 4.377E-03
 
     Adding external electric field

     Computed dipole along edir(3) : 
        Dipole               -0.7865 Ry au,         -1.9991 Debye
        Dipole field         -0.0005 Ry au, 
 
        Potential amp.        0.0531 Ry
        Total length         55.1515 bohr
 
 
     Adding external electric field

     Computed dipole along edir(3) : 
        Dipole               -0.7865 Ry au,         -1.9991 Debye
        Dipole field         -0.0005 Ry au, 
 
        Potential amp.        0.0531 Ry
        Total length         55.1515 bohr
 

     total cpu time spent up to now is      489.9 secs

     total energy              =   -7738.31314344 Ry
     estimated scf accuracy    <       0.06989013 Ry

     total magnetization       =    88.80 Bohr mag/cell
     absolute magnetization    =    90.16 Bohr mag/cell

     iteration # 37     ecut=    50.00 Ry     beta= 0.10
     Davidson diagonalization with overlap
     ethr =  6.01E-06,  avg # of iterations =  1.5

     negative rho (up, down):  5.951E-03 5.349E-03
 
     Adding external electric field

     Computed dipole along edir(3) : 
        Dipole               -0.7745 Ry au,         -1.9686 Debye
        Dipole field         -0.0005 Ry au, 
 
        Potential amp.        0.0523 Ry
        Total length         55.1515 bohr
 
 
     Adding external electric field

     Computed dipole along edir(3) : 
        Dipole               -0.7745 Ry au,         -1.9686 Debye
        Dipole field         -0.0005 Ry au, 
 
        Potential amp.        0.0523 Ry
        Total length         55.1515 bohr
 

     total cpu time spent up to now is      500.8 secs

     total energy              =   -7738.31078248 Ry
     estimated scf accuracy    <       0.06265449 Ry

     total magnetization       =    88.70 Bohr mag/cell
     absolute magnetization    =    89.98 Bohr mag/cell

     iteration # 38     ecut=    50.00 Ry     beta= 0.10
     Davidson diagonalization with overlap
     ethr =  5.73E-06,  avg # of iterations =  1.5

     negative rho (up, down):  4.713E-03 4.146E-03
 
     Adding external electric field

     Computed dipole along edir(3) : 
        Dipole               -0.7799 Ry au,         -1.9824 Debye
        Dipole field         -0.0005 Ry au, 
 
        Potential amp.        0.0527 Ry
        Total length         55.1515 bohr
 
 
     Adding external electric field

     Computed dipole along edir(3) : 
        Dipole               -0.7799 Ry au,         -1.9824 Debye
        Dipole field         -0.0005 Ry au, 
 
        Potential amp.        0.0527 Ry
        Total length         55.1515 bohr
 

     total cpu time spent up to now is      511.4 secs

     total energy              =   -7738.30988932 Ry
     estimated scf accuracy    <       0.06780772 Ry

     total magnetization       =    88.76 Bohr mag/cell
     absolute magnetization    =    89.99 Bohr mag/cell

     iteration # 39     ecut=    50.00 Ry     beta= 0.10
     Davidson diagonalization with overlap
     ethr =  5.73E-06,  avg # of iterations =  1.5

     negative rho (up, down):  9.483E-03 8.312E-03
 
     Adding external electric field

     Computed dipole along edir(3) : 
        Dipole               -0.7714 Ry au,         -1.9606 Debye
        Dipole field         -0.0005 Ry au, 
 
        Potential amp.        0.0521 Ry
        Total length         55.1515 bohr
 
 
     Adding external electric field

     Computed dipole along edir(3) : 
        Dipole               -0.7714 Ry au,         -1.9606 Debye
        Dipole field         -0.0005 Ry au, 
 
        Potential amp.        0.0521 Ry
        Total length         55.1515 bohr
 

     total cpu time spent up to now is      522.5 secs

     total energy              =   -7738.31018364 Ry
     estimated scf accuracy    <       0.08426395 Ry

     total magnetization       =    88.71 Bohr mag/cell
     absolute magnetization    =    89.95 Bohr mag/cell

     iteration # 40     ecut=    50.00 Ry     beta= 0.10
     Davidson diagonalization with overlap
     ethr =  5.73E-06,  avg # of iterations =  2.0

     negative rho (up, down):  9.928E-03 8.195E-03
 
     Adding external electric field

     Computed dipole along edir(3) : 
        Dipole               -0.7662 Ry au,         -1.9474 Debye
        Dipole field         -0.0005 Ry au, 
 
        Potential amp.        0.0517 Ry
        Total length         55.1515 bohr
 
 
     Adding external electric field

     Computed dipole along edir(3) : 
        Dipole               -0.7662 Ry au,         -1.9474 Debye
        Dipole field         -0.0005 Ry au, 
 
        Potential amp.        0.0517 Ry
        Total length         55.1515 bohr
 

     total cpu time spent up to now is      534.4 secs

     total energy              =   -7738.30976108 Ry
     estimated scf accuracy    <       0.06283811 Ry

     total magnetization       =    88.77 Bohr mag/cell
     absolute magnetization    =    90.07 Bohr mag/cell

     iteration # 41     ecut=    50.00 Ry     beta= 0.10
     Davidson diagonalization with overlap
     ethr =  5.73E-06,  avg # of iterations =  1.0

     negative rho (up, down):  1.039E-02 8.255E-03
 
     Adding external electric field

     Computed dipole along edir(3) : 
        Dipole               -0.7535 Ry au,         -1.9152 Debye
        Dipole field         -0.0005 Ry au, 
 
        Potential amp.        0.0509 Ry
        Total length         55.1515 bohr
 
 
     Adding external electric field

     Computed dipole along edir(3) : 
        Dipole               -0.7535 Ry au,         -1.9152 Debye
        Dipole field         -0.0005 Ry au, 
 
        Potential amp.        0.0509 Ry
        Total length         55.1515 bohr
 

     total cpu time spent up to now is      544.8 secs

     total energy              =   -7738.30783922 Ry
     estimated scf accuracy    <       0.05569176 Ry

     total magnetization       =    88.85 Bohr mag/cell
     absolute magnetization    =    90.18 Bohr mag/cell

     iteration # 42     ecut=    50.00 Ry     beta= 0.10
     Davidson diagonalization with overlap
     ethr =  5.10E-06,  avg # of iterations =  2.0

     negative rho (up, down):  6.755E-03 4.547E-03
 
     Adding external electric field

     Computed dipole along edir(3) : 
        Dipole               -0.7258 Ry au,         -1.8449 Debye
        Dipole field         -0.0004 Ry au, 
 
        Potential amp.        0.0490 Ry
        Total length         55.1515 bohr
 
 
     Adding external electric field

     Computed dipole along edir(3) : 
        Dipole               -0.7258 Ry au,         -1.8449 Debye
        Dipole field         -0.0004 Ry au, 
 
        Potential amp.        0.0490 Ry
        Total length         55.1515 bohr
 

     total cpu time spent up to now is      556.7 secs

     total energy              =   -7738.30229651 Ry
     estimated scf accuracy    <       0.05473616 Ry

     total magnetization       =    88.81 Bohr mag/cell
     absolute magnetization    =    90.16 Bohr mag/cell

     iteration # 43     ecut=    50.00 Ry     beta= 0.10
     Davidson diagonalization with overlap
     ethr =  5.01E-06,  avg # of iterations =  1.5

     negative rho (up, down):  8.402E-03 5.778E-03
 
     Adding external electric field

     Computed dipole along edir(3) : 
        Dipole               -0.7175 Ry au,         -1.8237 Debye
        Dipole field         -0.0004 Ry au, 
 
        Potential amp.        0.0484 Ry
        Total length         55.1515 bohr
 
 
     Adding external electric field

     Computed dipole along edir(3) : 
        Dipole               -0.7175 Ry au,         -1.8237 Debye
        Dipole field         -0.0004 Ry au, 
 
        Potential amp.        0.0484 Ry
        Total length         55.1515 bohr
 

     total cpu time spent up to now is      567.7 secs

     total energy              =   -7738.30399239 Ry
     estimated scf accuracy    <       0.05578112 Ry

     total magnetization       =    88.77 Bohr mag/cell
     absolute magnetization    =    90.21 Bohr mag/cell

     iteration # 44     ecut=    50.00 Ry     beta= 0.10
     Davidson diagonalization with overlap
     ethr =  5.01E-06,  avg # of iterations =  2.0

     negative rho (up, down):  8.350E-03 5.646E-03
 
     Adding external electric field

     Computed dipole along edir(3) : 
        Dipole               -0.6929 Ry au,         -1.7611 Debye
        Dipole field         -0.0004 Ry au, 
 
        Potential amp.        0.0468 Ry
        Total length         55.1515 bohr
 
 
     Adding external electric field

     Computed dipole along edir(3) : 
        Dipole               -0.6929 Ry au,         -1.7611 Debye
        Dipole field         -0.0004 Ry au, 
 
        Potential amp.        0.0468 Ry
        Total length         55.1515 bohr
 

     total cpu time spent up to now is      579.2 secs

     total energy              =   -7738.30609325 Ry
     estimated scf accuracy    <       0.05410230 Ry

     total magnetization       =    88.73 Bohr mag/cell
     absolute magnetization    =    90.21 Bohr mag/cell

     iteration # 45     ecut=    50.00 Ry     beta= 0.10
     Davidson diagonalization with overlap
     ethr =  4.95E-06,  avg # of iterations =  2.0

     negative rho (up, down):  6.072E-03 4.407E-03
 
     Adding external electric field

     Computed dipole along edir(3) : 
        Dipole               -0.5361 Ry au,         -1.3625 Debye
        Dipole field         -0.0003 Ry au, 
 
        Potential amp.        0.0362 Ry
        Total length         55.1515 bohr
 
 
     Adding external electric field

     Computed dipole along edir(3) : 
        Dipole               -0.5361 Ry au,         -1.3625 Debye
        Dipole field         -0.0003 Ry au, 
 
        Potential amp.        0.0362 Ry
        Total length         55.1515 bohr
 

     total cpu time spent up to now is      591.4 secs

     total energy              =   -7738.30819856 Ry
     estimated scf accuracy    <       0.05077710 Ry

     total magnetization       =    88.68 Bohr mag/cell
     absolute magnetization    =    90.18 Bohr mag/cell

     iteration # 46     ecut=    50.00 Ry     beta= 0.10
     Davidson diagonalization with overlap
     c_bands:  5 eigenvalues not converged
     ethr =  4.65E-06,  avg # of iterations = 19.5

     negative rho (up, down):  1.159E-02 9.768E-03
 
     Adding external electric field

     Computed dipole along edir(3) : 
        Dipole               -0.4109 Ry au,         -1.0444 Debye
        Dipole field         -0.0003 Ry au, 
 
        Potential amp.        0.0277 Ry
        Total length         55.1515 bohr
 
 
     Adding external electric field

     Computed dipole along edir(3) : 
        Dipole               -0.4109 Ry au,         -1.0444 Debye
        Dipole field         -0.0003 Ry au, 
 
        Potential amp.        0.0277 Ry
        Total length         55.1515 bohr
 

     total cpu time spent up to now is      612.6 secs

     total energy              =   -7738.31248981 Ry
     estimated scf accuracy    <       0.03828784 Ry

     total magnetization       =    88.62 Bohr mag/cell
     absolute magnetization    =    90.05 Bohr mag/cell

     iteration # 47     ecut=    50.00 Ry     beta= 0.10
     Davidson diagonalization with overlap
     c_bands:  3 eigenvalues not converged
     ethr =  3.50E-06,  avg # of iterations = 21.5

     negative rho (up, down):  1.264E-02 1.069E-02
 
     Adding external electric field

     Computed dipole along edir(3) : 
        Dipole               -0.4118 Ry au,         -1.0468 Debye
        Dipole field         -0.0003 Ry au, 
 
        Potential amp.        0.0278 Ry
        Total length         55.1515 bohr
 
 
     Adding external electric field

     Computed dipole along edir(3) : 
        Dipole               -0.4118 Ry au,         -1.0468 Debye
        Dipole field         -0.0003 Ry au, 
 
        Potential amp.        0.0278 Ry
        Total length         55.1515 bohr
 

     total cpu time spent up to now is      640.7 secs

     total energy              =   -7738.31265683 Ry
     estimated scf accuracy    <       0.03444168 Ry

     total magnetization       =    88.52 Bohr mag/cell
     absolute magnetization    =    89.92 Bohr mag/cell

     iteration # 48     ecut=    50.00 Ry     beta= 0.10
     Davidson diagonalization with overlap
     ethr =  3.15E-06,  avg # of iterations =  2.0

     negative rho (up, down):  1.235E-02 1.032E-02
 
     Adding external electric field

     Computed dipole along edir(3) : 
        Dipole               -0.4001 Ry au,         -1.0169 Debye
        Dipole field         -0.0002 Ry au, 
 
        Potential amp.        0.0270 Ry
        Total length         55.1515 bohr
 
 
     Adding external electric field

     Computed dipole along edir(3) : 
        Dipole               -0.4001 Ry au,         -1.0169 Debye
        Dipole field         -0.0002 Ry au, 
 
        Potential amp.        0.0270 Ry
        Total length         55.1515 bohr
 

     total cpu time spent up to now is      652.5 secs

     total energy              =   -7738.31315540 Ry
     estimated scf accuracy    <       0.03283197 Ry

     total magnetization       =    88.55 Bohr mag/cell
     absolute magnetization    =    89.99 Bohr mag/cell

     iteration # 49     ecut=    50.00 Ry     beta= 0.10
     Davidson diagonalization with overlap
     ethr =  3.00E-06,  avg # of iterations =  2.0

     negative rho (up, down):  1.160E-02 9.946E-03
 
     Adding external electric field

     Computed dipole along edir(3) : 
        Dipole               -0.3626 Ry au,         -0.9217 Debye
        Dipole field         -0.0002 Ry au, 
 
        Potential amp.        0.0245 Ry
        Total length         55.1515 bohr
 
 
     Adding external electric field

     Computed dipole along edir(3) : 
        Dipole               -0.3626 Ry au,         -0.9217 Debye
        Dipole field         -0.0002 Ry au, 
 
        Potential amp.        0.0245 Ry
        Total length         55.1515 bohr
 

     total cpu time spent up to now is      663.9 secs

     total energy              =   -7738.31552493 Ry
     estimated scf accuracy    <       0.03056702 Ry

     total magnetization       =    88.57 Bohr mag/cell
     absolute magnetization    =    90.05 Bohr mag/cell

     iteration # 50     ecut=    50.00 Ry     beta= 0.10
     Davidson diagonalization with overlap
     ethr =  2.80E-06,  avg # of iterations =  2.0

     negative rho (up, down):  8.193E-03 8.387E-03
 
     Adding external electric field

     Computed dipole along edir(3) : 
        Dipole               -0.3077 Ry au,         -0.7822 Debye
        Dipole field         -0.0002 Ry au, 
 
        Potential amp.        0.0208 Ry
        Total length         55.1515 bohr
 
 
     Adding external electric field

     Computed dipole along edir(3) : 
        Dipole               -0.3077 Ry au,         -0.7822 Debye
        Dipole field         -0.0002 Ry au, 
 
        Potential amp.        0.0208 Ry
        Total length         55.1515 bohr
 

     total cpu time spent up to now is      675.6 secs

     total energy              =   -7738.31564446 Ry
     estimated scf accuracy    <       0.02676474 Ry

     total magnetization       =    88.53 Bohr mag/cell
     absolute magnetization    =    90.04 Bohr mag/cell

     iteration # 51     ecut=    50.00 Ry     beta= 0.10
     Davidson diagonalization with overlap
     ethr =  2.45E-06,  avg # of iterations =  2.5

     negative rho (up, down):  8.143E-03 8.337E-03
 
     Adding external electric field

     Computed dipole along edir(3) : 
        Dipole               -0.3089 Ry au,         -0.7850 Debye
        Dipole field         -0.0002 Ry au, 
 
        Potential amp.        0.0209 Ry
        Total length         55.1515 bohr
 
 
     Adding external electric field

     Computed dipole along edir(3) : 
        Dipole               -0.3089 Ry au,         -0.7850 Debye
        Dipole field         -0.0002 Ry au, 
 
        Potential amp.        0.0209 Ry
        Total length         55.1515 bohr
 

     total cpu time spent up to now is      687.8 secs

     total energy              =   -7738.31629815 Ry
     estimated scf accuracy    <       0.02111938 Ry

     total magnetization       =    88.43 Bohr mag/cell
     absolute magnetization    =    90.04 Bohr mag/cell

     iteration # 52     ecut=    50.00 Ry     beta= 0.10
     Davidson diagonalization with overlap
     ethr =  1.93E-06,  avg # of iterations =  1.0

     negative rho (up, down):  9.630E-03 9.658E-03
 
     Adding external electric field

     Computed dipole along edir(3) : 
        Dipole               -0.2811 Ry au,         -0.7145 Debye
        Dipole field         -0.0002 Ry au, 
 
        Potential amp.        0.0190 Ry
        Total length         55.1515 bohr
 
 
     Adding external electric field

     Computed dipole along edir(3) : 
        Dipole               -0.2811 Ry au,         -0.7145 Debye
        Dipole field         -0.0002 Ry au, 
 
        Potential amp.        0.0190 Ry
        Total length         55.1515 bohr
 

     total cpu time spent up to now is      698.3 secs

     total energy              =   -7738.31483108 Ry
     estimated scf accuracy    <       0.02139078 Ry

     total magnetization       =    88.43 Bohr mag/cell
     absolute magnetization    =    90.04 Bohr mag/cell

     iteration # 53     ecut=    50.00 Ry     beta= 0.10
     Davidson diagonalization with overlap
     ethr =  1.93E-06,  avg # of iterations =  2.0

     negative rho (up, down):  9.934E-03 9.697E-03
 
     Adding external electric field

     Computed dipole along edir(3) : 
        Dipole               -0.2744 Ry au,         -0.6976 Debye
        Dipole field         -0.0002 Ry au, 
 
        Potential amp.        0.0185 Ry
        Total length         55.1515 bohr
 
 
     Adding external electric field

     Computed dipole along edir(3) : 
        Dipole               -0.2744 Ry au,         -0.6976 Debye
        Dipole field         -0.0002 Ry au, 
 
        Potential amp.        0.0185 Ry
        Total length         55.1515 bohr
 

     total cpu time spent up to now is      709.9 secs

     total energy              =   -7738.31414186 Ry
     estimated scf accuracy    <       0.01872672 Ry

     total magnetization       =    88.48 Bohr mag/cell
     absolute magnetization    =    90.20 Bohr mag/cell

     iteration # 54     ecut=    50.00 Ry     beta= 0.10
     Davidson diagonalization with overlap
     ethr =  1.71E-06,  avg # of iterations =  2.0

     negative rho (up, down):  1.003E-02 9.749E-03
 
     Adding external electric field

     Computed dipole along edir(3) : 
        Dipole               -0.2741 Ry au,         -0.6967 Debye
        Dipole field         -0.0002 Ry au, 
 
        Potential amp.        0.0185 Ry
        Total length         55.1515 bohr
 
 
     Adding external electric field

     Computed dipole along edir(3) : 
        Dipole               -0.2741 Ry au,         -0.6967 Debye
        Dipole field         -0.0002 Ry au, 
 
        Potential amp.        0.0185 Ry
        Total length         55.1515 bohr
 

     total cpu time spent up to now is      721.7 secs

     total energy              =   -7738.31446553 Ry
     estimated scf accuracy    <       0.01723477 Ry

     total magnetization       =    88.44 Bohr mag/cell
     absolute magnetization    =    90.23 Bohr mag/cell

     iteration # 55     ecut=    50.00 Ry     beta= 0.10
     Davidson diagonalization with overlap
     ethr =  1.58E-06,  avg # of iterations =  1.0

     negative rho (up, down):  1.488E-02 1.501E-02
 
     Adding external electric field

     Computed dipole along edir(3) : 
        Dipole               -0.2310 Ry au,         -0.5871 Debye
        Dipole field         -0.0001 Ry au, 
 
        Potential amp.        0.0156 Ry
        Total length         55.1515 bohr
 
 
     Adding external electric field

     Computed dipole along edir(3) : 
        Dipole               -0.2310 Ry au,         -0.5871 Debye
        Dipole field         -0.0001 Ry au, 
 
        Potential amp.        0.0156 Ry
        Total length         55.1515 bohr
 

     total cpu time spent up to now is      732.1 secs

     total energy              =   -7738.31458986 Ry
     estimated scf accuracy    <       0.01734167 Ry

     total magnetization       =    88.46 Bohr mag/cell
     absolute magnetization    =    90.23 Bohr mag/cell

     iteration # 56     ecut=    50.00 Ry     beta= 0.10
     Davidson diagonalization with overlap
     ethr =  1.58E-06,  avg # of iterations = 11.0

     negative rho (up, down):  1.604E-02 1.637E-02
 
     Adding external electric field

     Computed dipole along edir(3) : 
        Dipole               -0.2104 Ry au,         -0.5348 Debye
        Dipole field         -0.0001 Ry au, 
 
        Potential amp.        0.0142 Ry
        Total length         55.1515 bohr
 
 
     Adding external electric field

     Computed dipole along edir(3) : 
        Dipole               -0.2104 Ry au,         -0.5348 Debye
        Dipole field         -0.0001 Ry au, 
 
        Potential amp.        0.0142 Ry
        Total length         55.1515 bohr
 

     total cpu time spent up to now is      749.2 secs

     total energy              =   -7738.31488141 Ry
     estimated scf accuracy    <       0.01647921 Ry

     total magnetization       =    88.40 Bohr mag/cell
     absolute magnetization    =    90.19 Bohr mag/cell

     iteration # 57     ecut=    50.00 Ry     beta= 0.10
     Davidson diagonalization with overlap
     ethr =  1.51E-06,  avg # of iterations =  1.5

     negative rho (up, down):  1.364E-02 1.399E-02
 
     Adding external electric field

     Computed dipole along edir(3) : 
        Dipole               -0.2021 Ry au,         -0.5137 Debye
        Dipole field         -0.0001 Ry au, 
 
        Potential amp.        0.0136 Ry
        Total length         55.1515 bohr
 
 
     Adding external electric field

     Computed dipole along edir(3) : 
        Dipole               -0.2021 Ry au,         -0.5137 Debye
        Dipole field         -0.0001 Ry au, 
 
        Potential amp.        0.0136 Ry
        Total length         55.1515 bohr
 

     total cpu time spent up to now is      760.0 secs

     total energy              =   -7738.31523893 Ry
     estimated scf accuracy    <       0.01606169 Ry

     total magnetization       =    88.37 Bohr mag/cell
     absolute magnetization    =    90.15 Bohr mag/cell

     iteration # 58     ecut=    50.00 Ry     beta= 0.10
     Davidson diagonalization with overlap
     ethr =  1.47E-06,  avg # of iterations =  2.0

     negative rho (up, down):  1.611E-02 1.662E-02
 
     Adding external electric field

     Computed dipole along edir(3) : 
[...]
    -5.9822  -5.9681  -5.9180  -5.9081  -5.8865  -5.8787  -5.8762  -5.8465
    -5.8269  -5.8023  -5.7515  -5.7406  -5.7207  -5.6923  -5.6778  -5.6467
    -5.6418  -5.6321  -5.5932  -5.5772  -5.5698  -5.5612  -5.5578  -5.5336
    -5.5182  -5.5061  -5.4829  -5.4447  -5.4024  -5.3584  -5.3333  -5.3187
    -5.2974  -5.2666  -5.2357  -5.1673  -5.1524  -5.1485  -5.1347  -5.1049
    -5.0558  -5.0128  -4.9707  -4.9446  -4.9014  -4.8902  -4.8617  -4.8560
    -4.8146  -4.7967  -4.7811  -4.7443  -4.7084  -4.6904  -4.6492  -4.6056
    -4.5519  -4.4683  -4.4447  -4.4271  -4.4177  -4.4028  -4.3611  -4.3533
    -4.3008  -4.2831  -4.2567  -4.2325  -4.2046  -4.1695  -4.1183  -4.1080
    -4.0785  -4.0499  -4.0478  -4.0130  -3.9589  -3.9347  -3.9211  -3.8780
    -3.8693  -3.8209  -3.8122  -3.8006  -3.7880  -3.7491  -3.7245  -3.6961
    -3.6933  -3.6647  -3.6468  -3.5984  -3.5857  -3.5791  -3.5748  -3.5484
    -3.5442  -3.5218  -3.5034  -3.4780  -3.4594  -3.4434  -3.4285  -3.4138
    -3.4109  -3.3709  -3.3610  -3.3545  -3.3390  -3.3054  -3.2759  -3.2597
    -3.2551  -3.2116  -3.1978  -3.1830  -3.1503  -3.1173  -3.1050  -3.0829
    -3.0747  -3.0687  -3.0454  -3.0388  -3.0229  -3.0043  -2.9798  -2.9672
    -2.9308  -2.9192  -2.8971  -2.8893  -2.8698  -2.8544  -2.8147  -2.7972
    -2.7888  -2.7593  -2.7551  -2.7464  -2.7290  -2.7181  -2.7041  -2.6968
    -2.6888  -2.6784  -2.6625  -2.6485  -2.6422  -2.6093  -2.6033  -2.5983
    -2.5741  -2.5684  -2.5427  -2.5279  -2.5184  -2.4879  -2.4746  -2.4587
    -2.4459  -2.4221  -2.4109  -2.3807  -2.3593  -2.3550  -2.3216  -2.2882
    -2.2789  -2.2679  -2.2296  -2.2118  -2.1964  -2.1811  -2.1482  -2.1440
    -2.1161  -2.0890  -2.0698  -2.0647  -2.0586  -2.0439  -2.0325  -2.0234
    -1.9994  -1.9799  -1.9423  -1.9196  -1.9148  -1.9131  -1.8792  -1.8579
    -1.8433  -1.8378  -1.8264  -1.8112  -1.7899  -1.7178  -1.7107  -1.6934
    -1.6734  -1.6578  -1.6369  -1.6307  -1.6172  -1.6163  -1.5934  -1.5720
    -1.5514  -1.5329  -1.5171  -1.4903  -1.4876  -1.4568  -1.4378  -1.4302
    -1.4009  -1.3984  -1.3831  -1.3774  -1.3594  -1.3502  -1.3064  -1.2644
    -1.2360  -1.2128  -1.1719  -1.1512  -1.1382  -1.1339  -1.0946  -1.0536
    -1.0429  -0.9974  -0.9313  -0.8412  -0.7376  -0.7315  -0.6153  -0.5563
    -0.5253  -0.5116  -0.3591  -0.2026   0.1758   0.2174   0.2399   0.2446
     0.2965   0.3085   0.3113   0.3180   0.3274   0.3467   0.3557   0.3662
     0.3727   0.3864   0.3938   0.4002   0.4026   0.4116   0.4165   0.4235
     0.4300   0.4378   0.4598   0.4633   0.4729   0.4807   0.4881   0.4887
     0.4934   0.4993   0.5068   0.5139   0.5228   0.5304   0.5334   0.5406
     0.5422   0.5605   0.5642   0.5719   0.5812   0.5970   0.6006   0.6154
     0.6207   0.6220   0.6383   0.6453   0.6503   0.6590   0.6635   0.6754
     0.6815   0.6893   0.6978   0.6997   0.7101   0.7274   0.7296   0.7399
     0.7449   0.7557   0.7642   0.7658   0.7732   0.7884   0.7976   0.8083
     0.8102   0.8194   0.8355   0.8531   0.8636   0.8643   0.8666   0.8718
     0.8801   0.8862   0.9032   0.9068   0.9158   0.9501   0.9833   0.9921
     1.0167   1.0470   1.0849   1.1094   1.1202   1.6710   1.7328   1.7452
     1.7661   1.7874   1.7978   1.8129   1.8261   1.8399   1.9018   1.9170
     1.9366   1.9642   1.9872   2.0071   2.0403   2.0428   2.0928   2.1042
     2.1285   2.1407   2.1429   2.1772   2.1880   2.1932   2.2037   2.2313
     2.2650   2.2735   2.2933   2.2974   2.3103   2.3199   2.3285   2.3474
     2.3695   2.3718   2.3861   2.3894   2.4134   2.4170   2.4288   2.4909
     2.4991   2.5269   2.5329   2.5370   2.5497   2.5651   2.5853   2.5950
     2.6189   2.6785   2.7032   2.7179   2.7393   2.7991   2.8011   2.8616
     2.8727   2.9483   3.6502   3.7052   3.7187   3.7459   3.7811   3.7956
     3.8436   3.9019   3.9254   3.9477   3.9573   3.9797   3.9980   4.0037
     4.0510   4.0568   4.1411   4.1446   4.1542   4.1762   4.6484   4.6613
     4.7688   4.8115   4.8583   4.8937   4.9157   4.9589   5.0361   5.0924
     5.1114   5.1428   5.4240   6.2414   6.3718   6.6094   6.6583   6.7495
     6.8441   6.8633   6.8877   6.9639   6.9863   7.0658   7.1165   7.1282
     7.2683   7.3490   7.3545   7.4181   7.4785   7.5389   7.5720   7.6292
     7.6551   7.6653   7.7418   7.7667   7.8006   7.8619   7.8919   7.9676
     7.9989   8.0472   8.0515   8.0896   8.1050   8.1626   8.1791   8.2107
     8.2435   8.2831   8.3017   8.3299   8.4023   8.4274   8.4293   8.4509
     8.4565   8.4769   8.4967   8.5378   8.5526   8.5715   8.5954   8.6202
     8.6679   8.7057   8.7225   8.7530   8.7663   8.7780   8.8372   8.8376

     the Fermi energy is     1.6575 ev

!    total energy              =   -7738.31723221 Ry
     estimated scf accuracy    <       0.00000066 Ry
     smearing contrib. (-TS)   =      -0.02292356 Ry
     internal energy E=F+TS    =   -7738.29430865 Ry

     The total energy is F=E-TS. E is the sum of the following terms:
     one-electron contribution =  -94541.27534641 Ry
     hartree contribution      =   47887.78424077 Ry
     xc contribution           =   -2218.68644371 Ry
     ewald contribution        =   41135.68811012 Ry
     Dispersion Correction     =      -1.80493444 Ry
     electric field correction =       0.00006502 Ry

     total magnetization       =    88.47 Bohr mag/cell
     absolute magnetization    =    89.84 Bohr mag/cell

     convergence has been achieved in  84 iterations

     negative rho (up, down):  1.051E-03 5.880E-04

     Forces acting on atoms (cartesian axes, Ry/au):

     atom    1 type  1   force =    -0.00018280   -0.00025797    0.00019159
     atom    2 type  2   force =    -0.00038212    0.00050515   -0.00018984
     atom    3 type  1   force =     0.00006936    0.00008947    0.00044380
     atom    4 type  1   force =    -0.00035389    0.00071115   -0.00051606
     atom    5 type  1   force =    -0.00027528    0.00070402   -0.00014536
     atom    6 type  1   force =     0.00063549    0.00070287   -0.00070313
     atom    7 type  3   force =     0.00025312    0.00036343   -0.00035563
     atom    8 type  3   force =     0.00034846    0.00041794   -0.00054575
     atom    9 type  3   force =    -0.00007716    0.00071651    0.00002040
     atom   10 type  3   force =    -0.00097870    0.00032241    0.00020964
     atom   11 type  4   force =     0.00032866    0.00031534   -0.00033553
     atom   12 type  4   force =    -0.00046181    0.00050514   -0.00065355
     atom   13 type  4   force =     0.00032089    0.00004868   -0.00034956
     atom   14 type  4   force =    -0.00033319    0.00019993   -0.00015055
     atom   15 type  4   force =    -0.00041313    0.00048193   -0.00013510
     atom   16 type  4   force =    -0.00002085    0.00047350   -0.00026062
     atom   17 type  4   force =     0.00001090    0.00038649    0.00016809
     atom   18 type  4   force =     0.00044372    0.00015961   -0.00009807
     atom   19 type  4   force =     0.00054802   -0.00008749   -0.00061653
     atom   20 type  4   force =     0.00001667    0.00000715    0.00014642
     atom   21 type  4   force =    -0.00054168    0.00025280    0.00028889
     atom   22 type  4   force =     0.00049287    0.00019178    0.00045366
     atom   23 type  4   force =    -0.00008207    0.00024510    0.00024783
     atom   24 type  4   force =     0.00018227    0.00030113    0.00036324
     atom   25 type  4   force =    -0.00102454    0.00042382   -0.00065641
     atom   26 type  4   force =     0.00036218    0.00028161    0.00057057
     atom   27 type  1   force =    -0.00640934   -0.00891558   -0.00308633
     atom   28 type  2   force =    -0.01201973    0.00019733   -0.00177905
     atom   29 type  1   force =     0.00335696   -0.00462307   -0.00069675
     atom   30 type  1   force =     0.00232757    0.00395949   -0.00182675
     atom   31 type  1   force =     0.00205280   -0.00503716   -0.00059263
     atom   32 type  1   force =    -0.00127442    0.00132958    0.00152103
     atom   33 type  3   force =    -0.00716502   -0.00078835   -0.00040532
     atom   34 type  3   force =    -0.00574958    0.00371872   -0.00120667
     atom   35 type  3   force =     0.00353910   -0.00145471   -0.00450070
     atom   36 type  3   force =     0.00104874   -0.00121337    0.00292794
     atom   37 type  4   force =     0.00884221    0.00528438   -0.00771263
     atom   38 type  4   force =     0.00377651   -0.00110461    0.02014275
     atom   39 type  4   force =    -0.00146147    0.00383766    0.01075268
     atom   40 type  4   force =    -0.00160242   -0.00229808   -0.00893310
     atom   41 type  4   force =     0.00215614    0.00859037    0.00664529
     atom   42 type  4   force =    -0.00455351   -0.00343451   -0.01680230
     atom   43 type  4   force =     0.01060242    0.00508614   -0.00750894
     atom   44 type  4   force =     0.00725446   -0.00304016    0.00606311
     atom   45 type  4   force =     0.00226559    0.00582278   -0.00066405
     atom   46 type  4   force =     0.00259508    0.00064505    0.00599823
     atom   47 type  4   force =    -0.01323226    0.00022988    0.00333114
     atom   48 type  4   force =    -0.01416944    0.00204723   -0.00315874
     atom   49 type  4   force =     0.01306257    0.00234250   -0.00483079
     atom   50 type  4   force =    -0.00348892   -0.00482081    0.00053166
     atom   51 type  4   force =    -0.00429487    0.00262544   -0.00069930
     atom   52 type  4   force =     0.01628244   -0.00326001    0.00422108
     atom   53 type  1   force =    -0.00753511   -0.00704113   -0.00818387
     atom   54 type  2   force =     0.01578535    0.01722706   -0.00998764
     atom   55 type  1   force =     0.00584383   -0.00487562   -0.00574324
     atom   56 type  1   force =    -0.02064526    0.01933702    0.01981007
     atom   57 type  1   force =     0.00446387   -0.00760461   -0.00140497
     atom   58 type  1   force =    -0.00391377   -0.00536115   -0.00093399
     atom   59 type  3   force =    -0.03903031   -0.03835946   -0.05606633
     atom   60 type  3   force =    -0.00495791   -0.00126395   -0.00116363
     atom   61 type  3   force =     0.00273388   -0.00101336   -0.01011679
     atom   62 type  3   force =     0.02911648   -0.04951137   -0.06059612
     atom   63 type  4   force =     0.00627136    0.00350458    0.02099078
     atom   64 type  4   force =     0.00451911    0.00231079    0.01460995
     atom   65 type  4   force =    -0.00066430    0.00292811    0.01275587
     atom   66 type  4   force =     0.00014765    0.00212900    0.01621968
     atom   67 type  4   force =     0.00107798   -0.00061074    0.03916131
     atom   68 type  4   force =    -0.00563229   -0.00397453   -0.01723608
     atom   69 type  4   force =     0.00780826    0.00447358   -0.00262290
     atom   70 type  4   force =     0.00174661   -0.00734993    0.03543470
     atom   71 type  4   force =    -0.00911929    0.03916133    0.00094849
     atom   72 type  4   force =     0.00227345   -0.00044267    0.00795794
     atom   73 type  4   force =    -0.03010345    0.00087501    0.00763970
     atom   74 type  4   force =    -0.01347990    0.00142752   -0.00041111
     atom   75 type  4   force =     0.01188611    0.00350738   -0.00249099
     atom   76 type  4   force =    -0.00237003   -0.00286829    0.00259460
     atom   77 type  4   force =     0.00917833    0.02578117   -0.00255661
     atom   78 type  4   force =     0.03350489   -0.00637672    0.00619377
     atom   79 type  1   force =    -0.00292303    0.00161467    0.00272206
     atom   80 type  2   force =    -0.00020544    0.00039136   -0.00029212
     atom   81 type  1   force =     0.00054714    0.00004840    0.00028985
     atom   82 type  1   force =    -0.00007927    0.00078643   -0.00026032
     atom   83 type  1   force =    -0.00083449    0.00073085    0.00044243
     atom   84 type  1   force =     0.00030192    0.00022691   -0.00038162
     atom   85 type  3   force =     0.00028001    0.00049387   -0.00026600
     atom   86 type  3   force =     0.00004938   -0.00011683   -0.00087469
     atom   87 type  3   force =    -0.00034788    0.00054765    0.00001155
     atom   88 type  3   force =    -0.00077717    0.00089103    0.00027797
     atom   89 type  4   force =    -0.00011733    0.00054550    0.00007582
     atom   90 type  4   force =    -0.00062821    0.00025790   -0.00034717
     atom   91 type  4   force =     0.00067023   -0.00056546    0.00020489
     atom   92 type  4   force =    -0.00050707    0.00022342   -0.00024591
     atom   93 type  4   force =    -0.00011779    0.00038487    0.00003868
     atom   94 type  4   force =    -0.00012725    0.00040860    0.00007169
     atom   95 type  4   force =     0.00007916   -0.00023594   -0.00014298
     atom   96 type  4   force =     0.00027342    0.00023004   -0.00060176
     atom   97 type  4   force =     0.00029088   -0.00011951   -0.00024679
     atom   98 type  4   force =     0.00003716    0.00031532   -0.00003162
     atom   99 type  4   force =    -0.00042658    0.00013555    0.00064592
     atom  100 type  4   force =    -0.00067060    0.00008707    0.00009002
     atom  101 type  4   force =    -0.00028117    0.00045798    0.00016626
     atom  102 type  4   force =    -0.00002689    0.00028230    0.00045870
     atom  103 type  4   force =    -0.00055866    0.00031962   -0.00048659
     atom  104 type  4   force =     0.00055553    0.00027079   -0.00007199
     atom  105 type  1   force =    -0.00668220   -0.00738648   -0.00215901
     atom  106 type  2   force =    -0.01231230   -0.00003169   -0.00161803
     atom  107 type  1   force =     0.00389827   -0.00441511   -0.00008561
     atom  108 type  1   force =     0.00239832    0.00395333   -0.00172124
     atom  109 type  1   force =     0.00149523   -0.00501424   -0.00044122
     atom  110 type  1   force =    -0.00103952    0.00150381    0.00164896
     atom  111 type  3   force =    -0.00697612   -0.00091900    0.00011774
     atom  112 type  3   force =    -0.00674369    0.00426221   -0.00241090
     atom  113 type  3   force =     0.00390740   -0.00300782   -0.00322761
     atom  114 type  3   force =     0.00118186   -0.00123895    0.00294717
     atom  115 type  4   force =     0.00865416    0.00513526   -0.00794538
     atom  116 type  4   force =     0.00469632   -0.00229376    0.01987678
     atom  117 type  4   force =    -0.00112458    0.00411678    0.01040082
     atom  118 type  4   force =    -0.00162760   -0.00246655   -0.00899222
     atom  119 type  4   force =     0.00205942    0.00838004    0.00629937
     atom  120 type  4   force =    -0.00466826   -0.00379548   -0.01886483
     atom  121 type  4   force =     0.00995583    0.00545616   -0.00682028
     atom  122 type  4   force =     0.00703662   -0.00301648    0.00605278
     atom  123 type  4   force =     0.00201904    0.00587062   -0.00061275
     atom  124 type  4   force =     0.00295461    0.00170302    0.00503858
     atom  125 type  4   force =    -0.01305992    0.00018046    0.00325305
     atom  126 type  4   force =    -0.01475708    0.00241959   -0.00307495
     atom  127 type  4   force =     0.01245753    0.00193091   -0.00479776
     atom  128 type  4   force =    -0.00370633   -0.00463737    0.00039950
     atom  129 type  4   force =    -0.00440721    0.00265057   -0.00060183
     atom  130 type  4   force =     0.01631841   -0.00330041    0.00401101
     atom  131 type  1   force =    -0.00742629   -0.00712284   -0.00816019
     atom  132 type  2   force =     0.01582871    0.01724619   -0.01002435
     atom  133 type  1   force =     0.00582488   -0.00487382   -0.00574673
     atom  134 type  1   force =    -0.02063614    0.01933599    0.01980453
     atom  135 type  1   force =     0.00448965   -0.00763204   -0.00142045
     atom  136 type  1   force =    -0.00390295   -0.00537362   -0.00093886
     atom  137 type  3   force =    -0.03899818   -0.03831028   -0.05612760
     atom  138 type  3   force =    -0.00478601   -0.00133753   -0.00110295
     atom  139 type  3   force =     0.00271803   -0.00092960   -0.01012444
     atom  140 type  3   force =     0.02909708   -0.04950617   -0.06060078
     atom  141 type  4   force =     0.00622643    0.00350004    0.02113372
     atom  142 type  4   force =     0.00431801    0.00241848    0.01469742
     atom  143 type  4   force =    -0.00060220    0.00281308    0.01281349
     atom  144 type  4   force =     0.00019904    0.00221540    0.01643096
     atom  145 type  4   force =     0.00123124   -0.00061248    0.03915980
     atom  146 type  4   force =    -0.00544958   -0.00393027   -0.01731855
     atom  147 type  4   force =     0.00779252    0.00450772   -0.00281557
     atom  148 type  4   force =     0.00164615   -0.00739398    0.03548407
     atom  149 type  4   force =    -0.00929230    0.03916147    0.00094555
     atom  150 type  4   force =     0.00205871   -0.00052212    0.00796857
     atom  151 type  4   force =    -0.02999336    0.00087891    0.00764600
     atom  152 type  4   force =    -0.01356790    0.00141756   -0.00041138
     atom  153 type  4   force =     0.01215195    0.00365612   -0.00248435
     atom  154 type  4   force =    -0.00243088   -0.00273240    0.00249896
     atom  155 type  4   force =     0.00908652    0.02578952   -0.00261285
     atom  156 type  4   force =     0.03345370   -0.00620191    0.00603580
     atom  157 type  4   force =     0.00651943    0.00058897   -0.00470514
     atom  158 type  5   force =    -0.00347304   -0.00189887    0.00213105

     Total force =     0.236981     Total SCF correction =     0.003340
 
     init_run     :      6.93s CPU      7.49s WALL (       1 calls)
     electrons    :   1027.56s CPU   1080.46s WALL (       1 calls)
     forces       :      3.55s CPU      3.92s WALL (       1 calls)
     force_london :      0.09s CPU      0.09s WALL (       1 calls)

     Called by init_run:
     wfcinit      :      4.13s CPU      4.26s WALL (       1 calls)
     potinit      :      0.52s CPU      0.70s WALL (       1 calls)
     hinit0       :      1.24s CPU      1.33s WALL (       1 calls)

     Called by electrons:
     c_bands      :    818.34s CPU    846.77s WALL (      84 calls)
     sum_band     :    131.43s CPU    144.13s WALL (      84 calls)
     v_of_rho     :     18.14s CPU     19.90s WALL (      85 calls)
     newd         :     38.33s CPU     48.37s WALL (      85 calls)
     mix_rho      :     20.35s CPU     20.47s WALL (      84 calls)
     energy_londo :      0.08s CPU      0.08s WALL (       1 calls)

     Called by c_bands:
     init_us_2    :      2.24s CPU      2.30s WALL (     340 calls)
     init_us_2:cp :      2.23s CPU      2.29s WALL (     340 calls)
     regterg      :    801.50s CPU    829.71s WALL (     170 calls)

     Called by *egterg:
     rdiaghg      :    243.44s CPU    258.18s WALL (     769 calls)
     h_psi        :    301.17s CPU    307.18s WALL (     771 calls)
     s_psi        :     56.11s CPU     56.16s WALL (     771 calls)
     g_psi        :      0.40s CPU      0.40s WALL (     599 calls)

     Called by h_psi:
     h_psi:calbec :     77.58s CPU     82.32s WALL (     771 calls)
     vloc_psi     :    165.89s CPU    166.57s WALL (     771 calls)
     add_vuspsi   :     57.01s CPU     57.59s WALL (     771 calls)

     General routines
     calbec       :    113.96s CPU    121.07s WALL (     947 calls)
     fft          :     16.65s CPU     18.95s WALL (    1543 calls)
     ffts         :     12.93s CPU     12.97s WALL (   10463 calls)
     fftw         :    187.98s CPU    188.72s WALL (  287242 calls)
     interpolate  :      1.44s CPU      1.53s WALL (     170 calls)
 
     Parallel routines
 
     PWSCF        :  17m20.06s CPU  18m14.17s WALL

 
   This run was terminated on:  23:40:16  17Nov2025            

=------------------------------------------------------------------------------=
   JOB DONE.
=------------------------------------------------------------------------------=
