
     Program PWSCF v.7.2 starts on 19Nov2025 at 23:46:15 

     This program is part of the open-source Quantum ESPRESSO suite
     for quantum simulation of materials; please cite
         "P. Giannozzi et al., J. Phys.:Condens. Matter 21 395502 (2009);
         "P. Giannozzi et al., J. Phys.:Condens. Matter 29 465901 (2017);
         "P. Giannozzi et al., J. Chem. Phys. 152 154105 (2020);
          URL http://www.quantum-espresso.org", 
     in publications or presentations arising from this work. More details at
     http://www.quantum-espresso.org/quote

     Parallel version (MPI), running on    64 processors

     MPI processes distributed on     4 nodes
     399061 MiB available memory on the printing compute node when the environment starts
 
     Reading input from PWINPUT_atm158_xp

     Current dimensions of program PWSCF are:
     Max number of different atomic species (ntypx) = 10
     Max number of k-points (npk) =  40000
     Max angular momentum in pseudopotentials (lmaxx) =  4
     Presently no symmetry can be used with electric field

     file Ni.pbe-n-rrkjus_psl.1.0.0.UPF: wavefunction(s)  3D renormalized
     file Mn.pbe-spn-rrkjus_psl.0.3.1.UPF: wavefunction(s)  3D renormalized
     file O.pbe-rrkjus.UPF: wavefunction(s)  2S renormalized
     file H.pbe-rrkjus.UPF: wavefunction(s)  1S renormalized

     gamma-point specific algorithms are used
 
     R & G space division:  proc/nbgrp/npool/nimage =      64
     Subspace diagonalization in iterative solution of the eigenvalue problem:
     one sub-group per band group will be used
     custom distributed-memory algorithm (size of sub-group:  7*  7 procs)

 
     Parallelization info
     --------------------
     sticks:   dense  smooth     PW     G-vecs:    dense   smooth      PW
     Min         207      82     20                60552    15302    1896
     Max         210      84     22                60574    15336    1950
     Sum       13325    5345   1333              3876045   980655  122653
 
     Using Slab Decomposition
 


     bravais-lattice index     =            0
     lattice parameter (alat)  =      17.4067  a.u.
     unit-cell volume          =   20529.8182 (a.u.)^3
     number of atoms/cell      =          158
     number of atomic types    =            5
     number of electrons       =      1093.00
     number of Kohn-Sham states=          656
     kinetic-energy cutoff     =      50.0000  Ry
     charge density cutoff     =     500.0000  Ry
     scf convergence threshold =      1.0E-06
     mixing beta               =       0.5000
     number of iterations used =            8  local-TF  mixing
     Exchange-correlation=  SLA  PW   PBE  PBE
                           (   1   4   3   4   0   0   0)

     celldm(1)=  17.406729  celldm(2)=   0.000000  celldm(3)=   0.000000
     celldm(4)=   0.000000  celldm(5)=   0.000000  celldm(6)=   0.000000

     crystal axes: (cart. coord. in units of alat)
               a(1) = (   1.000000   0.000000   0.000000 )  
               a(2) = (  -0.001404   1.105696   0.000000 )  
               a(3) = (   0.000000   0.000000   3.520448 )  

     reciprocal axes: (cart. coord. in units 2 pi/alat)
               b(1) = (  1.000000  0.001270  0.000000 )  
               b(2) = (  0.000000  0.904408  0.000000 )  
               b(3) = (  0.000000  0.000000  0.284055 )  


     PseudoPot. # 1 for Ni read from file:
     ~/PSEUDO/Ni.pbe-n-rrkjus_psl.1.0.0.UPF
     MD5 check sum: Not computed, couldn't open file
     Pseudo is Ultrasoft + core correction, Zval = 10.0
     Generated using "atomic" code by A. Dal Corso  v.5.1.2
     Using radial grid of 1195 points,  6 beta functions with: 
                l(1) =   0
                l(2) =   0
                l(3) =   1
                l(4) =   1
                l(5) =   2
                l(6) =   2
     Q(r) pseudized with 0 coefficients 


     PseudoPot. # 2 for Mn read from file:
     ~/PSEUDO/Mn.pbe-spn-rrkjus_psl.0.3.1.UPF
     MD5 check sum: Not computed, couldn't open file
     Pseudo is Ultrasoft + core correction, Zval = 15.0
     Generated using &quot;atomic&quot; code by A. Dal Corso  v.6.2.2
     Using radial grid of 1187 points,  6 beta functions with: 
                l(1) =   0
                l(2) =   0
                l(3) =   1
                l(4) =   1
                l(5) =   2
                l(6) =   2
     Q(r) pseudized with 0 coefficients 


     PseudoPot. # 3 for P  read from file:
     ~/PSEUDO/P.pbe-n-rrkjus_psl.1.0.0.UPF
     MD5 check sum: Not computed, couldn't open file
     Pseudo is Ultrasoft + core correction, Zval =  5.0
     Generated using "atomic" code by A. Dal Corso  v.5.1
     Using radial grid of 1147 points,  6 beta functions with: 
                l(1) =   0
                l(2) =   0
                l(3) =   1
                l(4) =   1
                l(5) =   2
                l(6) =   2
     Q(r) pseudized with 0 coefficients 


     PseudoPot. # 4 for O  read from file:
     ~/PSEUDO/O.pbe-rrkjus.UPF
     MD5 check sum: Not computed, couldn't open file
     Pseudo is Ultrasoft, Zval =  6.0
     Generated by new atomic code, or converted to UPF format
     Using radial grid of 1269 points,  4 beta functions with: 
                l(1) =   0
                l(2) =   0
                l(3) =   1
                l(4) =   1
     Q(r) pseudized with 0 coefficients 


     PseudoPot. # 5 for H  read from file:
     ~/PSEUDO/H.pbe-rrkjus.UPF
     MD5 check sum: Not computed, couldn't open file
     Pseudo is Ultrasoft, Zval =  1.0
     Generated by new atomic code, or converted to UPF format
     Using radial grid of 1061 points,  2 beta functions with: 
                l(1) =   0
                l(2) =   0
     Q(r) pseudized with 0 coefficients 


     atomic species   valence    mass     pseudopotential
     Ni               10.00    58.69300     Ni( 1.00)
     Mn               15.00    54.93800     Mn( 1.00)
     P                 5.00    30.97300     P ( 1.00)
     O                 6.00    15.99900     O ( 1.00)
     H                 1.00     1.00790     H ( 1.00)

     Starting magnetic structure 
     atomic species   magnetization
     Ni              1.000
     Mn              1.000
     P               1.000
     O               1.000
     H               0.000

     No symmetry found



   Cartesian axes

     site n.     atom                  positions (alat units)
         1        Ni     tau(   1) = (   0.2506653   0.8550566   1.7482270  )
         2        Mn     tau(   2) = (   0.4868615   0.7893541   1.4308660  )
         3        Ni     tau(   3) = (  -0.0020905   0.3037554   1.7430097  )
         4        Ni     tau(   4) = (   0.2581845   0.2397011   1.4315278  )
         5        Ni     tau(   5) = (   0.4980783   1.1004513   1.6017203  )
         6        Ni     tau(   6) = (   0.2518422   0.5462731   1.6005047  )
         7        P      tau(   7) = (   0.2086760   0.9985220   1.4334561  )
         8        P      tau(   8) = (   0.4610745   0.6542330   1.7693768  )
         9        P      tau(   9) = (   0.2852120   0.1078232   1.7622391  )
        10        P      tau(  10) = (   0.0403977   0.4405659   1.4311024  )
        11        O      tau(  11) = (   0.1336577   0.9255702   1.5727005  )
        12        O      tau(  12) = (   0.3859844   0.7230279   1.6232271  )
        13        O      tau(  13) = (   0.3640826   0.1694454   1.6133293  )
        14        O      tau(  14) = (   0.1188105   0.3688923   1.5703532  )
        15        O      tau(  15) = (   0.1503492   0.9077861   1.3047839  )
        16        O      tau(  16) = (   0.3958379   0.7487419   1.8889350  )
        17        O      tau(  17) = (   0.3469236   0.2073723   1.8785519  )
        18        O      tau(  18) = (   0.1007453   0.3527083   1.3018906  )
        19        O      tau(  19) = (   0.0999278   0.5992574   1.4366202  )
        20        O      tau(  20) = (   0.3385595   1.0523920   1.7620033  )
        21        O      tau(  21) = (   0.3744945   0.4340276   1.4450679  )
        22        O      tau(  22) = (   0.1180138   0.1150013   1.7458001  )
        23        O      tau(  23) = (   0.1304815   0.6665087   1.7470642  )
        24        O      tau(  24) = (   0.4037610   0.4941012   1.7602096  )
        25        O      tau(  25) = (   0.1493555   0.0500451   1.4360519  )
        26        O      tau(  26) = (   0.3753238   0.9895344   1.4462146  )
        27        Ni     tau(  27) = (   0.2413539   0.8509941   1.1121345  )
        28        Mn     tau(  28) = (   0.4917018   0.7787406   0.7768134  )
        29        Ni     tau(  29) = (   0.0044877   0.2932623   1.1138982  )
        30        Ni     tau(  30) = (   0.2563139   0.2275682   0.7805625  )
        31        Ni     tau(  31) = (   0.4969120   1.0949007   0.9459116  )
        32        Ni     tau(  32) = (   0.2488318   0.5341111   0.9469721  )
        33        P      tau(  33) = (   0.2076029   0.9882917   0.7835381  )
        34        P      tau(  34) = (   0.4577012   0.6460068   1.1076436  )
        35        P      tau(  35) = (   0.2881931   0.0932770   1.1104179  )
        36        P      tau(  36) = (   0.0392916   0.4238898   0.7837243  )
        37        O      tau(  37) = (   0.1306755   0.9148866   0.9233554  )
        38        O      tau(  38) = (   0.3789780   0.7172835   0.9680652  )
        39        O      tau(  39) = (   0.3654852   0.1662865   0.9702638  )
        40        O      tau(  40) = (   0.1163776   0.3546954   0.9254186  )
        41        O      tau(  41) = (   0.1502901   0.8969129   0.6541592  )
        42        O      tau(  42) = (   0.3974525   0.7354243   1.2370031  )
        43        O      tau(  43) = (   0.3483097   0.1789497   1.2412670  )
        44        O      tau(  44) = (   0.0974932   0.3376387   0.6529083  )
        45        O      tau(  45) = (   0.0984699   0.5818903   0.7881021  )
        46        O      tau(  46) = (   0.3459978   1.0405493   1.1018526  )
        47        O      tau(  47) = (   0.3731719   0.4204123   0.7945555  )
        48        O      tau(  48) = (   0.1223503   0.0989699   1.1000566  )
        49        O      tau(  49) = (   0.1235438   0.6536772   1.0980598  )
        50        O      tau(  50) = (   0.4004339   0.4872435   1.1047245  )
        51        O      tau(  51) = (   0.1476543   0.0398268   0.7872561  )
        52        O      tau(  52) = (   0.3728637   0.9843360   0.7931368  )
        53        Ni     tau(  53) = (   0.2406075   0.8410745   0.4603118  )
        54        Mn     tau(  54) = (   0.4909555   0.7688210   0.1249907  )
        55        Ni     tau(  55) = (   0.0037414   0.2833427   0.4620755  )
        56        Ni     tau(  56) = (   0.2555676   0.2176485   0.1287398  )
        57        Ni     tau(  57) = (   0.4961657   1.0849810   0.2940889  )
        58        Ni     tau(  58) = (   0.2480854   0.5241915   0.2951494  )
        59        P      tau(  59) = (   0.2068565   0.9783721   0.1317154  )
        60        P      tau(  60) = (   0.4569549   0.6360871   0.4558210  )
        61        P      tau(  61) = (   0.2874467   0.0833574   0.4585952  )
        62        P      tau(  62) = (   0.0385452   0.4139702   0.1319017  )
        63        O      tau(  63) = (   0.1299291   0.9049669   0.2715327  )
        64        O      tau(  64) = (   0.3782317   0.7073639   0.3162425  )
        65        O      tau(  65) = (   0.3647389   0.1563669   0.3184411  )
        66        O      tau(  66) = (   0.1156313   0.3447757   0.2735959  )
        67        O      tau(  67) = (   0.1495437   0.8869933   0.0023366  )
        68        O      tau(  68) = (   0.3967062   0.7255047   0.5851804  )
        69        O      tau(  69) = (   0.3475634   0.1690300   0.5894443  )
        70        O      tau(  70) = (   0.0967469   0.3277190   0.0010856  )
        71        O      tau(  71) = (   0.0977236   0.5719706   0.1362794  )
        72        O      tau(  72) = (   0.3452514   1.0306297   0.4500300  )
        73        O      tau(  73) = (   0.3724256   0.4104926   0.1427328  )
        74        O      tau(  74) = (   0.1216040   0.0890503   0.4482339  )
        75        O      tau(  75) = (   0.1227974   0.6437575   0.4462371  )
        76        O      tau(  76) = (   0.3996875   0.4773239   0.4529018  )
        77        O      tau(  77) = (   0.1469079   0.0299071   0.1354334  )
        78        O      tau(  78) = (   0.3721173   0.9744163   0.1413141  )
        79        Ni     tau(  79) = (   0.7414379   0.8631934   1.7811905  )
        80        Mn     tau(  80) = (   0.9841778   0.7888082   1.4314224  )
        81        Ni     tau(  81) = (   0.4981575   0.2996622   1.7438399  )
        82        Ni     tau(  82) = (   0.7578892   0.2404171   1.4315495  )
        83        Ni     tau(  83) = (   0.9960243   1.1035763   1.5974106  )
        84        Ni     tau(  84) = (   0.7511014   0.5491218   1.6034046  )
        85        P      tau(  85) = (   0.7087866   0.9973915   1.4351950  )
        86        P      tau(  86) = (   0.9628486   0.6621696   1.7637363  )
        87        P      tau(  87) = (   0.7871746   0.1114899   1.7616375  )
        88        P      tau(  88) = (   0.5410567   0.4395544   1.4323437  )
        89        O      tau(  89) = (   0.6354630   0.9223360   1.5730365  )
        90        O      tau(  90) = (   0.8842257   0.7257126   1.6195033  )
        91        O      tau(  91) = (   0.8650973   0.1749877   1.6118653  )
        92        O      tau(  92) = (   0.6191862   0.3687812   1.5717219  )
        93        O      tau(  93) = (   0.6506723   0.9089988   1.3043577  )
        94        O      tau(  94) = (   0.9054210   0.7593145   1.8845788  )
        95        O      tau(  95) = (   0.8458988   0.2143962   1.8769408  )
        96        O      tau(  96) = (   0.6009712   0.3522741   1.3025522  )
        97        O      tau(  97) = (   0.5994071   0.5984853   1.4384741  )
        98        O      tau(  98) = (   0.8467958   1.0589836   1.7578834  )
        99        O      tau(  99) = (   0.8740438   0.4364663   1.4443826  )
       100        O      tau( 100) = (   0.6200794   0.1160167   1.7440992  )
       101        O      tau( 101) = (   0.6282264   0.6595953   1.7561119  )
       102        O      tau( 102) = (   0.9078379   0.5006245   1.7604184  )
       103        O      tau( 103) = (   0.6500092   0.0493715   1.4390795  )
       104        O      tau( 104) = (   0.8760524   0.9898930   1.4442019  )
       105        Ni     tau( 105) = (   0.7413539   0.8509941   1.1121345  )
       106        Mn     tau( 106) = (   0.9917018   0.7787406   0.7768134  )
       107        Ni     tau( 107) = (   0.5044877   0.2932623   1.1138982  )
       108        Ni     tau( 108) = (   0.7563139   0.2275682   0.7805625  )
       109        Ni     tau( 109) = (   0.9969120   1.0949007   0.9459116  )
       110        Ni     tau( 110) = (   0.7488318   0.5341111   0.9469721  )
       111        P      tau( 111) = (   0.7076029   0.9882917   0.7835381  )
       112        P      tau( 112) = (   0.9577012   0.6460068   1.1076436  )
       113        P      tau( 113) = (   0.7881931   0.0932770   1.1104179  )
       114        P      tau( 114) = (   0.5392916   0.4238898   0.7837243  )
       115        O      tau( 115) = (   0.6306755   0.9148866   0.9233554  )
       116        O      tau( 116) = (   0.8789780   0.7172835   0.9680652  )
       117        O      tau( 117) = (   0.8654852   0.1662865   0.9702638  )
       118        O      tau( 118) = (   0.6163776   0.3546954   0.9254186  )
       119        O      tau( 119) = (   0.6502901   0.8969129   0.6541592  )
       120        O      tau( 120) = (   0.8974525   0.7354243   1.2370031  )
       121        O      tau( 121) = (   0.8483097   0.1789497   1.2412670  )
       122        O      tau( 122) = (   0.5974932   0.3376387   0.6529083  )
       123        O      tau( 123) = (   0.5984699   0.5818903   0.7881021  )
       124        O      tau( 124) = (   0.8459978   1.0405493   1.1018526  )
       125        O      tau( 125) = (   0.8731719   0.4204123   0.7945555  )
       126        O      tau( 126) = (   0.6223503   0.0989699   1.1000566  )
       127        O      tau( 127) = (   0.6235438   0.6536772   1.0980598  )
       128        O      tau( 128) = (   0.9004339   0.4872435   1.1047245  )
       129        O      tau( 129) = (   0.6476543   0.0398268   0.7872561  )
       130        O      tau( 130) = (   0.8728637   0.9843360   0.7931368  )
       131        Ni     tau( 131) = (   0.7406075   0.8410745   0.4603118  )
       132        Mn     tau( 132) = (   0.9909555   0.7688210   0.1249907  )
       133        Ni     tau( 133) = (   0.5037414   0.2833427   0.4620755  )
       134        Ni     tau( 134) = (   0.7555676   0.2176485   0.1287398  )
       135        Ni     tau( 135) = (   0.9961657   1.0849810   0.2940889  )
       136        Ni     tau( 136) = (   0.7480854   0.5241915   0.2951494  )
       137        P      tau( 137) = (   0.7068565   0.9783721   0.1317154  )
       138        P      tau( 138) = (   0.9569549   0.6360871   0.4558210  )
       139        P      tau( 139) = (   0.7874467   0.0833574   0.4585952  )
       140        P      tau( 140) = (   0.5385452   0.4139702   0.1319017  )
       141        O      tau( 141) = (   0.6299291   0.9049669   0.2715327  )
       142        O      tau( 142) = (   0.8782317   0.7073639   0.3162425  )
       143        O      tau( 143) = (   0.8647389   0.1563669   0.3184411  )
       144        O      tau( 144) = (   0.6156313   0.3447757   0.2735959  )
       145        O      tau( 145) = (   0.6495437   0.8869933   0.0023366  )
       146        O      tau( 146) = (   0.8967062   0.7255047   0.5851804  )
       147        O      tau( 147) = (   0.8475634   0.1690300   0.5894443  )
       148        O      tau( 148) = (   0.5967469   0.3277190   0.0010856  )
       149        O      tau( 149) = (   0.5977236   0.5719706   0.1362794  )
       150        O      tau( 150) = (   0.8452514   1.0306297   0.4500300  )
       151        O      tau( 151) = (   0.8724256   0.4104926   0.1427328  )
       152        O      tau( 152) = (   0.6216040   0.0890503   0.4482339  )
       153        O      tau( 153) = (   0.6227974   0.6437575   0.4462371  )
       154        O      tau( 154) = (   0.8996875   0.4773239   0.4529018  )
       155        O      tau( 155) = (   0.6469079   0.0299071   0.1354334  )
       156        O      tau( 156) = (   0.8721173   0.9744163   0.1413141  )
       157        O      tau( 157) = (   0.6206852   0.9487225   1.9111104  )
       158        H      tau( 158) = (   0.5401263   0.8844830   1.9390630  )

     -------------------------------------------------
     Parameters for Dispersion (Grimme-D2) Correction:
     -------------------------------------------------
       atom      VdW radius       C_6     

        Ni         2.952        374.666
        Mn         2.952        374.666
        P          3.222        271.980
        O          2.536         24.284
        H          1.892          4.857

     number of k points=     1  Gaussian smearing, width (Ry)=  0.0100
                       cart. coord. in units 2pi/alat
        k(    1) = (   0.0000000   0.0000000   0.0000000), wk =   1.0000000

     Dense  grid:  1938023 G-vectors     FFT dimensions: ( 125, 144, 450)

     Smooth grid:   490328 G-vectors     FFT dimensions: (  80,  90, 288)

     Estimated max dynamical RAM per process >     326.29 MB

     Estimated total dynamical RAM >      20.39 GB

     Check: negative core charge=   -0.000001
     Generating pointlists ...
     new r_m :   0.0812 (alat units)  1.4139 (a.u.) for type    1
     new r_m :   0.0905 (alat units)  1.5759 (a.u.) for type    2
     new r_m :   0.0681 (alat units)  1.1852 (a.u.) for type    3
     new r_m :   0.0440 (alat units)  0.7666 (a.u.) for type    4
     new r_m :   0.0440 (alat units)  0.7666 (a.u.) for type    5

     Initial potential from superposition of free atoms

     starting charge    1092.8893, renormalised to    1093.0000

     negative rho (up, down):  1.394E-03 4.558E-04
 
     Adding external electric field

     Computed dipole along edir(3) : 
        Dipole                1.6566 Ry au,          4.2107 Debye
        Dipole field          0.0010 Ry au, 
 
        Potential amp.       -0.1118 Ry
        Total length         55.1515 bohr
 
 
     Adding external electric field

     Computed dipole along edir(3) : 
        Dipole                1.6566 Ry au,          4.2107 Debye
        Dipole field          0.0010 Ry au, 
 
        Potential amp.       -0.1118 Ry
        Total length         55.1515 bohr
 
     Starting wfcs are  815 randomized atomic wfcs

     total cpu time spent up to now is       10.8 secs

     Self-consistent Calculation

     iteration #  1     ecut=    50.00 Ry     beta= 0.50
     Davidson diagonalization with overlap
     ethr =  1.00E-02,  avg # of iterations =  6.0

     negative rho (up, down):  2.540E+00 1.167E-05
 
     Adding external electric field

     Computed dipole along edir(3) : 
        Dipole              -25.3962 Ry au,        -64.5506 Debye
        Dipole field         -0.0155 Ry au, 
 
        Potential amp.        1.7147 Ry
        Total length         55.1515 bohr
 
 
     Adding external electric field

     Computed dipole along edir(3) : 
        Dipole              -25.3962 Ry au,        -64.5506 Debye
        Dipole field         -0.0155 Ry au, 
 
        Potential amp.        1.7147 Ry
        Total length         55.1515 bohr
 

     total cpu time spent up to now is       40.7 secs

     total energy              =   -7542.91567780 Ry
     estimated scf accuracy    <     800.08852564 Ry

     total magnetization       =   219.00 Bohr mag/cell
     absolute magnetization    =   307.97 Bohr mag/cell

     iteration #  2     ecut=    50.00 Ry     beta= 0.50
     Davidson diagonalization with overlap
     ethr =  1.00E-02,  avg # of iterations =  8.5

     negative rho (up, down):  2.537E+00 2.013E-05
 
     Adding external electric field

     Computed dipole along edir(3) : 
        Dipole                0.4092 Ry au,          1.0400 Debye
        Dipole field          0.0003 Ry au, 
 
        Potential amp.       -0.0276 Ry
        Total length         55.1515 bohr
 
 
     Adding external electric field

     Computed dipole along edir(3) : 
        Dipole                0.4092 Ry au,          1.0400 Debye
        Dipole field          0.0003 Ry au, 
 
        Potential amp.       -0.0276 Ry
        Total length         55.1515 bohr
 

     total cpu time spent up to now is       72.6 secs

     total energy              =   -7625.26706787 Ry
     estimated scf accuracy    <   10764.53182500 Ry

     total magnetization       =   130.31 Bohr mag/cell
     absolute magnetization    =   172.04 Bohr mag/cell

     iteration #  3     ecut=    50.00 Ry     beta= 0.50
     Davidson diagonalization with overlap
     ethr =  1.00E-02,  avg # of iterations = 10.0

     negative rho (up, down):  1.810E+00 9.001E-05
 
     Adding external electric field

     Computed dipole along edir(3) : 
        Dipole               -2.0432 Ry au,         -5.1933 Debye
        Dipole field         -0.0013 Ry au, 
 
        Potential amp.        0.1380 Ry
        Total length         55.1515 bohr
 
 
     Adding external electric field

     Computed dipole along edir(3) : 
        Dipole               -2.0432 Ry au,         -5.1933 Debye
        Dipole field         -0.0013 Ry au, 
 
        Potential amp.        0.1380 Ry
        Total length         55.1515 bohr
 

     total cpu time spent up to now is       99.8 secs

     total energy              =   -7704.87205469 Ry
     estimated scf accuracy    <     684.62889391 Ry

     total magnetization       =   125.06 Bohr mag/cell
     absolute magnetization    =   167.04 Bohr mag/cell

     iteration #  4     ecut=    50.00 Ry     beta= 0.50
     Davidson diagonalization with overlap
     ethr =  1.00E-02,  avg # of iterations =  2.0

     negative rho (up, down):  9.056E-01 6.891E-06
 
     Adding external electric field

     Computed dipole along edir(3) : 
        Dipole               -2.6479 Ry au,         -6.7303 Debye
        Dipole field         -0.0016 Ry au, 
 
        Potential amp.        0.1788 Ry
        Total length         55.1515 bohr
 
 
     Adding external electric field

     Computed dipole along edir(3) : 
        Dipole               -2.6479 Ry au,         -6.7303 Debye
        Dipole field         -0.0016 Ry au, 
 
        Potential amp.        0.1788 Ry
        Total length         55.1515 bohr
 

     total cpu time spent up to now is      116.0 secs

     total energy              =   -7726.06927779 Ry
     estimated scf accuracy    <      54.03548267 Ry

     total magnetization       =    92.65 Bohr mag/cell
     absolute magnetization    =   137.58 Bohr mag/cell

     iteration #  5     ecut=    50.00 Ry     beta= 0.50
     Davidson diagonalization with overlap
     ethr =  4.94E-03,  avg # of iterations =  1.5

     negative rho (up, down):  4.721E-01 4.138E-06
 
     Adding external electric field

     Computed dipole along edir(3) : 
        Dipole               -2.9685 Ry au,         -7.5453 Debye
        Dipole field         -0.0018 Ry au, 
 
        Potential amp.        0.2004 Ry
        Total length         55.1515 bohr
 
 
     Adding external electric field

     Computed dipole along edir(3) : 
        Dipole               -2.9685 Ry au,         -7.5453 Debye
        Dipole field         -0.0018 Ry au, 
 
        Potential amp.        0.2004 Ry
        Total length         55.1515 bohr
 

     total cpu time spent up to now is      130.2 secs

     total energy              =   -7730.32372713 Ry
     estimated scf accuracy    <      70.00920501 Ry

     total magnetization       =    84.97 Bohr mag/cell
     absolute magnetization    =   116.12 Bohr mag/cell

     iteration #  6     ecut=    50.00 Ry     beta= 0.50
     Davidson diagonalization with overlap
     ethr =  4.94E-03,  avg # of iterations =  2.0

     negative rho (up, down):  4.019E-02 5.571E-07
 
     Adding external electric field

     Computed dipole along edir(3) : 
        Dipole               -3.5342 Ry au,         -8.9829 Debye
        Dipole field         -0.0022 Ry au, 
 
        Potential amp.        0.2386 Ry
        Total length         55.1515 bohr
 
 
     Adding external electric field

     Computed dipole along edir(3) : 
        Dipole               -3.5342 Ry au,         -8.9829 Debye
        Dipole field         -0.0022 Ry au, 
 
        Potential amp.        0.2386 Ry
        Total length         55.1515 bohr
 

     total cpu time spent up to now is      145.6 secs

     total energy              =   -7736.52162310 Ry
     estimated scf accuracy    <      18.03098119 Ry

     total magnetization       =    90.78 Bohr mag/cell
     absolute magnetization    =   113.18 Bohr mag/cell

     iteration #  7     ecut=    50.00 Ry     beta= 0.50
     Davidson diagonalization with overlap
     ethr =  1.65E-03,  avg # of iterations =  2.0

     negative rho (up, down):  3.252E-05 6.929E-04
 
     Adding external electric field

     Computed dipole along edir(3) : 
        Dipole               -3.7365 Ry au,         -9.4974 Debye
        Dipole field         -0.0023 Ry au, 
 
        Potential amp.        0.2523 Ry
        Total length         55.1515 bohr
 
 
     Adding external electric field

     Computed dipole along edir(3) : 
        Dipole               -3.7365 Ry au,         -9.4974 Debye
        Dipole field         -0.0023 Ry au, 
 
        Potential amp.        0.2523 Ry
        Total length         55.1515 bohr
 

     total cpu time spent up to now is      161.0 secs

     total energy              =   -7736.73589952 Ry
     estimated scf accuracy    <      66.88606109 Ry

     total magnetization       =    81.42 Bohr mag/cell
     absolute magnetization    =    95.22 Bohr mag/cell

     iteration #  8     ecut=    50.00 Ry     beta= 0.50
     Davidson diagonalization with overlap
     ethr =  1.65E-03,  avg # of iterations =  2.0

     negative rho (up, down):  5.411E-06 1.018E-03
 
     Adding external electric field

     Computed dipole along edir(3) : 
        Dipole               -3.7644 Ry au,         -9.5682 Debye
        Dipole field         -0.0023 Ry au, 
 
        Potential amp.        0.2542 Ry
        Total length         55.1515 bohr
 
 
     Adding external electric field

     Computed dipole along edir(3) : 
        Dipole               -3.7644 Ry au,         -9.5682 Debye
        Dipole field         -0.0023 Ry au, 
 
        Potential amp.        0.2542 Ry
        Total length         55.1515 bohr
 

     total cpu time spent up to now is      176.0 secs

     total energy              =   -7738.06566040 Ry
     estimated scf accuracy    <      21.05621929 Ry

     total magnetization       =    81.60 Bohr mag/cell
     absolute magnetization    =    90.41 Bohr mag/cell

     iteration #  9     ecut=    50.00 Ry     beta= 0.50
     Davidson diagonalization with overlap
     ethr =  1.65E-03,  avg # of iterations =  2.0

     negative rho (up, down):  0.000E+00 9.323E-06
 
     Adding external electric field

     Computed dipole along edir(3) : 
        Dipole               -3.7681 Ry au,         -9.5774 Debye
        Dipole field         -0.0023 Ry au, 
 
        Potential amp.        0.2544 Ry
        Total length         55.1515 bohr
 
 
     Adding external electric field

     Computed dipole along edir(3) : 
        Dipole               -3.7681 Ry au,         -9.5774 Debye
        Dipole field         -0.0023 Ry au, 
 
        Potential amp.        0.2544 Ry
        Total length         55.1515 bohr
 

     total cpu time spent up to now is      191.2 secs

     total energy              =   -7738.05140354 Ry
     estimated scf accuracy    <       9.14687747 Ry

     total magnetization       =    85.34 Bohr mag/cell
     absolute magnetization    =    92.66 Bohr mag/cell

     iteration # 10     ecut=    50.00 Ry     beta= 0.50
     Davidson diagonalization with overlap
     ethr =  8.37E-04,  avg # of iterations =  7.0

     negative rho (up, down):  3.702E-09 1.817E-03
 
     Adding external electric field

     Computed dipole along edir(3) : 
        Dipole               -3.7514 Ry au,         -9.5352 Debye
        Dipole field         -0.0023 Ry au, 
 
        Potential amp.        0.2533 Ry
        Total length         55.1515 bohr
 
 
     Adding external electric field

     Computed dipole along edir(3) : 
        Dipole               -3.7514 Ry au,         -9.5352 Debye
        Dipole field         -0.0023 Ry au, 
 
        Potential amp.        0.2533 Ry
        Total length         55.1515 bohr
 

     total cpu time spent up to now is      210.8 secs

     total energy              =   -7738.17521419 Ry
     estimated scf accuracy    <      13.55528207 Ry

     total magnetization       =    86.90 Bohr mag/cell
     absolute magnetization    =    92.26 Bohr mag/cell

     iteration # 11     ecut=    50.00 Ry     beta= 0.50
     Davidson diagonalization with overlap
     ethr =  8.37E-04,  avg # of iterations =  1.5

     negative rho (up, down):  0.000E+00 8.851E-07
 
     Adding external electric field

     Computed dipole along edir(3) : 
        Dipole               -3.5345 Ry au,         -8.9837 Debye
        Dipole field         -0.0022 Ry au, 
 
        Potential amp.        0.2386 Ry
        Total length         55.1515 bohr
 
 
     Adding external electric field

     Computed dipole along edir(3) : 
        Dipole               -3.5345 Ry au,         -8.9837 Debye
        Dipole field         -0.0022 Ry au, 
 
        Potential amp.        0.2386 Ry
        Total length         55.1515 bohr
 

     total cpu time spent up to now is      224.2 secs

     total energy              =   -7738.26314529 Ry
     estimated scf accuracy    <       4.34243143 Ry

     total magnetization       =    86.59 Bohr mag/cell
     absolute magnetization    =    90.24 Bohr mag/cell

     iteration # 12     ecut=    50.00 Ry     beta= 0.50
     Davidson diagonalization with overlap
     ethr =  3.97E-04,  avg # of iterations =  1.5

     negative rho (up, down):  0.000E+00 1.596E-06
 
     Adding external electric field

     Computed dipole along edir(3) : 
        Dipole               -3.3622 Ry au,         -8.5459 Debye
        Dipole field         -0.0021 Ry au, 
 
        Potential amp.        0.2270 Ry
        Total length         55.1515 bohr
 
 
     Adding external electric field

     Computed dipole along edir(3) : 
        Dipole               -3.3622 Ry au,         -8.5459 Debye
        Dipole field         -0.0021 Ry au, 
 
        Potential amp.        0.2270 Ry
        Total length         55.1515 bohr
 

     total cpu time spent up to now is      238.6 secs

     total energy              =   -7738.36843871 Ry
     estimated scf accuracy    <       5.84623704 Ry

     total magnetization       =    84.15 Bohr mag/cell
     absolute magnetization    =    87.63 Bohr mag/cell

     iteration # 13     ecut=    50.00 Ry     beta= 0.50
     Davidson diagonalization with overlap
     ethr =  3.97E-04,  avg # of iterations =  2.0

     negative rho (up, down):  1.591E-08 0.000E+00
 
     Adding external electric field

     Computed dipole along edir(3) : 
        Dipole               -2.9944 Ry au,         -7.6111 Debye
        Dipole field         -0.0018 Ry au, 
 
        Potential amp.        0.2022 Ry
        Total length         55.1515 bohr
 
 
     Adding external electric field

     Computed dipole along edir(3) : 
        Dipole               -2.9944 Ry au,         -7.6111 Debye
        Dipole field         -0.0018 Ry au, 
 
        Potential amp.        0.2022 Ry
        Total length         55.1515 bohr
 

     total cpu time spent up to now is      252.6 secs

     total energy              =   -7738.26877774 Ry
     estimated scf accuracy    <      19.08366146 Ry

     total magnetization       =    83.01 Bohr mag/cell
     absolute magnetization    =    86.30 Bohr mag/cell

     iteration # 14     ecut=    50.00 Ry     beta= 0.50
     Davidson diagonalization with overlap
     ethr =  3.97E-04,  avg # of iterations =  2.0
 
     Adding external electric field

     Computed dipole along edir(3) : 
        Dipole               -2.9298 Ry au,         -7.4467 Debye
        Dipole field         -0.0018 Ry au, 
 
        Potential amp.        0.1978 Ry
        Total length         55.1515 bohr
 
 
     Adding external electric field

     Computed dipole along edir(3) : 
        Dipole               -2.9298 Ry au,         -7.4467 Debye
        Dipole field         -0.0018 Ry au, 
 
        Potential amp.        0.1978 Ry
        Total length         55.1515 bohr
 

     total cpu time spent up to now is      267.0 secs

     total energy              =   -7738.30552838 Ry
     estimated scf accuracy    <       3.27558427 Ry

     total magnetization       =    86.16 Bohr mag/cell
     absolute magnetization    =    88.47 Bohr mag/cell

     iteration # 15     ecut=    50.00 Ry     beta= 0.50
     Davidson diagonalization with overlap
     ethr =  3.00E-04,  avg # of iterations =  2.0

     negative rho (up, down):  0.000E+00 4.127E-04
 
     Adding external electric field

     Computed dipole along edir(3) : 
        Dipole               -2.8484 Ry au,         -7.2400 Debye
        Dipole field         -0.0017 Ry au, 
 
        Potential amp.        0.1923 Ry
        Total length         55.1515 bohr
 
 
     Adding external electric field

     Computed dipole along edir(3) : 
        Dipole               -2.8484 Ry au,         -7.2400 Debye
        Dipole field         -0.0017 Ry au, 
 
        Potential amp.        0.1923 Ry
        Total length         55.1515 bohr
 

     total cpu time spent up to now is      281.5 secs

     total energy              =   -7738.25412023 Ry
     estimated scf accuracy    <       9.15918183 Ry

     total magnetization       =    88.01 Bohr mag/cell
     absolute magnetization    =    90.13 Bohr mag/cell

     iteration # 16     ecut=    50.00 Ry     beta= 0.50
     Davidson diagonalization with overlap
     ethr =  3.00E-04,  avg # of iterations =  1.5

     negative rho (up, down):  0.000E+00 1.609E-03
 
     Adding external electric field

     Computed dipole along edir(3) : 
        Dipole               -2.6802 Ry au,         -6.8125 Debye
        Dipole field         -0.0016 Ry au, 
 
        Potential amp.        0.1810 Ry
        Total length         55.1515 bohr
 
 
     Adding external electric field

     Computed dipole along edir(3) : 
        Dipole               -2.6802 Ry au,         -6.8125 Debye
        Dipole field         -0.0016 Ry au, 
 
        Potential amp.        0.1810 Ry
        Total length         55.1515 bohr
 

     total cpu time spent up to now is      294.9 secs

     total energy              =   -7738.33840921 Ry
     estimated scf accuracy    <       2.87014168 Ry

     total magnetization       =    86.71 Bohr mag/cell
     absolute magnetization    =    88.39 Bohr mag/cell

     iteration # 17     ecut=    50.00 Ry     beta= 0.50
     Davidson diagonalization with overlap
     ethr =  2.63E-04,  avg # of iterations =  1.5

     negative rho (up, down):  0.000E+00 1.241E-03
 
     Adding external electric field

     Computed dipole along edir(3) : 
        Dipole               -2.5798 Ry au,         -6.5573 Debye
        Dipole field         -0.0016 Ry au, 
 
        Potential amp.        0.1742 Ry
        Total length         55.1515 bohr
 
 
     Adding external electric field

     Computed dipole along edir(3) : 
        Dipole               -2.5798 Ry au,         -6.5573 Debye
        Dipole field         -0.0016 Ry au, 
 
        Potential amp.        0.1742 Ry
        Total length         55.1515 bohr
 

     total cpu time spent up to now is      308.5 secs

     total energy              =   -7738.34137747 Ry
     estimated scf accuracy    <       1.10587361 Ry

     total magnetization       =    88.28 Bohr mag/cell
     absolute magnetization    =    89.79 Bohr mag/cell

     iteration # 18     ecut=    50.00 Ry     beta= 0.50
     Davidson diagonalization with overlap
     c_bands:  5 eigenvalues not converged
     ethr =  1.01E-04,  avg # of iterations = 11.5

     negative rho (up, down):  5.698E-08 6.237E-04
 
     Adding external electric field

     Computed dipole along edir(3) : 
        Dipole               -2.3559 Ry au,         -5.9882 Debye
        Dipole field         -0.0014 Ry au, 
 
        Potential amp.        0.1591 Ry
        Total length         55.1515 bohr
 
 
     Adding external electric field

     Computed dipole along edir(3) : 
        Dipole               -2.3559 Ry au,         -5.9882 Debye
        Dipole field         -0.0014 Ry au, 
 
        Potential amp.        0.1591 Ry
        Total length         55.1515 bohr
 

     total cpu time spent up to now is      330.8 secs

     total energy              =   -7738.33365744 Ry
     estimated scf accuracy    <       1.00692038 Ry

     total magnetization       =    87.29 Bohr mag/cell
     absolute magnetization    =    88.77 Bohr mag/cell

     iteration # 19     ecut=    50.00 Ry     beta= 0.50
     Davidson diagonalization with overlap
     ethr =  9.21E-05,  avg # of iterations =  2.0

     negative rho (up, down):  1.242E-07 2.750E-05
 
     Adding external electric field

     Computed dipole along edir(3) : 
        Dipole               -2.1818 Ry au,         -5.5456 Debye
        Dipole field         -0.0013 Ry au, 
 
        Potential amp.        0.1473 Ry
        Total length         55.1515 bohr
 
 
     Adding external electric field

     Computed dipole along edir(3) : 
        Dipole               -2.1818 Ry au,         -5.5456 Debye
        Dipole field         -0.0013 Ry au, 
 
        Potential amp.        0.1473 Ry
        Total length         55.1515 bohr
 

     total cpu time spent up to now is      344.4 secs

     total energy              =   -7738.33010310 Ry
     estimated scf accuracy    <       0.64133031 Ry

     total magnetization       =    87.90 Bohr mag/cell
     absolute magnetization    =    89.22 Bohr mag/cell

     iteration # 20     ecut=    50.00 Ry     beta= 0.50
     Davidson diagonalization with overlap
     ethr =  5.87E-05,  avg # of iterations =  3.0

     negative rho (up, down):  3.205E-08 1.130E-05
 
     Adding external electric field

     Computed dipole along edir(3) : 
        Dipole               -2.0900 Ry au,         -5.3122 Debye
        Dipole field         -0.0013 Ry au, 
 
        Potential amp.        0.1411 Ry
        Total length         55.1515 bohr
 
 
     Adding external electric field

     Computed dipole along edir(3) : 
        Dipole               -2.0900 Ry au,         -5.3122 Debye
        Dipole field         -0.0013 Ry au, 
 
        Potential amp.        0.1411 Ry
        Total length         55.1515 bohr
 

     total cpu time spent up to now is      358.6 secs

     total energy              =   -7738.33606007 Ry
     estimated scf accuracy    <       0.20666539 Ry

     total magnetization       =    87.99 Bohr mag/cell
     absolute magnetization    =    89.29 Bohr mag/cell

     iteration # 21     ecut=    50.00 Ry     beta= 0.50
     Davidson diagonalization with overlap
     ethr =  1.89E-05,  avg # of iterations = 11.0
 
     Adding external electric field

     Computed dipole along edir(3) : 
        Dipole               -2.0591 Ry au,         -5.2337 Debye
        Dipole field         -0.0013 Ry au, 
 
        Potential amp.        0.1390 Ry
        Total length         55.1515 bohr
 
 
     Adding external electric field

     Computed dipole along edir(3) : 
        Dipole               -2.0591 Ry au,         -5.2337 Debye
        Dipole field         -0.0013 Ry au, 
 
        Potential amp.        0.1390 Ry
        Total length         55.1515 bohr
 

     total cpu time spent up to now is      384.5 secs

     total energy              =   -7738.34113246 Ry
     estimated scf accuracy    <       0.17242916 Ry

     total magnetization       =    88.60 Bohr mag/cell
     absolute magnetization    =    89.89 Bohr mag/cell

     iteration # 22     ecut=    50.00 Ry     beta= 0.50
     Davidson diagonalization with overlap
     ethr =  1.58E-05,  avg # of iterations =  1.5
 
     Adding external electric field

     Computed dipole along edir(3) : 
        Dipole               -2.0085 Ry au,         -5.1051 Debye
        Dipole field         -0.0012 Ry au, 
 
        Potential amp.        0.1356 Ry
        Total length         55.1515 bohr
 
 
     Adding external electric field

     Computed dipole along edir(3) : 
        Dipole               -2.0085 Ry au,         -5.1051 Debye
        Dipole field         -0.0012 Ry au, 
 
        Potential amp.        0.1356 Ry
        Total length         55.1515 bohr
 

     total cpu time spent up to now is      398.4 secs

     total energy              =   -7738.34200021 Ry
     estimated scf accuracy    <       0.13516089 Ry

     total magnetization       =    88.74 Bohr mag/cell
     absolute magnetization    =    90.06 Bohr mag/cell

     iteration # 23     ecut=    50.00 Ry     beta= 0.50
     Davidson diagonalization with overlap
     ethr =  1.24E-05,  avg # of iterations =  1.5
 
     Adding external electric field

     Computed dipole along edir(3) : 
        Dipole               -1.9506 Ry au,         -4.9579 Debye
        Dipole field         -0.0012 Ry au, 
 
        Potential amp.        0.1317 Ry
        Total length         55.1515 bohr
 
 
     Adding external electric field

     Computed dipole along edir(3) : 
        Dipole               -1.9506 Ry au,         -4.9579 Debye
        Dipole field         -0.0012 Ry au, 
 
        Potential amp.        0.1317 Ry
        Total length         55.1515 bohr
 

     total cpu time spent up to now is      412.1 secs

     total energy              =   -7738.34116133 Ry
     estimated scf accuracy    <       0.11798314 Ry

     total magnetization       =    88.80 Bohr mag/cell
     absolute magnetization    =    90.16 Bohr mag/cell

     iteration # 24     ecut=    50.00 Ry     beta= 0.50
     Davidson diagonalization with overlap
     ethr =  1.08E-05,  avg # of iterations =  1.5
 
     Adding external electric field

     Computed dipole along edir(3) : 
        Dipole               -1.8231 Ry au,         -4.6339 Debye
        Dipole field         -0.0011 Ry au, 
 
        Potential amp.        0.1231 Ry
        Total length         55.1515 bohr
 
 
     Adding external electric field

     Computed dipole along edir(3) : 
        Dipole               -1.8231 Ry au,         -4.6339 Debye
        Dipole field         -0.0011 Ry au, 
 
        Potential amp.        0.1231 Ry
        Total length         55.1515 bohr
 

     total cpu time spent up to now is      425.8 secs

     total energy              =   -7738.33760004 Ry
     estimated scf accuracy    <       0.11945118 Ry

     total magnetization       =    88.41 Bohr mag/cell
     absolute magnetization    =    89.80 Bohr mag/cell

     iteration # 25     ecut=    50.00 Ry     beta= 0.50
     Davidson diagonalization with overlap
     ethr =  1.08E-05,  avg # of iterations =  1.5
 
     Adding external electric field

     Computed dipole along edir(3) : 
        Dipole               -1.7603 Ry au,         -4.4743 Debye
        Dipole field         -0.0011 Ry au, 
 
        Potential amp.        0.1189 Ry
        Total length         55.1515 bohr
 
 
     Adding external electric field

     Computed dipole along edir(3) : 
        Dipole               -1.7603 Ry au,         -4.4743 Debye
        Dipole field         -0.0011 Ry au, 
 
        Potential amp.        0.1189 Ry
        Total length         55.1515 bohr
 

     total cpu time spent up to now is      439.5 secs

     total energy              =   -7738.33843157 Ry
     estimated scf accuracy    <       0.09723880 Ry

     total magnetization       =    88.98 Bohr mag/cell
     absolute magnetization    =    90.42 Bohr mag/cell

     iteration # 26     ecut=    50.00 Ry     beta= 0.50
     Davidson diagonalization with overlap
     ethr =  8.90E-06,  avg # of iterations =  1.5
 
     Adding external electric field

     Computed dipole along edir(3) : 
        Dipole               -1.7802 Ry au,         -4.5248 Debye
        Dipole field         -0.0011 Ry au, 
 
        Potential amp.        0.1202 Ry
        Total length         55.1515 bohr
 
 
     Adding external electric field

     Computed dipole along edir(3) : 
        Dipole               -1.7802 Ry au,         -4.5248 Debye
        Dipole field         -0.0011 Ry au, 
 
        Potential amp.        0.1202 Ry
        Total length         55.1515 bohr
 

     total cpu time spent up to now is      453.2 secs

     total energy              =   -7738.33902576 Ry
     estimated scf accuracy    <       0.10061685 Ry

     total magnetization       =    88.68 Bohr mag/cell
     absolute magnetization    =    90.15 Bohr mag/cell

     iteration # 27     ecut=    50.00 Ry     beta= 0.50
     Davidson diagonalization with overlap
     ethr =  8.90E-06,  avg # of iterations =  1.5
 
     Adding external electric field

     Computed dipole along edir(3) : 
        Dipole               -1.6222 Ry au,         -4.1232 Debye
        Dipole field         -0.0010 Ry au, 
 
        Potential amp.        0.1095 Ry
        Total length         55.1515 bohr
 
 
     Adding external electric field

     Computed dipole along edir(3) : 
        Dipole               -1.6222 Ry au,         -4.1232 Debye
        Dipole field         -0.0010 Ry au, 
 
        Potential amp.        0.1095 Ry
        Total length         55.1515 bohr
 

     total cpu time spent up to now is      466.8 secs

     total energy              =   -7738.33606918 Ry
     estimated scf accuracy    <       0.08038185 Ry

     total magnetization       =    88.80 Bohr mag/cell
     absolute magnetization    =    90.26 Bohr mag/cell

     iteration # 28     ecut=    50.00 Ry     beta= 0.50
     Davidson diagonalization with overlap
     ethr =  7.35E-06,  avg # of iterations = 21.0
 
     Adding external electric field

     Computed dipole along edir(3) : 
        Dipole               -1.5332 Ry au,         -3.8971 Debye
        Dipole field         -0.0009 Ry au, 
 
        Potential amp.        0.1035 Ry
        Total length         55.1515 bohr
 
 
     Adding external electric field

     Computed dipole along edir(3) : 
        Dipole               -1.5332 Ry au,         -3.8971 Debye
        Dipole field         -0.0009 Ry au, 
 
        Potential amp.        0.1035 Ry
        Total length         55.1515 bohr
 

     total cpu time spent up to now is      500.0 secs

     total energy              =   -7738.33643315 Ry
     estimated scf accuracy    <       0.16747141 Ry

     total magnetization       =    88.17 Bohr mag/cell
     absolute magnetization    =    89.61 Bohr mag/cell

     iteration # 29     ecut=    50.00 Ry     beta= 0.50
     Davidson diagonalization with overlap
     ethr =  7.35E-06,  avg # of iterations =  1.5
 
     Adding external electric field

     Computed dipole along edir(3) : 
        Dipole               -1.6898 Ry au,         -4.2950 Debye
        Dipole field         -0.0010 Ry au, 
 
        Potential amp.        0.1141 Ry
        Total length         55.1515 bohr
 
 
     Adding external electric field

     Computed dipole along edir(3) : 
        Dipole               -1.6898 Ry au,         -4.2950 Debye
        Dipole field         -0.0010 Ry au, 
 
        Potential amp.        0.1141 Ry
        Total length         55.1515 bohr
 

     total cpu time spent up to now is      513.5 secs

     total energy              =   -7738.33887098 Ry
     estimated scf accuracy    <       0.15040365 Ry

     total magnetization       =    88.41 Bohr mag/cell
     absolute magnetization    =    89.85 Bohr mag/cell

     iteration # 30     ecut=    50.00 Ry     beta= 0.50
     Davidson diagonalization with overlap
     ethr =  7.35E-06,  avg # of iterations =  1.0
 
     Adding external electric field

     Computed dipole along edir(3) : 
        Dipole               -1.7159 Ry au,         -4.3613 Debye
        Dipole field         -0.0011 Ry au, 
 
        Potential amp.        0.1158 Ry
        Total length         55.1515 bohr
 
 
     Adding external electric field

     Computed dipole along edir(3) : 
        Dipole               -1.7159 Ry au,         -4.3613 Debye
        Dipole field         -0.0011 Ry au, 
 
        Potential amp.        0.1158 Ry
        Total length         55.1515 bohr
 

     total cpu time spent up to now is      526.7 secs

     total energy              =   -7738.33958729 Ry
     estimated scf accuracy    <       0.14650197 Ry

     total magnetization       =    88.46 Bohr mag/cell
     absolute magnetization    =    89.90 Bohr mag/cell

     iteration # 31     ecut=    50.00 Ry     beta= 0.50
     Davidson diagonalization with overlap
     ethr =  7.35E-06,  avg # of iterations =  1.5
 
     Adding external electric field

     Computed dipole along edir(3) : 
        Dipole               -1.2264 Ry au,         -3.1172 Debye
        Dipole field         -0.0008 Ry au, 
 
        Potential amp.        0.0828 Ry
        Total length         55.1515 bohr
 
 
     Adding external electric field

     Computed dipole along edir(3) : 
        Dipole               -1.2264 Ry au,         -3.1172 Debye
        Dipole field         -0.0008 Ry au, 
 
        Potential amp.        0.0828 Ry
        Total length         55.1515 bohr
 

     total cpu time spent up to now is      540.7 secs

     total energy              =   -7738.32882774 Ry
     estimated scf accuracy    <       0.15641227 Ry

     total magnetization       =    88.48 Bohr mag/cell
     absolute magnetization    =    89.92 Bohr mag/cell

     iteration # 32     ecut=    50.00 Ry     beta= 0.50
     Davidson diagonalization with overlap
     ethr =  7.35E-06,  avg # of iterations =  4.0
 
     Adding external electric field

     Computed dipole along edir(3) : 
        Dipole               -1.0174 Ry au,         -2.5860 Debye
        Dipole field         -0.0006 Ry au, 
 
        Potential amp.        0.0687 Ry
        Total length         55.1515 bohr
 
 
     Adding external electric field

     Computed dipole along edir(3) : 
        Dipole               -1.0174 Ry au,         -2.5860 Debye
        Dipole field         -0.0006 Ry au, 
 
        Potential amp.        0.0687 Ry
        Total length         55.1515 bohr
 

     total cpu time spent up to now is      556.3 secs

     total energy              =   -7738.32658631 Ry
     estimated scf accuracy    <       0.06612073 Ry

     total magnetization       =    88.64 Bohr mag/cell
     absolute magnetization    =    90.03 Bohr mag/cell

     iteration # 33     ecut=    50.00 Ry     beta= 0.50
     Davidson diagonalization with overlap
     c_bands:  1 eigenvalues not converged
     ethr =  6.05E-06,  avg # of iterations = 11.0
 
     Adding external electric field

     Computed dipole along edir(3) : 
        Dipole               -0.7777 Ry au,         -1.9767 Debye
        Dipole field         -0.0005 Ry au, 
 
        Potential amp.        0.0525 Ry
        Total length         55.1515 bohr
 
 
     Adding external electric field

     Computed dipole along edir(3) : 
        Dipole               -0.7777 Ry au,         -1.9767 Debye
        Dipole field         -0.0005 Ry au, 
 
        Potential amp.        0.0525 Ry
        Total length         55.1515 bohr
 

     total cpu time spent up to now is      577.2 secs

     total energy              =   -7738.32358191 Ry
     estimated scf accuracy    <       0.05059878 Ry

     total magnetization       =    88.72 Bohr mag/cell
     absolute magnetization    =    90.09 Bohr mag/cell

     iteration # 34     ecut=    50.00 Ry     beta= 0.50
     Davidson diagonalization with overlap
     c_bands:  3 eigenvalues not converged
     ethr =  4.63E-06,  avg # of iterations = 11.0
 
     Adding external electric field

     Computed dipole along edir(3) : 
        Dipole               -0.6517 Ry au,         -1.6564 Debye
        Dipole field         -0.0004 Ry au, 
 
        Potential amp.        0.0440 Ry
        Total length         55.1515 bohr
 
 
     Adding external electric field

     Computed dipole along edir(3) : 
        Dipole               -0.6517 Ry au,         -1.6564 Debye
        Dipole field         -0.0004 Ry au, 
 
        Potential amp.        0.0440 Ry
        Total length         55.1515 bohr
 

     total cpu time spent up to now is      599.2 secs

     total energy              =   -7738.32181073 Ry
     estimated scf accuracy    <       0.05101502 Ry

     total magnetization       =    88.58 Bohr mag/cell
     absolute magnetization    =    89.94 Bohr mag/cell

     iteration # 35     ecut=    50.00 Ry     beta= 0.50
     Davidson diagonalization with overlap
     ethr =  4.63E-06,  avg # of iterations =  2.0
 
     Adding external electric field

     Computed dipole along edir(3) : 
        Dipole               -0.7943 Ry au,         -2.0188 Debye
        Dipole field         -0.0005 Ry au, 
 
        Potential amp.        0.0536 Ry
        Total length         55.1515 bohr
 
 
     Adding external electric field

     Computed dipole along edir(3) : 
        Dipole               -0.7943 Ry au,         -2.0188 Debye
        Dipole field         -0.0005 Ry au, 
 
        Potential amp.        0.0536 Ry
        Total length         55.1515 bohr
 

     total cpu time spent up to now is      613.3 secs

     total energy              =   -7738.32035049 Ry
     estimated scf accuracy    <       0.06524873 Ry

     total magnetization       =    88.49 Bohr mag/cell
     absolute magnetization    =    89.84 Bohr mag/cell

     iteration # 36     ecut=    50.00 Ry     beta= 0.50
     Davidson diagonalization with overlap
     ethr =  4.63E-06,  avg # of iterations =  9.0
 
     Adding external electric field

     Computed dipole along edir(3) : 
        Dipole               -0.8698 Ry au,         -2.2109 Debye
        Dipole field         -0.0005 Ry au, 
 
        Potential amp.        0.0587 Ry
        Total length         55.1515 bohr
 
 
     Adding external electric field

     Computed dipole along edir(3) : 
        Dipole               -0.8698 Ry au,         -2.2109 Debye
        Dipole field         -0.0005 Ry au, 
 
        Potential amp.        0.0587 Ry
        Total length         55.1515 bohr
 

     total cpu time spent up to now is      631.3 secs

     total energy              =   -7738.32104798 Ry
     estimated scf accuracy    <       0.05520922 Ry

     total magnetization       =    88.88 Bohr mag/cell
     absolute magnetization    =    90.22 Bohr mag/cell

     iteration # 37     ecut=    50.00 Ry     beta= 0.50
     Davidson diagonalization with overlap
     ethr =  4.63E-06,  avg # of iterations =  2.0

     negative rho (up, down):  6.997E-03 7.805E-03
 
     Adding external electric field

     Computed dipole along edir(3) : 
        Dipole               -0.1530 Ry au,         -0.3888 Debye
        Dipole field         -0.0001 Ry au, 
 
        Potential amp.        0.0103 Ry
        Total length         55.1515 bohr
 
 
     Adding external electric field

     Computed dipole along edir(3) : 
        Dipole               -0.1530 Ry au,         -0.3888 Debye
        Dipole field         -0.0001 Ry au, 
 
        Potential amp.        0.0103 Ry
        Total length         55.1515 bohr
 

     total cpu time spent up to now is      645.6 secs

     total energy              =   -7738.31586119 Ry
     estimated scf accuracy    <       0.04738236 Ry

     total magnetization       =    88.63 Bohr mag/cell
     absolute magnetization    =    89.99 Bohr mag/cell

     iteration # 38     ecut=    50.00 Ry     beta= 0.50
     Davidson diagonalization with overlap
     ethr =  4.34E-06,  avg # of iterations =  5.0

     negative rho (up, down):  3.353E-03 3.469E-03
 
     Adding external electric field

     Computed dipole along edir(3) : 
        Dipole               -0.4313 Ry au,         -1.0963 Debye
        Dipole field         -0.0003 Ry au, 
 
        Potential amp.        0.0291 Ry
        Total length         55.1515 bohr
 
 
     Adding external electric field

     Computed dipole along edir(3) : 
        Dipole               -0.4313 Ry au,         -1.0963 Debye
        Dipole field         -0.0003 Ry au, 
 
        Potential amp.        0.0291 Ry
        Total length         55.1515 bohr
 

     total cpu time spent up to now is      663.7 secs

     total energy              =   -7738.31535217 Ry
     estimated scf accuracy    <       0.17323817 Ry

     total magnetization       =    88.35 Bohr mag/cell
     absolute magnetization    =    89.70 Bohr mag/cell

     iteration # 39     ecut=    50.00 Ry     beta= 0.50
     Davidson diagonalization with overlap
     ethr =  4.34E-06,  avg # of iterations =  7.0

     negative rho (up, down):  4.977E-03 4.815E-03
 
     Adding external electric field

     Computed dipole along edir(3) : 
        Dipole               -0.3774 Ry au,         -0.9592 Debye
        Dipole field         -0.0002 Ry au, 
 
        Potential amp.        0.0255 Ry
        Total length         55.1515 bohr
 
 
     Adding external electric field

     Computed dipole along edir(3) : 
        Dipole               -0.3774 Ry au,         -0.9592 Debye
        Dipole field         -0.0002 Ry au, 
 
        Potential amp.        0.0255 Ry
        Total length         55.1515 bohr
 

     total cpu time spent up to now is      680.7 secs

     total energy              =   -7738.31680929 Ry
     estimated scf accuracy    <       0.02206753 Ry

     total magnetization       =    88.58 Bohr mag/cell
     absolute magnetization    =    89.94 Bohr mag/cell

     iteration # 40     ecut=    50.00 Ry     beta= 0.50
     Davidson diagonalization with overlap
     c_bands:  5 eigenvalues not converged
     c_bands:  4 eigenvalues not converged
     ethr =  2.02E-06,  avg # of iterations = 20.0

     negative rho (up, down):  6.593E-03 6.230E-03
 
     Adding external electric field

     Computed dipole along edir(3) : 
        Dipole               -0.2727 Ry au,         -0.6932 Debye
        Dipole field         -0.0002 Ry au, 
 
        Potential amp.        0.0184 Ry
        Total length         55.1515 bohr
 
 
     Adding external electric field

     Computed dipole along edir(3) : 
        Dipole               -0.2727 Ry au,         -0.6932 Debye
        Dipole field         -0.0002 Ry au, 
 
        Potential amp.        0.0184 Ry
        Total length         55.1515 bohr
 

     total cpu time spent up to now is      709.1 secs

     total energy              =   -7738.31712667 Ry
     estimated scf accuracy    <       0.02540590 Ry

     total magnetization       =    88.64 Bohr mag/cell
     absolute magnetization    =    90.01 Bohr mag/cell

     iteration # 41     ecut=    50.00 Ry     beta= 0.50
     Davidson diagonalization with overlap
     ethr =  2.02E-06,  avg # of iterations = 12.0

     negative rho (up, down):  1.519E-02 1.481E-02
 
     Adding external electric field

     Computed dipole along edir(3) : 
        Dipole               -0.1655 Ry au,         -0.4207 Debye
        Dipole field         -0.0001 Ry au, 
 
        Potential amp.        0.0112 Ry
        Total length         55.1515 bohr
 
 
     Adding external electric field

     Computed dipole along edir(3) : 
        Dipole               -0.1655 Ry au,         -0.4207 Debye
        Dipole field         -0.0001 Ry au, 
 
        Potential amp.        0.0112 Ry
        Total length         55.1515 bohr
 

     total cpu time spent up to now is      729.5 secs

     total energy              =   -7738.31751269 Ry
     estimated scf accuracy    <       0.00825028 Ry

     total magnetization       =    88.58 Bohr mag/cell
     absolute magnetization    =    89.96 Bohr mag/cell

     iteration # 42     ecut=    50.00 Ry     beta= 0.50
     Davidson diagonalization with overlap
     c_bands:  1 eigenvalues not converged
     ethr =  7.55E-07,  avg # of iterations = 25.5

     negative rho (up, down):  9.376E-03 9.037E-03
 
     Adding external electric field

     Computed dipole along edir(3) : 
        Dipole               -0.2321 Ry au,         -0.5900 Debye
        Dipole field         -0.0001 Ry au, 
 
        Potential amp.        0.0157 Ry
        Total length         55.1515 bohr
 
 
     Adding external electric field

     Computed dipole along edir(3) : 
        Dipole               -0.2321 Ry au,         -0.5900 Debye
        Dipole field         -0.0001 Ry au, 
 
        Potential amp.        0.0157 Ry
        Total length         55.1515 bohr
 

     total cpu time spent up to now is      763.0 secs

     total energy              =   -7738.31720251 Ry
     estimated scf accuracy    <       0.01231113 Ry

     total magnetization       =    88.41 Bohr mag/cell
     absolute magnetization    =    89.80 Bohr mag/cell

     iteration # 43     ecut=    50.00 Ry     beta= 0.50
     Davidson diagonalization with overlap
     ethr =  7.55E-07,  avg # of iterations =  2.5

     negative rho (up, down):  3.918E-03 3.532E-03
 
     Adding external electric field

     Computed dipole along edir(3) : 
        Dipole               -0.2976 Ry au,         -0.7565 Debye
        Dipole field         -0.0002 Ry au, 
 
        Potential amp.        0.0201 Ry
        Total length         55.1515 bohr
 
 
     Adding external electric field

     Computed dipole along edir(3) : 
        Dipole               -0.2976 Ry au,         -0.7565 Debye
        Dipole field         -0.0002 Ry au, 
 
        Potential amp.        0.0201 Ry
        Total length         55.1515 bohr
 

     total cpu time spent up to now is      777.7 secs

     total energy              =   -7738.31709216 Ry
     estimated scf accuracy    <       0.00465108 Ry

     total magnetization       =    88.47 Bohr mag/cell
     absolute magnetization    =    89.86 Bohr mag/cell

     iteration # 44     ecut=    50.00 Ry     beta= 0.50
     Davidson diagonalization with overlap
     c_bands:  1 eigenvalues not converged
     ethr =  4.26E-07,  avg # of iterations = 14.5

     negative rho (up, down):  3.477E-03 3.233E-03
 
     Adding external electric field

     Computed dipole along edir(3) : 
        Dipole               -0.3107 Ry au,         -0.7898 Debye
        Dipole field         -0.0002 Ry au, 
 
        Potential amp.        0.0210 Ry
        Total length         55.1515 bohr
 
 
     Adding external electric field

     Computed dipole along edir(3) : 
        Dipole               -0.3107 Ry au,         -0.7898 Debye
        Dipole field         -0.0002 Ry au, 
 
        Potential amp.        0.0210 Ry
        Total length         55.1515 bohr
 

     total cpu time spent up to now is      799.5 secs

     total energy              =   -7738.31718163 Ry
     estimated scf accuracy    <       0.00212638 Ry

     total magnetization       =    88.48 Bohr mag/cell
     absolute magnetization    =    89.87 Bohr mag/cell

     iteration # 45     ecut=    50.00 Ry     beta= 0.50
     Davidson diagonalization with overlap
     ethr =  1.95E-07,  avg # of iterations =  2.0

     negative rho (up, down):  2.421E-03 2.134E-03
 
     Adding external electric field

     Computed dipole along edir(3) : 
        Dipole               -0.3140 Ry au,         -0.7980 Debye
        Dipole field         -0.0002 Ry au, 
 
        Potential amp.        0.0212 Ry
        Total length         55.1515 bohr
 
 
     Adding external electric field

     Computed dipole along edir(3) : 
        Dipole               -0.3140 Ry au,         -0.7980 Debye
        Dipole field         -0.0002 Ry au, 
 
        Potential amp.        0.0212 Ry
        Total length         55.1515 bohr
 

     total cpu time spent up to now is      813.4 secs

     total energy              =   -7738.31718555 Ry
     estimated scf accuracy    <       0.00055525 Ry

     total magnetization       =    88.47 Bohr mag/cell
     absolute magnetization    =    89.85 Bohr mag/cell

     iteration # 46     ecut=    50.00 Ry     beta= 0.50
     Davidson diagonalization with overlap
     ethr =  5.08E-08,  avg # of iterations =  2.0

     negative rho (up, down):  1.926E-03 1.650E-03
 
     Adding external electric field

     Computed dipole along edir(3) : 
        Dipole               -0.3196 Ry au,         -0.8124 Debye
        Dipole field         -0.0002 Ry au, 
 
        Potential amp.        0.0216 Ry
        Total length         55.1515 bohr
 
 
     Adding external electric field

     Computed dipole along edir(3) : 
        Dipole               -0.3196 Ry au,         -0.8124 Debye
        Dipole field         -0.0002 Ry au, 
 
        Potential amp.        0.0216 Ry
        Total length         55.1515 bohr
 

     total cpu time spent up to now is      827.0 secs

     total energy              =   -7738.31717521 Ry
     estimated scf accuracy    <       0.00103039 Ry

     total magnetization       =    88.51 Bohr mag/cell
     absolute magnetization    =    89.89 Bohr mag/cell

     iteration # 47     ecut=    50.00 Ry     beta= 0.50
     Davidson diagonalization with overlap
     ethr =  5.08E-08,  avg # of iterations =  2.0

     negative rho (up, down):  1.909E-03 1.592E-03
 
     Adding external electric field

     Computed dipole along edir(3) : 
        Dipole               -0.3117 Ry au,         -0.7923 Debye
        Dipole field         -0.0002 Ry au, 
 
        Potential amp.        0.0210 Ry
        Total length         55.1515 bohr
 
 
     Adding external electric field

     Computed dipole along edir(3) : 
        Dipole               -0.3117 Ry au,         -0.7923 Debye
        Dipole field         -0.0002 Ry au, 
 
        Potential amp.        0.0210 Ry
        Total length         55.1515 bohr
 

     total cpu time spent up to now is      841.4 secs

     total energy              =   -7738.31718770 Ry
     estimated scf accuracy    <       0.00048276 Ry

     total magnetization       =    88.47 Bohr mag/cell
     absolute magnetization    =    89.85 Bohr mag/cell

     iteration # 48     ecut=    50.00 Ry     beta= 0.50
     Davidson diagonalization with overlap
     ethr =  4.42E-08,  avg # of iterations =  1.0

     negative rho (up, down):  1.400E-03 1.046E-03
 
     Adding external electric field

     Computed dipole along edir(3) : 
        Dipole               -0.3147 Ry au,         -0.8000 Debye
        Dipole field         -0.0002 Ry au, 
 
        Potential amp.        0.0212 Ry
        Total length         55.1515 bohr
 
 
     Adding external electric field

     Computed dipole along edir(3) : 
        Dipole               -0.3147 Ry au,         -0.8000 Debye
        Dipole field         -0.0002 Ry au, 
 
        Potential amp.        0.0212 Ry
        Total length         55.1515 bohr
 

     total cpu time spent up to now is      853.2 secs

     total energy              =   -7738.31718416 Ry
     estimated scf accuracy    <       0.00007271 Ry

     total magnetization       =    88.48 Bohr mag/cell
     absolute magnetization    =    89.85 Bohr mag/cell

     iteration # 49     ecut=    50.00 Ry     beta= 0.50
     Davidson diagonalization with overlap
     ethr =  6.65E-09,  avg # of iterations =  1.5

     negative rho (up, down):  1.184E-03 7.813E-04
 
     Adding external electric field

     Computed dipole along edir(3) : 
        Dipole               -0.3152 Ry au,         -0.8012 Debye
        Dipole field         -0.0002 Ry au, 
 
        Potential amp.        0.0213 Ry
        Total length         55.1515 bohr
 
 
     Adding external electric field

     Computed dipole along edir(3) : 
        Dipole               -0.3152 Ry au,         -0.8012 Debye
        Dipole field         -0.0002 Ry au, 
 
        Potential amp.        0.0213 Ry
        Total length         55.1515 bohr
 

     total cpu time spent up to now is      866.1 secs

     total energy              =   -7738.31718613 Ry
     estimated scf accuracy    <       0.00001971 Ry

     total magnetization       =    88.45 Bohr mag/cell
     absolute magnetization    =    89.83 Bohr mag/cell

     iteration # 50     ecut=    50.00 Ry     beta= 0.50
     Davidson diagonalization with overlap
     ethr =  1.80E-09,  avg # of iterations =  1.0

     negative rho (up, down):  1.184E-03 7.491E-04
 
     Adding external electric field

     Computed dipole along edir(3) : 
        Dipole               -0.3152 Ry au,         -0.8012 Debye
        Dipole field         -0.0002 Ry au, 
 
        Potential amp.        0.0213 Ry
        Total length         55.1515 bohr
 
 
     Adding external electric field

     Computed dipole along edir(3) : 
        Dipole               -0.3152 Ry au,         -0.8012 Debye
        Dipole field         -0.0002 Ry au, 
 
        Potential amp.        0.0213 Ry
        Total length         55.1515 bohr
 

     total cpu time spent up to now is      878.2 secs

     total energy              =   -7738.31718724 Ry
     estimated scf accuracy    <       0.00002353 Ry

     total magnetization       =    88.46 Bohr mag/cell
     absolute magnetization    =    89.84 Bohr mag/cell

     iteration # 51     ecut=    50.00 Ry     beta= 0.50
     Davidson diagonalization with overlap
     ethr =  1.80E-09,  avg # of iterations =  1.5

     negative rho (up, down):  1.144E-03 6.932E-04
 
     Adding external electric field

     Computed dipole along edir(3) : 
        Dipole               -0.3152 Ry au,         -0.8012 Debye
        Dipole field         -0.0002 Ry au, 
 
        Potential amp.        0.0213 Ry
        Total length         55.1515 bohr
 
 
     Adding external electric field

     Computed dipole along edir(3) : 
        Dipole               -0.3152 Ry au,         -0.8012 Debye
        Dipole field         -0.0002 Ry au, 
 
        Potential amp.        0.0213 Ry
        Total length         55.1515 bohr
 

     total cpu time spent up to now is      890.2 secs

     total energy              =   -7738.31718751 Ry
     estimated scf accuracy    <       0.00003134 Ry

     total magnetization       =    88.47 Bohr mag/cell
     absolute magnetization    =    89.85 Bohr mag/cell

     iteration # 52     ecut=    50.00 Ry     beta= 0.50
     Davidson diagonalization with overlap
     ethr =  1.80E-09,  avg # of iterations =  1.0

     negative rho (up, down):  1.119E-03 6.626E-04
 
     Adding external electric field

     Computed dipole along edir(3) : 
        Dipole               -0.3153 Ry au,         -0.8013 Debye
        Dipole field         -0.0002 Ry au, 
 
        Potential amp.        0.0213 Ry
        Total length         55.1515 bohr
 
 
     Adding external electric field

     Computed dipole along edir(3) : 
        Dipole               -0.3153 Ry au,         -0.8013 Debye
        Dipole field         -0.0002 Ry au, 
 
        Potential amp.        0.0213 Ry
        Total length         55.1515 bohr
 

     total cpu time spent up to now is      902.0 secs

     total energy              =   -7738.31718779 Ry
     estimated scf accuracy    <       0.00000944 Ry

     total magnetization       =    88.46 Bohr mag/cell
     absolute magnetization    =    89.84 Bohr mag/cell

     iteration # 53     ecut=    50.00 Ry     beta= 0.50
     Davidson diagonalization with overlap
     ethr =  8.64E-10,  avg # of iterations =  1.0

     negative rho (up, down):  1.088E-03 6.262E-04
 
     Adding external electric field

     Computed dipole along edir(3) : 
        Dipole               -0.3157 Ry au,         -0.8025 Debye
        Dipole field         -0.0002 Ry au, 
 
        Potential amp.        0.0213 Ry
        Total length         55.1515 bohr
 
 
     Adding external electric field

     Computed dipole along edir(3) : 
        Dipole               -0.3157 Ry au,         -0.8025 Debye
        Dipole field         -0.0002 Ry au, 
 
        Potential amp.        0.0213 Ry
        Total length         55.1515 bohr
 

     total cpu time spent up to now is      963.7 secs

     total energy              =   -7738.31718755 Ry
     estimated scf accuracy    <       0.00000860 Ry

     total magnetization       =    88.47 Bohr mag/cell
     absolute magnetization    =    89.84 Bohr mag/cell

     iteration # 54     ecut=    50.00 Ry     beta= 0.50
     Davidson diagonalization with overlap
     ethr =  7.87E-10,  avg # of iterations =  1.5

     negative rho (up, down):  1.025E-03 5.618E-04
 
     Adding external electric field

     Computed dipole along edir(3) : 
        Dipole               -0.3161 Ry au,         -0.8035 Debye
        Dipole field         -0.0002 Ry au, 
 
        Potential amp.        0.0213 Ry
        Total length         55.1515 bohr
 
 
     Adding external electric field

     Computed dipole along edir(3) : 
        Dipole               -0.3161 Ry au,         -0.8035 Debye
        Dipole field         -0.0002 Ry au, 
 
        Potential amp.        0.0213 Ry
        Total length         55.1515 bohr
 

     total cpu time spent up to now is      976.2 secs

     total energy              =   -7738.31718724 Ry
     estimated scf accuracy    <       0.00000246 Ry

     total magnetization       =    88.47 Bohr mag/cell
     absolute magnetization    =    89.84 Bohr mag/cell

     iteration # 55     ecut=    50.00 Ry     beta= 0.50
     Davidson diagonalization with overlap
     ethr =  2.25E-10,  avg # of iterations =  1.0

     negative rho (up, down):  1.051E-03 5.881E-04
 
     Adding external electric field

     Computed dipole along edir(3) : 
        Dipole               -0.3304 Ry au,         -0.8399 Debye
        Dipole field         -0.0002 Ry au, 
 
        Potential amp.        0.0223 Ry
        Total length         55.1515 bohr
 
 
     Adding external electric field

     Computed dipole along edir(3) : 
        Dipole               -0.3304 Ry au,         -0.8399 Debye
        Dipole field         -0.0002 Ry au, 
 
        Potential amp.        0.0223 Ry
        Total length         55.1515 bohr
 
 
     Magnetic moment per site  (integrated on atomic sphere of radius R)
     atom   1 (R=0.081)  charge=  7.1263  magn=  1.4477
     atom   2 (R=0.091)  charge= 12.1427  magn=  3.8509
     atom   3 (R=0.081)  charge=  7.1259  magn=  1.4383
     atom   4 (R=0.081)  charge=  7.1117  magn=  1.5289
     atom   5 (R=0.081)  charge=  7.1272  magn=  1.4908
     atom   6 (R=0.081)  charge=  7.1283  magn=  1.4830
     atom   7 (R=0.068)  charge=  0.8202  magn=  0.0073
     atom   8 (R=0.068)  charge=  0.8163  magn=  0.0050
     atom   9 (R=0.068)  charge=  0.8159  magn=  0.0043
     atom  10 (R=0.068)  charge=  0.8180  magn=  0.0067
     atom  11 (R=0.044)  charge=  1.9504  magn=  0.0670
     atom  12 (R=0.044)  charge=  1.9482  magn=  0.0807
     atom  13 (R=0.044)  charge=  1.9439  magn=  0.1016
     atom  14 (R=0.044)  charge=  1.9483  magn=  0.0730
     atom  15 (R=0.044)  charge=  1.9558  magn=  0.0452
     atom  16 (R=0.044)  charge=  1.9463  magn=  0.0380
     atom  17 (R=0.044)  charge=  1.9445  magn=  0.0449
     atom  18 (R=0.044)  charge=  1.9520  magn=  0.0507
     atom  19 (R=0.044)  charge=  1.9540  magn=  0.0377
     atom  20 (R=0.044)  charge=  1.9485  magn=  0.0522
     atom  21 (R=0.044)  charge=  1.9545  magn=  0.0464
     atom  22 (R=0.044)  charge=  1.9530  magn=  0.0490
     atom  23 (R=0.044)  charge=  1.9512  magn=  0.0500
     atom  24 (R=0.044)  charge=  1.9501  magn=  0.0527
     atom  25 (R=0.044)  charge=  1.9549  magn=  0.0501
     atom  26 (R=0.044)  charge=  1.9574  magn=  0.0316
     atom  27 (R=0.081)  charge=  7.1114  magn=  1.5195
     atom  28 (R=0.091)  charge= 12.1647  magn=  3.9293
     atom  29 (R=0.081)  charge=  7.1118  magn=  1.5255
     atom  30 (R=0.081)  charge=  7.1140  magn=  1.5239
     atom  31 (R=0.081)  charge=  7.1303  magn=  1.5034
     atom  32 (R=0.081)  charge=  7.1282  magn=  1.5012
     atom  33 (R=0.068)  charge=  0.8205  magn=  0.0071
     atom  34 (R=0.068)  charge=  0.8190  magn=  0.0083
     atom  35 (R=0.068)  charge=  0.8184  magn=  0.0061
     atom  36 (R=0.068)  charge=  0.8211  magn=  0.0070
     atom  37 (R=0.044)  charge=  1.9480  magn=  0.0676
     atom  38 (R=0.044)  charge=  1.9480  magn=  0.0649
     atom  39 (R=0.044)  charge=  1.9453  magn=  0.0807
     atom  40 (R=0.044)  charge=  1.9442  magn=  0.0786
     atom  41 (R=0.044)  charge=  1.9554  magn=  0.0468
     atom  42 (R=0.044)  charge=  1.9569  magn=  0.0442
     atom  43 (R=0.044)  charge=  1.9522  magn=  0.0538
     atom  44 (R=0.044)  charge=  1.9533  magn=  0.0525
     atom  45 (R=0.044)  charge=  1.9569  magn=  0.0459
     atom  46 (R=0.044)  charge=  1.9537  magn=  0.0562
     atom  47 (R=0.044)  charge=  1.9555  magn=  0.0489
     atom  48 (R=0.044)  charge=  1.9549  magn=  0.0488
     atom  49 (R=0.044)  charge=  1.9532  magn=  0.0466
     atom  50 (R=0.044)  charge=  1.9530  magn=  0.0540
     atom  51 (R=0.044)  charge=  1.9526  magn=  0.0519
     atom  52 (R=0.044)  charge=  1.9592  magn=  0.0369
     atom  53 (R=0.081)  charge=  7.1095  magn=  1.5232
     atom  54 (R=0.091)  charge= 12.1501  magn=  3.9476
     atom  55 (R=0.081)  charge=  7.1122  magn=  1.5249
     atom  56 (R=0.081)  charge=  7.1338  magn=  1.4131
     atom  57 (R=0.081)  charge=  7.1302  magn=  1.5008
     atom  58 (R=0.081)  charge=  7.1280  magn=  1.5012
     atom  59 (R=0.068)  charge=  0.8227  magn=  0.0050
     atom  60 (R=0.068)  charge=  0.8187  magn=  0.0081
[...]
    -5.9810  -5.9668  -5.9169  -5.9068  -5.8852  -5.8775  -5.8750  -5.8454
    -5.8257  -5.8012  -5.7505  -5.7396  -5.7194  -5.6912  -5.6762  -5.6452
    -5.6405  -5.6310  -5.5920  -5.5761  -5.5687  -5.5600  -5.5561  -5.5321
    -5.5172  -5.5048  -5.4821  -5.4437  -5.4014  -5.3570  -5.3321  -5.3176
    -5.2961  -5.2657  -5.2343  -5.1662  -5.1510  -5.1470  -5.1334  -5.1037
    -5.0540  -5.0118  -4.9694  -4.9431  -4.9003  -4.8891  -4.8607  -4.8552
    -4.8138  -4.7956  -4.7805  -4.7432  -4.7073  -4.6897  -4.6493  -4.6046
    -4.5515  -4.4699  -4.4435  -4.4261  -4.4167  -4.4018  -4.3600  -4.3529
    -4.3071  -4.2830  -4.2563  -4.2344  -4.2038  -4.1704  -4.1177  -4.1070
    -4.0773  -4.0489  -4.0469  -4.0150  -3.9579  -3.9336  -3.9201  -3.8776
    -3.8677  -3.8198  -3.8112  -3.7993  -3.7872  -3.7478  -3.7235  -3.6949
    -3.6921  -3.6638  -3.6460  -3.5973  -3.5844  -3.5781  -3.5737  -3.5472
    -3.5431  -3.5207  -3.5023  -3.4769  -3.4584  -3.4424  -3.4274  -3.4126
    -3.4096  -3.3697  -3.3600  -3.3533  -3.3375  -3.3042  -3.2745  -3.2586
    -3.2540  -3.2109  -3.1966  -3.1815  -3.1491  -3.1162  -3.1035  -3.0817
    -3.0736  -3.0675  -3.0438  -3.0375  -3.0218  -3.0032  -2.9786  -2.9659
    -2.9296  -2.9180  -2.8961  -2.8879  -2.8687  -2.8533  -2.8138  -2.7960
    -2.7878  -2.7586  -2.7541  -2.7454  -2.7281  -2.7170  -2.7029  -2.6955
    -2.6875  -2.6774  -2.6615  -2.6473  -2.6410  -2.6084  -2.6020  -2.5971
    -2.5731  -2.5672  -2.5419  -2.5275  -2.5175  -2.4868  -2.4737  -2.4576
    -2.4449  -2.4213  -2.4098  -2.3793  -2.3583  -2.3535  -2.3204  -2.2870
    -2.2777  -2.2668  -2.2282  -2.2103  -2.1952  -2.1800  -2.1473  -2.1428
    -2.1148  -2.0877  -2.0688  -2.0635  -2.0576  -2.0428  -2.0314  -2.0225
    -1.9983  -1.9786  -1.9412  -1.9185  -1.9137  -1.9120  -1.8784  -1.8566
    -1.8422  -1.8365  -1.8252  -1.8099  -1.7893  -1.7168  -1.7094  -1.6920
    -1.6723  -1.6566  -1.6356  -1.6296  -1.6161  -1.6143  -1.5923  -1.5706
    -1.5503  -1.5320  -1.5160  -1.4894  -1.4863  -1.4555  -1.4365  -1.4290
    -1.4000  -1.3971  -1.3823  -1.3764  -1.3584  -1.3492  -1.3054  -1.2628
    -1.2350  -1.2124  -1.1711  -1.1500  -1.1372  -1.1329  -1.0934  -1.0548
    -1.0419  -0.9963  -0.9302  -0.8485  -0.7381  -0.7304  -0.6200  -0.5555
    -0.5242  -0.5104  -0.3580  -0.2204   0.1768   0.2185   0.2409   0.2457
     0.2976   0.3095   0.3126   0.3192   0.3285   0.3477   0.3571   0.3673
     0.3738   0.3876   0.3950   0.4013   0.4038   0.4128   0.4175   0.4250
     0.4312   0.4391   0.4609   0.4643   0.4741   0.4819   0.4892   0.4899
     0.4945   0.5004   0.5081   0.5151   0.5239   0.5316   0.5345   0.5417
     0.5433   0.5617   0.5655   0.5734   0.5825   0.5982   0.6018   0.6167
     0.6218   0.6232   0.6397   0.6466   0.6515   0.6602   0.6647   0.6765
     0.6827   0.6907   0.6989   0.7011   0.7112   0.7285   0.7307   0.7411
     0.7461   0.7570   0.7654   0.7671   0.7741   0.7898   0.7988   0.8096
     0.8114   0.8210   0.8371   0.8542   0.8647   0.8654   0.8679   0.8733
     0.8812   0.8875   0.9047   0.9079   0.9169   0.9512   0.9844   0.9936
     1.0182   1.0481   1.0862   1.1105   1.1214   1.6713   1.7339   1.7463
     1.7675   1.7887   1.7989   1.8140   1.8273   1.8412   1.9029   1.9181
     1.9377   1.9654   1.9889   2.0082   2.0417   2.0439   2.0942   2.1054
     2.1298   2.1418   2.1439   2.1783   2.1891   2.1945   2.2049   2.2326
     2.2663   2.2746   2.2948   2.2988   2.3114   2.3209   2.3301   2.3486
     2.3706   2.3732   2.3874   2.3906   2.4146   2.4181   2.4299   2.4923
     2.5006   2.5286   2.5342   2.5382   2.5513   2.5668   2.5871   2.5963
     2.6209   2.6796   2.7043   2.7192   2.7417   2.8003   2.8029   2.8629
     2.8739   2.9520   3.6507   3.7063   3.7197   3.7467   3.7822   3.7966
     3.8441   3.9028   3.9260   3.9479   3.9582   3.9807   3.9989   4.0045
     4.0521   4.0578   4.1422   4.1457   4.1553   4.1773   4.6487   4.6621
     4.7693   4.8122   4.8590   4.8944   4.9166   4.9601   5.0368   5.0934
     5.1122   5.1439   5.4254   6.2426   6.3729   6.6105   6.6594   6.7508
     6.8454   6.8645   6.8890   6.9651   6.9876   7.0669   7.1176   7.1294
     7.2695   7.3504   7.3558   7.4192   7.4796   7.5401   7.5729   7.6289
     7.6568   7.6664   7.7429   7.7679   7.8018   7.8617   7.8929   7.9680
     8.0003   8.0486   8.0527   8.0906   8.1066   8.1639   8.1805   8.2123
     8.2448   8.2843   8.3028   8.3311   8.4029   8.4284   8.4303   8.4519
     8.4578   8.4781   8.4975   8.5388   8.5540   8.5727   8.5968   8.6214
     8.6690   8.7067   8.7231   8.7532   8.7665   8.7794   8.8320   8.8446

     the Fermi energy is     1.6586 ev

!    total energy              =   -7738.31718686 Ry
     estimated scf accuracy    <       0.00000071 Ry
     smearing contrib. (-TS)   =      -0.02291060 Ry
     internal energy E=F+TS    =   -7738.29427626 Ry

     The total energy is F=E-TS. E is the sum of the following terms:
     one-electron contribution =  -94545.31685437 Ry
     hartree contribution      =   47889.85964411 Ry
     xc contribution           =   -2218.69219505 Ry
     ewald contribution        =   41137.66002057 Ry
     Dispersion Correction     =      -1.80495836 Ry
     electric field correction =       0.00006684 Ry

     total magnetization       =    88.46 Bohr mag/cell
     absolute magnetization    =    89.84 Bohr mag/cell

     convergence has been achieved in  55 iterations

     negative rho (up, down):  1.051E-03 5.881E-04

     Forces acting on atoms (cartesian axes, Ry/au):

     atom    1 type  1   force =    -0.00011401   -0.00024978    0.00007705
     atom    2 type  2   force =    -0.00030173    0.00062250   -0.00019342
     atom    3 type  1   force =     0.00015488    0.00010380    0.00029097
     atom    4 type  1   force =    -0.00035960    0.00072004   -0.00051369
     atom    5 type  1   force =    -0.00027245    0.00060138   -0.00025915
     atom    6 type  1   force =     0.00070007    0.00067636   -0.00074670
     atom    7 type  3   force =     0.00024630    0.00034977   -0.00031463
     atom    8 type  3   force =     0.00016955    0.00067595   -0.00021231
     atom    9 type  3   force =    -0.00004643    0.00059711    0.00002501
     atom   10 type  3   force =    -0.00099095    0.00032813    0.00024208
     atom   11 type  4   force =     0.00031360    0.00029329   -0.00027772
     atom   12 type  4   force =    -0.00051713    0.00054021   -0.00076418
     atom   13 type  4   force =     0.00032967    0.00008806   -0.00035516
     atom   14 type  4   force =    -0.00032799    0.00016008   -0.00009298
     atom   15 type  4   force =    -0.00041676    0.00046133   -0.00016264
     atom   16 type  4   force =    -0.00003385    0.00025702   -0.00030123
     atom   17 type  4   force =     0.00003655    0.00046674    0.00032572
     atom   18 type  4   force =     0.00045737    0.00013260   -0.00009778
     atom   19 type  4   force =     0.00060646   -0.00005926   -0.00060671
     atom   20 type  4   force =    -0.00005290    0.00003053    0.00014370
     atom   21 type  4   force =    -0.00057090    0.00024203    0.00029592
     atom   22 type  4   force =     0.00040183    0.00022950    0.00048013
     atom   23 type  4   force =    -0.00005918    0.00024271    0.00028609
     atom   24 type  4   force =     0.00014388    0.00010824    0.00033072
     atom   25 type  4   force =    -0.00103470    0.00044943   -0.00063749
     atom   26 type  4   force =     0.00038536    0.00025678    0.00057482
     atom   27 type  1   force =    -0.00639256   -0.00890140   -0.00291800
     atom   28 type  2   force =    -0.01203559    0.00016884   -0.00184708
     atom   29 type  1   force =     0.00335313   -0.00464458   -0.00064568
     atom   30 type  1   force =     0.00233233    0.00394831   -0.00187113
     atom   31 type  1   force =     0.00202973   -0.00492965   -0.00049725
     atom   32 type  1   force =    -0.00124123    0.00121716    0.00164997
     atom   33 type  3   force =    -0.00717058   -0.00078992   -0.00036576
     atom   34 type  3   force =    -0.00573825    0.00371009   -0.00117355
     atom   35 type  3   force =     0.00353549   -0.00145894   -0.00446219
     atom   36 type  3   force =     0.00105027   -0.00121482    0.00296689
     atom   37 type  4   force =     0.00882383    0.00525141   -0.00760885
     atom   38 type  4   force =     0.00374148   -0.00108453    0.02014058
     atom   39 type  4   force =    -0.00145521    0.00385817    0.01075521
     atom   40 type  4   force =    -0.00159426   -0.00232468   -0.00888924
     atom   41 type  4   force =     0.00213425    0.00856743    0.00656343
     atom   42 type  4   force =    -0.00456212   -0.00342299   -0.01674916
     atom   43 type  4   force =     0.01060698    0.00509422   -0.00747821
     atom   44 type  4   force =     0.00725442   -0.00304863    0.00606035
     atom   45 type  4   force =     0.00230510    0.00584864   -0.00067405
     atom   46 type  4   force =     0.00260697    0.00061905    0.00603259
     atom   47 type  4   force =    -0.01326277    0.00021593    0.00333437
     atom   48 type  4   force =    -0.01419265    0.00205250   -0.00313104
     atom   49 type  4   force =     0.01311995    0.00232722   -0.00479452
     atom   50 type  4   force =    -0.00350192   -0.00485401    0.00056194
     atom   51 type  4   force =    -0.00430764    0.00267787   -0.00070179
     atom   52 type  4   force =     0.01634441   -0.00323574    0.00422280
     atom   53 type  1   force =    -0.00754838   -0.00707323   -0.00858140
     atom   54 type  2   force =     0.01568110    0.01723520   -0.01010275
     atom   55 type  1   force =     0.00584076   -0.00486749   -0.00606037
     atom   56 type  1   force =    -0.02050825    0.01927238    0.01972784
     atom   57 type  1   force =     0.00441028   -0.00753463   -0.00163881
     atom   58 type  1   force =    -0.00390640   -0.00541773   -0.00111005
     atom   59 type  3   force =    -0.03903433   -0.03836671   -0.05603157
     atom   60 type  3   force =    -0.00496165   -0.00127004   -0.00112485
     atom   61 type  3   force =     0.00273255   -0.00101655   -0.01007667
     atom   62 type  3   force =     0.02910422   -0.04950855   -0.06056464
     atom   63 type  4   force =     0.00630989    0.00355629    0.02091639
     atom   64 type  4   force =     0.00455136    0.00225016    0.01465892
     atom   65 type  4   force =    -0.00072363    0.00287444    0.01281734
     atom   66 type  4   force =     0.00011605    0.00217551    0.01608559
     atom   67 type  4   force =     0.00111170   -0.00053870    0.03931954
     atom   68 type  4   force =    -0.00564839   -0.00398061   -0.01723505
     atom   69 type  4   force =     0.00778965    0.00447129   -0.00264723
     atom   70 type  4   force =     0.00171496   -0.00727759    0.03566923
     atom   71 type  4   force =    -0.00917389    0.03902902    0.00098630
     atom   72 type  4   force =     0.00225170   -0.00038956    0.00792883
     atom   73 type  4   force =    -0.02994730    0.00083291    0.00766865
     atom   74 type  4   force =    -0.01340767    0.00144648   -0.00043876
     atom   75 type  4   force =     0.01183060    0.00348604   -0.00251704
     atom   76 type  4   force =    -0.00234548   -0.00281793    0.00256175
     atom   77 type  4   force =     0.00927681    0.02566976   -0.00252341
     atom   78 type  4   force =     0.03336423   -0.00637689    0.00621073
     atom   79 type  1   force =    -0.00047065   -0.00005664    0.00017536
     atom   80 type  2   force =    -0.00005601    0.00049879   -0.00030166
     atom   81 type  1   force =     0.00057766    0.00009624    0.00011671
     atom   82 type  1   force =    -0.00009792    0.00081075   -0.00026870
     atom   83 type  1   force =    -0.00076537    0.00077352    0.00037121
     atom   84 type  1   force =     0.00025114    0.00012035   -0.00048002
     atom   85 type  3   force =     0.00019720    0.00042662   -0.00013904
     atom   86 type  3   force =     0.00010043   -0.00018792   -0.00092092
     atom   87 type  3   force =    -0.00039984    0.00046811   -0.00003015
     atom   88 type  3   force =    -0.00079550    0.00087118    0.00031469
     atom   89 type  4   force =    -0.00018238    0.00055879   -0.00025845
     atom   90 type  4   force =    -0.00069830    0.00031190   -0.00032481
     atom   91 type  4   force =     0.00069611   -0.00050744    0.00020162
     atom   92 type  4   force =    -0.00048662    0.00020365   -0.00020587
     atom   93 type  4   force =    -0.00014129    0.00034042   -0.00004271
     atom   94 type  4   force =    -0.00014445    0.00048341    0.00020259
     atom   95 type  4   force =     0.00011623   -0.00014353    0.00002501
     atom   96 type  4   force =     0.00027880    0.00021525   -0.00059774
     atom   97 type  4   force =     0.00028977   -0.00006095   -0.00023648
     atom   98 type  4   force =     0.00034597    0.00050414   -0.00013231
     atom   99 type  4   force =    -0.00046065    0.00012270    0.00066308
     atom  100 type  4   force =    -0.00070249    0.00022784    0.00007070
     atom  101 type  4   force =    -0.00017063    0.00023044    0.00014297
     atom  102 type  4   force =    -0.00005167    0.00021620    0.00051396
     atom  103 type  4   force =    -0.00057075    0.00039179   -0.00048587
     atom  104 type  4   force =     0.00064351    0.00031252   -0.00007057
     atom  105 type  1   force =    -0.00676037   -0.00737013   -0.00195138
     atom  106 type  2   force =    -0.01231128   -0.00006560   -0.00167839
     atom  107 type  1   force =     0.00388691   -0.00443194   -0.00002808
     atom  108 type  1   force =     0.00240287    0.00396484   -0.00175370
     atom  109 type  1   force =     0.00150417   -0.00487468   -0.00033644
     atom  110 type  1   force =    -0.00107506    0.00139913    0.00175878
     atom  111 type  3   force =    -0.00698292   -0.00092379    0.00016165
     atom  112 type  3   force =    -0.00675378    0.00426500   -0.00237368
     atom  113 type  3   force =     0.00390821   -0.00302015   -0.00318303
     atom  114 type  3   force =     0.00118495   -0.00124096    0.00298535
     atom  115 type  4   force =     0.00862813    0.00510286   -0.00785393
     atom  116 type  4   force =     0.00466027   -0.00227873    0.01985271
     atom  117 type  4   force =    -0.00111701    0.00414288    0.01039404
     atom  118 type  4   force =    -0.00162483   -0.00249064   -0.00895346
     atom  119 type  4   force =     0.00203218    0.00836023    0.00622729
     atom  120 type  4   force =    -0.00471446   -0.00378504   -0.01882439
     atom  121 type  4   force =     0.00996382    0.00547261   -0.00678470
     atom  122 type  4   force =     0.00703486   -0.00302203    0.00605589
     atom  123 type  4   force =     0.00204482    0.00589002   -0.00061436
     atom  124 type  4   force =     0.00296864    0.00167835    0.00507075
     atom  125 type  4   force =    -0.01309409    0.00016285    0.00325500
     atom  126 type  4   force =    -0.01478843    0.00242623   -0.00304782
     atom  127 type  4   force =     0.01248301    0.00191554   -0.00475954
     atom  128 type  4   force =    -0.00372401   -0.00468378    0.00043140
     atom  129 type  4   force =    -0.00442447    0.00270463   -0.00060297
     atom  130 type  4   force =     0.01639633   -0.00326814    0.00400885
     atom  131 type  1   force =    -0.00748694   -0.00715869   -0.00855785
     atom  132 type  2   force =     0.01575619    0.01724332   -0.01013752
     atom  133 type  1   force =     0.00577236   -0.00485812   -0.00606666
     atom  134 type  1   force =    -0.02051462    0.01927885    0.01971850
     atom  135 type  1   force =     0.00451442   -0.00754444   -0.00164549
     atom  136 type  1   force =    -0.00390983   -0.00538951   -0.00110046
     atom  137 type  3   force =    -0.03899931   -0.03831285   -0.05608873
     atom  138 type  3   force =    -0.00478947   -0.00134336   -0.00106691
     atom  139 type  3   force =     0.00271252   -0.00093168   -0.01008651
     atom  140 type  3   force =     0.02909108   -0.04950627   -0.06056602
     atom  141 type  4   force =     0.00625623    0.00354624    0.02106004
     atom  142 type  4   force =     0.00433954    0.00236144    0.01474908
     atom  143 type  4   force =    -0.00063629    0.00276395    0.01288177
     atom  144 type  4   force =     0.00015336    0.00226981    0.01632644
     atom  145 type  4   force =     0.00125232   -0.00054513    0.03932716
     atom  146 type  4   force =    -0.00547891   -0.00392861   -0.01730700
     atom  147 type  4   force =     0.00777921    0.00450739   -0.00283719
     atom  148 type  4   force =     0.00159497   -0.00731960    0.03569232
     atom  149 type  4   force =    -0.00936045    0.03903834    0.00098080
     atom  150 type  4   force =     0.00203994   -0.00047871    0.00794366
     atom  151 type  4   force =    -0.02984169    0.00085634    0.00767496
     atom  152 type  4   force =    -0.01351074    0.00142870   -0.00043285
     atom  153 type  4   force =     0.01209343    0.00363860   -0.00251061
     atom  154 type  4   force =    -0.00240324   -0.00268477    0.00246796
     atom  155 type  4   force =     0.00915454    0.02567453   -0.00258456
     atom  156 type  4   force =     0.03332941   -0.00619967    0.00605288
     atom  157 type  4   force =     0.01064243    0.00714180   -0.00400077
     atom  158 type  5   force =    -0.01009215   -0.00664038    0.00443952

     Total force =     0.237399     Total SCF correction =     0.003835
 
     init_run     :      7.65s CPU      8.27s WALL (       1 calls)
     electrons    :    881.50s CPU    977.00s WALL (       1 calls)
     forces       :      3.95s CPU      4.39s WALL (       1 calls)
     force_london :      0.11s CPU      0.11s WALL (       1 calls)

     Called by init_run:
     wfcinit      :      4.46s CPU      4.63s WALL (       1 calls)
     potinit      :      0.51s CPU      0.70s WALL (       1 calls)
     hinit0       :      1.44s CPU      1.51s WALL (       1 calls)

     Called by electrons:
     c_bands      :    716.13s CPU    792.77s WALL (      55 calls)
     sum_band     :    105.68s CPU    115.68s WALL (      55 calls)
     v_of_rho     :     14.06s CPU     15.11s WALL (      56 calls)
     newd         :     30.92s CPU     38.83s WALL (      56 calls)
     mix_rho      :     14.00s CPU     14.09s WALL (      55 calls)
     energy_londo :      0.10s CPU      0.10s WALL (       1 calls)

     Called by c_bands:
     init_us_2    :      2.10s CPU      2.13s WALL (     224 calls)
     init_us_2:cp :      2.10s CPU      2.13s WALL (     224 calls)
     regterg      :    701.70s CPU    777.85s WALL (     112 calls)

     Called by *egterg:
     rdiaghg      :    250.53s CPU    264.56s WALL (     627 calls)
     h_psi        :    254.70s CPU    259.40s WALL (     629 calls)
     s_psi        :     51.07s CPU     51.09s WALL (     629 calls)
     g_psi        :      0.37s CPU      0.38s WALL (     515 calls)

     Called by h_psi:
     h_psi:calbec :     62.63s CPU     66.35s WALL (     629 calls)
     vloc_psi     :    140.17s CPU    140.68s WALL (     629 calls)
     add_vuspsi   :     51.19s CPU     51.65s WALL (     629 calls)

     General routines
     calbec       :     91.71s CPU     97.29s WALL (     747 calls)
     fft          :     10.64s CPU     11.94s WALL (    1021 calls)
     ffts         :      8.13s CPU      8.16s WALL (    5723 calls)
     fftw         :    152.81s CPU    153.35s WALL (  192520 calls)
     interpolate  :      1.26s CPU      1.35s WALL (     112 calls)
 
     Parallel routines
 
     PWSCF        :  14m55.42s CPU  16m32.33s WALL

 
   This run was terminated on:   0: 2:47  20Nov2025            

=------------------------------------------------------------------------------=
   JOB DONE.
=------------------------------------------------------------------------------=
