
     Program PWSCF v.7.2 starts on 19Nov2025 at 19:13:38 

     This program is part of the open-source Quantum ESPRESSO suite
     for quantum simulation of materials; please cite
         "P. Giannozzi et al., J. Phys.:Condens. Matter 21 395502 (2009);
         "P. Giannozzi et al., J. Phys.:Condens. Matter 29 465901 (2017);
         "P. Giannozzi et al., J. Chem. Phys. 152 154105 (2020);
          URL http://www.quantum-espresso.org", 
     in publications or presentations arising from this work. More details at
     http://www.quantum-espresso.org/quote

     Parallel version (MPI), running on    64 processors

     MPI processes distributed on     4 nodes
     368898 MiB available memory on the printing compute node when the environment starts
 
     Reading input from PWINPUT_atm158_yp

     Current dimensions of program PWSCF are:
     Max number of different atomic species (ntypx) = 10
     Max number of k-points (npk) =  40000
     Max angular momentum in pseudopotentials (lmaxx) =  4
     Presently no symmetry can be used with electric field

     file Ni.pbe-n-rrkjus_psl.1.0.0.UPF: wavefunction(s)  3D renormalized
     file Mn.pbe-spn-rrkjus_psl.0.3.1.UPF: wavefunction(s)  3D renormalized
     file O.pbe-rrkjus.UPF: wavefunction(s)  2S renormalized
     file H.pbe-rrkjus.UPF: wavefunction(s)  1S renormalized

     gamma-point specific algorithms are used
 
     R & G space division:  proc/nbgrp/npool/nimage =      64
     Subspace diagonalization in iterative solution of the eigenvalue problem:
     one sub-group per band group will be used
     custom distributed-memory algorithm (size of sub-group:  7*  7 procs)

 
     Parallelization info
     --------------------
     sticks:   dense  smooth     PW     G-vecs:    dense   smooth      PW
     Min         207      82     20                60552    15302    1896
     Max         210      84     22                60574    15336    1950
     Sum       13325    5345   1333              3876045   980655  122653
 
     Using Slab Decomposition
 


     bravais-lattice index     =            0
     lattice parameter (alat)  =      17.4067  a.u.
     unit-cell volume          =   20529.8182 (a.u.)^3
     number of atoms/cell      =          158
     number of atomic types    =            5
     number of electrons       =      1093.00
     number of Kohn-Sham states=          656
     kinetic-energy cutoff     =      50.0000  Ry
     charge density cutoff     =     500.0000  Ry
     scf convergence threshold =      1.0E-06
     mixing beta               =       0.1000
     number of iterations used =            8  local-TF  mixing
     Exchange-correlation=  SLA  PW   PBE  PBE
                           (   1   4   3   4   0   0   0)

     celldm(1)=  17.406729  celldm(2)=   0.000000  celldm(3)=   0.000000
     celldm(4)=   0.000000  celldm(5)=   0.000000  celldm(6)=   0.000000

     crystal axes: (cart. coord. in units of alat)
               a(1) = (   1.000000   0.000000   0.000000 )  
               a(2) = (  -0.001404   1.105696   0.000000 )  
               a(3) = (   0.000000   0.000000   3.520448 )  

     reciprocal axes: (cart. coord. in units 2 pi/alat)
               b(1) = (  1.000000  0.001270  0.000000 )  
               b(2) = (  0.000000  0.904408  0.000000 )  
               b(3) = (  0.000000  0.000000  0.284055 )  


     PseudoPot. # 1 for Ni read from file:
     ~/PSEUDO/Ni.pbe-n-rrkjus_psl.1.0.0.UPF
     MD5 check sum: Not computed, couldn't open file
     Pseudo is Ultrasoft + core correction, Zval = 10.0
     Generated using "atomic" code by A. Dal Corso  v.5.1.2
     Using radial grid of 1195 points,  6 beta functions with: 
                l(1) =   0
                l(2) =   0
                l(3) =   1
                l(4) =   1
                l(5) =   2
                l(6) =   2
     Q(r) pseudized with 0 coefficients 


     PseudoPot. # 2 for Mn read from file:
     ~/PSEUDO/Mn.pbe-spn-rrkjus_psl.0.3.1.UPF
     MD5 check sum: Not computed, couldn't open file
     Pseudo is Ultrasoft + core correction, Zval = 15.0
     Generated using &quot;atomic&quot; code by A. Dal Corso  v.6.2.2
     Using radial grid of 1187 points,  6 beta functions with: 
                l(1) =   0
                l(2) =   0
                l(3) =   1
                l(4) =   1
                l(5) =   2
                l(6) =   2
     Q(r) pseudized with 0 coefficients 


     PseudoPot. # 3 for P  read from file:
     ~/PSEUDO/P.pbe-n-rrkjus_psl.1.0.0.UPF
     MD5 check sum: Not computed, couldn't open file
     Pseudo is Ultrasoft + core correction, Zval =  5.0
     Generated using "atomic" code by A. Dal Corso  v.5.1
     Using radial grid of 1147 points,  6 beta functions with: 
                l(1) =   0
                l(2) =   0
                l(3) =   1
                l(4) =   1
                l(5) =   2
                l(6) =   2
     Q(r) pseudized with 0 coefficients 


     PseudoPot. # 4 for O  read from file:
     ~/PSEUDO/O.pbe-rrkjus.UPF
     MD5 check sum: Not computed, couldn't open file
     Pseudo is Ultrasoft, Zval =  6.0
     Generated by new atomic code, or converted to UPF format
     Using radial grid of 1269 points,  4 beta functions with: 
                l(1) =   0
                l(2) =   0
                l(3) =   1
                l(4) =   1
     Q(r) pseudized with 0 coefficients 


     PseudoPot. # 5 for H  read from file:
     ~/PSEUDO/H.pbe-rrkjus.UPF
     MD5 check sum: Not computed, couldn't open file
     Pseudo is Ultrasoft, Zval =  1.0
     Generated by new atomic code, or converted to UPF format
     Using radial grid of 1061 points,  2 beta functions with: 
                l(1) =   0
                l(2) =   0
     Q(r) pseudized with 0 coefficients 


     atomic species   valence    mass     pseudopotential
     Ni               10.00    58.69300     Ni( 1.00)
     Mn               15.00    54.93800     Mn( 1.00)
     P                 5.00    30.97300     P ( 1.00)
     O                 6.00    15.99900     O ( 1.00)
     H                 1.00     1.00790     H ( 1.00)

     Starting magnetic structure 
     atomic species   magnetization
     Ni              1.000
     Mn              1.000
     P               1.000
     O               1.000
     H               0.000

     No symmetry found



   Cartesian axes

     site n.     atom                  positions (alat units)
         1        Ni     tau(   1) = (   0.2506653   0.8550566   1.7482270  )
         2        Mn     tau(   2) = (   0.4868615   0.7893541   1.4308660  )
         3        Ni     tau(   3) = (  -0.0020905   0.3037554   1.7430097  )
         4        Ni     tau(   4) = (   0.2581845   0.2397011   1.4315278  )
         5        Ni     tau(   5) = (   0.4980783   1.1004513   1.6017203  )
         6        Ni     tau(   6) = (   0.2518422   0.5462731   1.6005047  )
         7        P      tau(   7) = (   0.2086760   0.9985220   1.4334561  )
         8        P      tau(   8) = (   0.4610745   0.6542330   1.7693768  )
         9        P      tau(   9) = (   0.2852120   0.1078232   1.7622391  )
        10        P      tau(  10) = (   0.0403977   0.4405659   1.4311024  )
        11        O      tau(  11) = (   0.1336577   0.9255702   1.5727005  )
        12        O      tau(  12) = (   0.3859844   0.7230279   1.6232271  )
        13        O      tau(  13) = (   0.3640826   0.1694454   1.6133293  )
        14        O      tau(  14) = (   0.1188105   0.3688923   1.5703532  )
        15        O      tau(  15) = (   0.1503492   0.9077861   1.3047839  )
        16        O      tau(  16) = (   0.3958379   0.7487419   1.8889350  )
        17        O      tau(  17) = (   0.3469236   0.2073723   1.8785519  )
        18        O      tau(  18) = (   0.1007453   0.3527083   1.3018906  )
        19        O      tau(  19) = (   0.0999278   0.5992574   1.4366202  )
        20        O      tau(  20) = (   0.3385595   1.0523920   1.7620033  )
        21        O      tau(  21) = (   0.3744945   0.4340276   1.4450679  )
        22        O      tau(  22) = (   0.1180138   0.1150013   1.7458001  )
        23        O      tau(  23) = (   0.1304815   0.6665087   1.7470642  )
        24        O      tau(  24) = (   0.4037610   0.4941012   1.7602096  )
        25        O      tau(  25) = (   0.1493555   0.0500451   1.4360519  )
        26        O      tau(  26) = (   0.3753238   0.9895344   1.4462146  )
        27        Ni     tau(  27) = (   0.2413539   0.8509941   1.1121345  )
        28        Mn     tau(  28) = (   0.4917018   0.7787406   0.7768134  )
        29        Ni     tau(  29) = (   0.0044877   0.2932623   1.1138982  )
        30        Ni     tau(  30) = (   0.2563139   0.2275682   0.7805625  )
        31        Ni     tau(  31) = (   0.4969120   1.0949007   0.9459116  )
        32        Ni     tau(  32) = (   0.2488318   0.5341111   0.9469721  )
        33        P      tau(  33) = (   0.2076029   0.9882917   0.7835381  )
        34        P      tau(  34) = (   0.4577012   0.6460068   1.1076436  )
        35        P      tau(  35) = (   0.2881931   0.0932770   1.1104179  )
        36        P      tau(  36) = (   0.0392916   0.4238898   0.7837243  )
        37        O      tau(  37) = (   0.1306755   0.9148866   0.9233554  )
        38        O      tau(  38) = (   0.3789780   0.7172835   0.9680652  )
        39        O      tau(  39) = (   0.3654852   0.1662865   0.9702638  )
        40        O      tau(  40) = (   0.1163776   0.3546954   0.9254186  )
        41        O      tau(  41) = (   0.1502901   0.8969129   0.6541592  )
        42        O      tau(  42) = (   0.3974525   0.7354243   1.2370031  )
        43        O      tau(  43) = (   0.3483097   0.1789497   1.2412670  )
        44        O      tau(  44) = (   0.0974932   0.3376387   0.6529083  )
        45        O      tau(  45) = (   0.0984699   0.5818903   0.7881021  )
        46        O      tau(  46) = (   0.3459978   1.0405493   1.1018526  )
        47        O      tau(  47) = (   0.3731719   0.4204123   0.7945555  )
        48        O      tau(  48) = (   0.1223503   0.0989699   1.1000566  )
        49        O      tau(  49) = (   0.1235438   0.6536772   1.0980598  )
        50        O      tau(  50) = (   0.4004339   0.4872435   1.1047245  )
        51        O      tau(  51) = (   0.1476543   0.0398268   0.7872561  )
        52        O      tau(  52) = (   0.3728637   0.9843360   0.7931368  )
        53        Ni     tau(  53) = (   0.2406075   0.8410745   0.4603118  )
        54        Mn     tau(  54) = (   0.4909555   0.7688210   0.1249907  )
        55        Ni     tau(  55) = (   0.0037414   0.2833427   0.4620755  )
        56        Ni     tau(  56) = (   0.2555676   0.2176485   0.1287398  )
        57        Ni     tau(  57) = (   0.4961657   1.0849810   0.2940889  )
        58        Ni     tau(  58) = (   0.2480854   0.5241915   0.2951494  )
        59        P      tau(  59) = (   0.2068565   0.9783721   0.1317154  )
        60        P      tau(  60) = (   0.4569549   0.6360871   0.4558210  )
        61        P      tau(  61) = (   0.2874467   0.0833574   0.4585952  )
        62        P      tau(  62) = (   0.0385452   0.4139702   0.1319017  )
        63        O      tau(  63) = (   0.1299291   0.9049669   0.2715327  )
        64        O      tau(  64) = (   0.3782317   0.7073639   0.3162425  )
        65        O      tau(  65) = (   0.3647389   0.1563669   0.3184411  )
        66        O      tau(  66) = (   0.1156313   0.3447757   0.2735959  )
        67        O      tau(  67) = (   0.1495437   0.8869933   0.0023366  )
        68        O      tau(  68) = (   0.3967062   0.7255047   0.5851804  )
        69        O      tau(  69) = (   0.3475634   0.1690300   0.5894443  )
        70        O      tau(  70) = (   0.0967469   0.3277190   0.0010856  )
        71        O      tau(  71) = (   0.0977236   0.5719706   0.1362794  )
        72        O      tau(  72) = (   0.3452514   1.0306297   0.4500300  )
        73        O      tau(  73) = (   0.3724256   0.4104926   0.1427328  )
        74        O      tau(  74) = (   0.1216040   0.0890503   0.4482339  )
        75        O      tau(  75) = (   0.1227974   0.6437575   0.4462371  )
        76        O      tau(  76) = (   0.3996875   0.4773239   0.4529018  )
        77        O      tau(  77) = (   0.1469079   0.0299071   0.1354334  )
        78        O      tau(  78) = (   0.3721173   0.9744163   0.1413141  )
        79        Ni     tau(  79) = (   0.7414379   0.8631934   1.7811905  )
        80        Mn     tau(  80) = (   0.9841778   0.7888082   1.4314224  )
        81        Ni     tau(  81) = (   0.4981575   0.2996622   1.7438399  )
        82        Ni     tau(  82) = (   0.7578892   0.2404171   1.4315495  )
        83        Ni     tau(  83) = (   0.9960243   1.1035763   1.5974106  )
        84        Ni     tau(  84) = (   0.7511014   0.5491218   1.6034046  )
        85        P      tau(  85) = (   0.7087866   0.9973915   1.4351950  )
        86        P      tau(  86) = (   0.9628486   0.6621696   1.7637363  )
        87        P      tau(  87) = (   0.7871746   0.1114899   1.7616375  )
        88        P      tau(  88) = (   0.5410567   0.4395544   1.4323437  )
        89        O      tau(  89) = (   0.6354630   0.9223360   1.5730365  )
        90        O      tau(  90) = (   0.8842257   0.7257126   1.6195033  )
        91        O      tau(  91) = (   0.8650973   0.1749877   1.6118653  )
        92        O      tau(  92) = (   0.6191862   0.3687812   1.5717219  )
        93        O      tau(  93) = (   0.6506723   0.9089988   1.3043577  )
        94        O      tau(  94) = (   0.9054210   0.7593145   1.8845788  )
        95        O      tau(  95) = (   0.8458988   0.2143962   1.8769408  )
        96        O      tau(  96) = (   0.6009712   0.3522741   1.3025522  )
        97        O      tau(  97) = (   0.5994071   0.5984853   1.4384741  )
        98        O      tau(  98) = (   0.8467958   1.0589836   1.7578834  )
        99        O      tau(  99) = (   0.8740438   0.4364663   1.4443826  )
       100        O      tau( 100) = (   0.6200794   0.1160167   1.7440992  )
       101        O      tau( 101) = (   0.6282264   0.6595953   1.7561119  )
       102        O      tau( 102) = (   0.9078379   0.5006245   1.7604184  )
       103        O      tau( 103) = (   0.6500092   0.0493715   1.4390795  )
       104        O      tau( 104) = (   0.8760524   0.9898930   1.4442019  )
       105        Ni     tau( 105) = (   0.7413539   0.8509941   1.1121345  )
       106        Mn     tau( 106) = (   0.9917018   0.7787406   0.7768134  )
       107        Ni     tau( 107) = (   0.5044877   0.2932623   1.1138982  )
       108        Ni     tau( 108) = (   0.7563139   0.2275682   0.7805625  )
       109        Ni     tau( 109) = (   0.9969120   1.0949007   0.9459116  )
       110        Ni     tau( 110) = (   0.7488318   0.5341111   0.9469721  )
       111        P      tau( 111) = (   0.7076029   0.9882917   0.7835381  )
       112        P      tau( 112) = (   0.9577012   0.6460068   1.1076436  )
       113        P      tau( 113) = (   0.7881931   0.0932770   1.1104179  )
       114        P      tau( 114) = (   0.5392916   0.4238898   0.7837243  )
       115        O      tau( 115) = (   0.6306755   0.9148866   0.9233554  )
       116        O      tau( 116) = (   0.8789780   0.7172835   0.9680652  )
       117        O      tau( 117) = (   0.8654852   0.1662865   0.9702638  )
       118        O      tau( 118) = (   0.6163776   0.3546954   0.9254186  )
       119        O      tau( 119) = (   0.6502901   0.8969129   0.6541592  )
       120        O      tau( 120) = (   0.8974525   0.7354243   1.2370031  )
       121        O      tau( 121) = (   0.8483097   0.1789497   1.2412670  )
       122        O      tau( 122) = (   0.5974932   0.3376387   0.6529083  )
       123        O      tau( 123) = (   0.5984699   0.5818903   0.7881021  )
       124        O      tau( 124) = (   0.8459978   1.0405493   1.1018526  )
       125        O      tau( 125) = (   0.8731719   0.4204123   0.7945555  )
       126        O      tau( 126) = (   0.6223503   0.0989699   1.1000566  )
       127        O      tau( 127) = (   0.6235438   0.6536772   1.0980598  )
       128        O      tau( 128) = (   0.9004339   0.4872435   1.1047245  )
       129        O      tau( 129) = (   0.6476543   0.0398268   0.7872561  )
       130        O      tau( 130) = (   0.8728637   0.9843360   0.7931368  )
       131        Ni     tau( 131) = (   0.7406075   0.8410745   0.4603118  )
       132        Mn     tau( 132) = (   0.9909555   0.7688210   0.1249907  )
       133        Ni     tau( 133) = (   0.5037414   0.2833427   0.4620755  )
       134        Ni     tau( 134) = (   0.7555676   0.2176485   0.1287398  )
       135        Ni     tau( 135) = (   0.9961657   1.0849810   0.2940889  )
       136        Ni     tau( 136) = (   0.7480854   0.5241915   0.2951494  )
       137        P      tau( 137) = (   0.7068565   0.9783721   0.1317154  )
       138        P      tau( 138) = (   0.9569549   0.6360871   0.4558210  )
       139        P      tau( 139) = (   0.7874467   0.0833574   0.4585952  )
       140        P      tau( 140) = (   0.5385452   0.4139702   0.1319017  )
       141        O      tau( 141) = (   0.6299291   0.9049669   0.2715327  )
       142        O      tau( 142) = (   0.8782317   0.7073639   0.3162425  )
       143        O      tau( 143) = (   0.8647389   0.1563669   0.3184411  )
       144        O      tau( 144) = (   0.6156313   0.3447757   0.2735959  )
       145        O      tau( 145) = (   0.6495437   0.8869933   0.0023366  )
       146        O      tau( 146) = (   0.8967062   0.7255047   0.5851804  )
       147        O      tau( 147) = (   0.8475634   0.1690300   0.5894443  )
       148        O      tau( 148) = (   0.5967469   0.3277190   0.0010856  )
       149        O      tau( 149) = (   0.5977236   0.5719706   0.1362794  )
       150        O      tau( 150) = (   0.8452514   1.0306297   0.4500300  )
       151        O      tau( 151) = (   0.8724256   0.4104926   0.1427328  )
       152        O      tau( 152) = (   0.6216040   0.0890503   0.4482339  )
       153        O      tau( 153) = (   0.6227974   0.6437575   0.4462371  )
       154        O      tau( 154) = (   0.8996875   0.4773239   0.4529018  )
       155        O      tau( 155) = (   0.6469079   0.0299071   0.1354334  )
       156        O      tau( 156) = (   0.8721173   0.9744163   0.1413141  )
       157        O      tau( 157) = (   0.6206852   0.9487225   1.9111104  )
       158        H      tau( 158) = (   0.5390407   0.8855686   1.9390630  )

     -------------------------------------------------
     Parameters for Dispersion (Grimme-D2) Correction:
     -------------------------------------------------
       atom      VdW radius       C_6     

        Ni         2.952        374.666
        Mn         2.952        374.666
        P          3.222        271.980
        O          2.536         24.284
        H          1.892          4.857

     number of k points=     1  Gaussian smearing, width (Ry)=  0.0100
                       cart. coord. in units 2pi/alat
        k(    1) = (   0.0000000   0.0000000   0.0000000), wk =   1.0000000

     Dense  grid:  1938023 G-vectors     FFT dimensions: ( 125, 144, 450)

     Smooth grid:   490328 G-vectors     FFT dimensions: (  80,  90, 288)

     Estimated max dynamical RAM per process >     326.29 MB

     Estimated total dynamical RAM >      20.39 GB

     Check: negative core charge=   -0.000001
     Generating pointlists ...
     new r_m :   0.0812 (alat units)  1.4139 (a.u.) for type    1
     new r_m :   0.0905 (alat units)  1.5759 (a.u.) for type    2
     new r_m :   0.0681 (alat units)  1.1852 (a.u.) for type    3
     new r_m :   0.0441 (alat units)  0.7678 (a.u.) for type    4
     new r_m :   0.0441 (alat units)  0.7678 (a.u.) for type    5

     Initial potential from superposition of free atoms

     starting charge    1092.8893, renormalised to    1093.0000

     negative rho (up, down):  1.394E-03 4.548E-04
 
     Adding external electric field

     Computed dipole along edir(3) : 
        Dipole                1.6566 Ry au,          4.2107 Debye
        Dipole field          0.0010 Ry au, 
 
        Potential amp.       -0.1118 Ry
        Total length         55.1515 bohr
 
 
     Adding external electric field

     Computed dipole along edir(3) : 
        Dipole                1.6566 Ry au,          4.2107 Debye
        Dipole field          0.0010 Ry au, 
 
        Potential amp.       -0.1118 Ry
        Total length         55.1515 bohr
 
     Starting wfcs are  815 randomized atomic wfcs

     total cpu time spent up to now is       10.4 secs

     Self-consistent Calculation

     iteration #  1     ecut=    50.00 Ry     beta= 0.10
     Davidson diagonalization with overlap
     ethr =  1.00E-02,  avg # of iterations =  6.0

     negative rho (up, down):  3.817E-01 1.603E-06
 
     Adding external electric field

     Computed dipole along edir(3) : 
        Dipole               -3.7461 Ry au,         -9.5216 Debye
        Dipole field         -0.0023 Ry au, 
 
        Potential amp.        0.2529 Ry
        Total length         55.1515 bohr
 
 
     Adding external electric field

     Computed dipole along edir(3) : 
        Dipole               -3.7461 Ry au,         -9.5216 Debye
        Dipole field         -0.0023 Ry au, 
 
        Potential amp.        0.2529 Ry
        Total length         55.1515 bohr
 

     total cpu time spent up to now is       40.4 secs

     total energy              =   -7517.05805512 Ry
     estimated scf accuracy    <     800.41848427 Ry

     total magnetization       =   219.00 Bohr mag/cell
     absolute magnetization    =   307.95 Bohr mag/cell

     iteration #  2     ecut=    50.00 Ry     beta= 0.10
     Davidson diagonalization with overlap
     ethr =  1.00E-02,  avg # of iterations =  2.0

     negative rho (up, down):  3.625E-01 9.553E-07
 
     Adding external electric field

     Computed dipole along edir(3) : 
        Dipole               -2.4902 Ry au,         -6.3294 Debye
        Dipole field         -0.0015 Ry au, 
 
        Potential amp.        0.1681 Ry
        Total length         55.1515 bohr
 
 
     Adding external electric field

     Computed dipole along edir(3) : 
        Dipole               -2.4902 Ry au,         -6.3294 Debye
        Dipole field         -0.0015 Ry au, 
 
        Potential amp.        0.1681 Ry
        Total length         55.1515 bohr
 

     total cpu time spent up to now is       58.4 secs

     total energy              =   -7600.12629792 Ry
     estimated scf accuracy    <     228.83956955 Ry

     total magnetization       =   159.98 Bohr mag/cell
     absolute magnetization    =   208.37 Bohr mag/cell

     iteration #  3     ecut=    50.00 Ry     beta= 0.10
     Davidson diagonalization with overlap
     ethr =  1.00E-02,  avg # of iterations =  1.5

     negative rho (up, down):  3.244E-01 9.776E-07
 
     Adding external electric field

     Computed dipole along edir(3) : 
        Dipole               -2.1649 Ry au,         -5.5027 Debye
        Dipole field         -0.0013 Ry au, 
 
        Potential amp.        0.1462 Ry
        Total length         55.1515 bohr
 
 
     Adding external electric field

     Computed dipole along edir(3) : 
        Dipole               -2.1649 Ry au,         -5.5027 Debye
        Dipole field         -0.0013 Ry au, 
 
        Potential amp.        0.1462 Ry
        Total length         55.1515 bohr
 

     total cpu time spent up to now is       73.7 secs

     total energy              =   -7629.20388973 Ry
     estimated scf accuracy    <     103.27325256 Ry

     total magnetization       =   136.19 Bohr mag/cell
     absolute magnetization    =   186.86 Bohr mag/cell

     iteration #  4     ecut=    50.00 Ry     beta= 0.10
     Davidson diagonalization with overlap
     ethr =  9.45E-03,  avg # of iterations =  1.5

     negative rho (up, down):  2.551E-01 5.628E-07
 
     Adding external electric field

     Computed dipole along edir(3) : 
        Dipole               -1.9965 Ry au,         -5.0745 Debye
        Dipole field         -0.0012 Ry au, 
 
        Potential amp.        0.1348 Ry
        Total length         55.1515 bohr
 
 
     Adding external electric field

     Computed dipole along edir(3) : 
        Dipole               -1.9965 Ry au,         -5.0745 Debye
        Dipole field         -0.0012 Ry au, 
 
        Potential amp.        0.1348 Ry
        Total length         55.1515 bohr
 

     total cpu time spent up to now is       88.9 secs

     total energy              =   -7662.22680349 Ry
     estimated scf accuracy    <      83.15098603 Ry

     total magnetization       =   120.25 Bohr mag/cell
     absolute magnetization    =   172.51 Bohr mag/cell

     iteration #  5     ecut=    50.00 Ry     beta= 0.10
     Davidson diagonalization with overlap
     ethr =  7.61E-03,  avg # of iterations =  1.0

     negative rho (up, down):  3.914E-02 3.140E-07
 
     Adding external electric field

     Computed dipole along edir(3) : 
        Dipole               -1.5487 Ry au,         -3.9364 Debye
        Dipole field         -0.0009 Ry au, 
 
        Potential amp.        0.1046 Ry
        Total length         55.1515 bohr
 
 
     Adding external electric field

     Computed dipole along edir(3) : 
        Dipole               -1.5487 Ry au,         -3.9364 Debye
        Dipole field         -0.0009 Ry au, 
 
        Potential amp.        0.1046 Ry
        Total length         55.1515 bohr
 

     total cpu time spent up to now is      102.7 secs

     total energy              =   -7721.21699779 Ry
     estimated scf accuracy    <      66.49409512 Ry

     total magnetization       =    97.60 Bohr mag/cell
     absolute magnetization    =   153.56 Bohr mag/cell

     iteration #  6     ecut=    50.00 Ry     beta= 0.10
     Davidson diagonalization with overlap
     ethr =  6.08E-03,  avg # of iterations =  1.0

     negative rho (up, down):  6.839E-04 1.049E-03
 
     Adding external electric field

     Computed dipole along edir(3) : 
        Dipole               -1.1649 Ry au,         -2.9608 Debye
        Dipole field         -0.0007 Ry au, 
 
        Potential amp.        0.0786 Ry
        Total length         55.1515 bohr
 
 
     Adding external electric field

     Computed dipole along edir(3) : 
        Dipole               -1.1649 Ry au,         -2.9608 Debye
        Dipole field         -0.0007 Ry au, 
 
        Potential amp.        0.0786 Ry
        Total length         55.1515 bohr
 

     total cpu time spent up to now is      116.6 secs

     total energy              =   -7735.69617636 Ry
     estimated scf accuracy    <      15.92845709 Ry

     total magnetization       =    91.00 Bohr mag/cell
     absolute magnetization    =   126.57 Bohr mag/cell

     iteration #  7     ecut=    50.00 Ry     beta= 0.10
     Davidson diagonalization with overlap
     ethr =  1.46E-03,  avg # of iterations =  6.0

     negative rho (up, down):  6.643E-04 1.023E-03
 
     Adding external electric field

     Computed dipole along edir(3) : 
        Dipole               -1.1665 Ry au,         -2.9648 Debye
        Dipole field         -0.0007 Ry au, 
 
        Potential amp.        0.0788 Ry
        Total length         55.1515 bohr
 
 
     Adding external electric field

     Computed dipole along edir(3) : 
        Dipole               -1.1665 Ry au,         -2.9648 Debye
        Dipole field         -0.0007 Ry au, 
 
        Potential amp.        0.0788 Ry
        Total length         55.1515 bohr
 

     total cpu time spent up to now is      141.1 secs

     total energy              =   -7738.26733813 Ry
     estimated scf accuracy    <      20.51735370 Ry

     total magnetization       =    70.32 Bohr mag/cell
     absolute magnetization    =    87.78 Bohr mag/cell

     iteration #  8     ecut=    50.00 Ry     beta= 0.10
     Davidson diagonalization with overlap
     ethr =  1.46E-03,  avg # of iterations =  1.0

     negative rho (up, down):  6.503E-04 9.958E-04
 
     Adding external electric field

     Computed dipole along edir(3) : 
        Dipole               -1.1551 Ry au,         -2.9360 Debye
        Dipole field         -0.0007 Ry au, 
 
        Potential amp.        0.0780 Ry
        Total length         55.1515 bohr
 
 
     Adding external electric field

     Computed dipole along edir(3) : 
        Dipole               -1.1551 Ry au,         -2.9360 Debye
        Dipole field         -0.0007 Ry au, 
 
        Potential amp.        0.0780 Ry
        Total length         55.1515 bohr
 

     total cpu time spent up to now is      154.8 secs

     total energy              =   -7738.31312832 Ry
     estimated scf accuracy    <      19.80502950 Ry

     total magnetization       =    70.62 Bohr mag/cell
     absolute magnetization    =    87.62 Bohr mag/cell

     iteration #  9     ecut=    50.00 Ry     beta= 0.10
     Davidson diagonalization with overlap
     ethr =  1.46E-03,  avg # of iterations =  1.0

     negative rho (up, down):  6.325E-04 9.832E-04
 
     Adding external electric field

     Computed dipole along edir(3) : 
        Dipole               -1.0649 Ry au,         -2.7067 Debye
        Dipole field         -0.0007 Ry au, 
 
        Potential amp.        0.0719 Ry
        Total length         55.1515 bohr
 
 
     Adding external electric field

     Computed dipole along edir(3) : 
        Dipole               -1.0649 Ry au,         -2.7067 Debye
        Dipole field         -0.0007 Ry au, 
 
        Potential amp.        0.0719 Ry
        Total length         55.1515 bohr
 

     total cpu time spent up to now is      168.2 secs

     total energy              =   -7738.27118417 Ry
     estimated scf accuracy    <      19.43602028 Ry

     total magnetization       =    70.76 Bohr mag/cell
     absolute magnetization    =    87.42 Bohr mag/cell

     iteration # 10     ecut=    50.00 Ry     beta= 0.10
     Davidson diagonalization with overlap
     ethr =  1.46E-03,  avg # of iterations =  1.0

     negative rho (up, down):  5.961E-04 1.082E-03
 
     Adding external electric field

     Computed dipole along edir(3) : 
        Dipole               -1.0701 Ry au,         -2.7200 Debye
        Dipole field         -0.0007 Ry au, 
 
        Potential amp.        0.0723 Ry
        Total length         55.1515 bohr
 
 
     Adding external electric field

     Computed dipole along edir(3) : 
        Dipole               -1.0701 Ry au,         -2.7200 Debye
        Dipole field         -0.0007 Ry au, 
 
        Potential amp.        0.0723 Ry
        Total length         55.1515 bohr
 

     total cpu time spent up to now is      181.7 secs

     total energy              =   -7738.34110971 Ry
     estimated scf accuracy    <      18.38421437 Ry

     total magnetization       =    70.98 Bohr mag/cell
     absolute magnetization    =    86.95 Bohr mag/cell

     iteration # 11     ecut=    50.00 Ry     beta= 0.10
     Davidson diagonalization with overlap
     ethr =  1.46E-03,  avg # of iterations =  1.0

     negative rho (up, down):  6.995E-04 1.783E-03
 
     Adding external electric field

     Computed dipole along edir(3) : 
        Dipole               -0.9729 Ry au,         -2.4729 Debye
        Dipole field         -0.0006 Ry au, 
 
        Potential amp.        0.0657 Ry
        Total length         55.1515 bohr
 
 
     Adding external electric field

     Computed dipole along edir(3) : 
        Dipole               -0.9729 Ry au,         -2.4729 Debye
        Dipole field         -0.0006 Ry au, 
 
        Potential amp.        0.0657 Ry
        Total length         55.1515 bohr
 

     total cpu time spent up to now is      194.9 secs

     total energy              =   -7738.23857496 Ry
     estimated scf accuracy    <      18.75992750 Ry

     total magnetization       =    70.81 Bohr mag/cell
     absolute magnetization    =    86.55 Bohr mag/cell

     iteration # 12     ecut=    50.00 Ry     beta= 0.10
     Davidson diagonalization with overlap
     ethr =  1.46E-03,  avg # of iterations =  1.0

     negative rho (up, down):  1.050E-03 2.302E-03
 
     Adding external electric field

     Computed dipole along edir(3) : 
        Dipole               -0.9443 Ry au,         -2.4002 Debye
        Dipole field         -0.0006 Ry au, 
 
        Potential amp.        0.0638 Ry
        Total length         55.1515 bohr
 
 
     Adding external electric field

     Computed dipole along edir(3) : 
        Dipole               -0.9443 Ry au,         -2.4002 Debye
        Dipole field         -0.0006 Ry au, 
 
        Potential amp.        0.0638 Ry
        Total length         55.1515 bohr
 

     total cpu time spent up to now is      207.8 secs

     total energy              =   -7738.10074425 Ry
     estimated scf accuracy    <      15.51810044 Ry

     total magnetization       =    71.82 Bohr mag/cell
     absolute magnetization    =    85.54 Bohr mag/cell

     iteration # 13     ecut=    50.00 Ry     beta= 0.10
     Davidson diagonalization with overlap
     ethr =  1.42E-03,  avg # of iterations =  1.0

     negative rho (up, down):  1.661E-03 3.775E-03
 
     Adding external electric field

     Computed dipole along edir(3) : 
        Dipole               -0.8734 Ry au,         -2.2199 Debye
        Dipole field         -0.0005 Ry au, 
 
        Potential amp.        0.0590 Ry
        Total length         55.1515 bohr
 
 
     Adding external electric field

     Computed dipole along edir(3) : 
        Dipole               -0.8734 Ry au,         -2.2199 Debye
        Dipole field         -0.0005 Ry au, 
 
        Potential amp.        0.0590 Ry
        Total length         55.1515 bohr
 

     total cpu time spent up to now is      221.2 secs

     total energy              =   -7738.10862659 Ry
     estimated scf accuracy    <      10.03483535 Ry

     total magnetization       =    76.56 Bohr mag/cell
     absolute magnetization    =    88.07 Bohr mag/cell

     iteration # 14     ecut=    50.00 Ry     beta= 0.10
     Davidson diagonalization with overlap
     ethr =  9.18E-04,  avg # of iterations =  1.0

     negative rho (up, down):  2.617E-02 2.210E-02
 
     Adding external electric field

     Computed dipole along edir(3) : 
        Dipole               -0.3981 Ry au,         -1.0118 Debye
        Dipole field         -0.0002 Ry au, 
 
        Potential amp.        0.0269 Ry
        Total length         55.1515 bohr
 
 
     Adding external electric field

     Computed dipole along edir(3) : 
        Dipole               -0.3981 Ry au,         -1.0118 Debye
        Dipole field         -0.0002 Ry au, 
 
        Potential amp.        0.0269 Ry
        Total length         55.1515 bohr
 

     total cpu time spent up to now is      234.6 secs

     total energy              =   -7737.84976714 Ry
     estimated scf accuracy    <       8.31962012 Ry

     total magnetization       =    78.82 Bohr mag/cell
     absolute magnetization    =    89.02 Bohr mag/cell

     iteration # 15     ecut=    50.00 Ry     beta= 0.10
     Davidson diagonalization with overlap
     ethr =  7.61E-04,  avg # of iterations =  2.0

     negative rho (up, down):  3.906E-03 5.201E-03
 
     Adding external electric field

     Computed dipole along edir(3) : 
        Dipole               -0.6946 Ry au,         -1.7654 Debye
        Dipole field         -0.0004 Ry au, 
 
        Potential amp.        0.0469 Ry
        Total length         55.1515 bohr
 
 
     Adding external electric field

     Computed dipole along edir(3) : 
        Dipole               -0.6946 Ry au,         -1.7654 Debye
        Dipole field         -0.0004 Ry au, 
 
        Potential amp.        0.0469 Ry
        Total length         55.1515 bohr
 

     total cpu time spent up to now is      249.5 secs

     total energy              =   -7738.05773776 Ry
     estimated scf accuracy    <       1.93693217 Ry

     total magnetization       =    90.20 Bohr mag/cell
     absolute magnetization    =    96.31 Bohr mag/cell

     iteration # 16     ecut=    50.00 Ry     beta= 0.10
     Davidson diagonalization with overlap
     ethr =  1.77E-04,  avg # of iterations =  2.5

     negative rho (up, down):  3.254E-03 5.043E-03
 
     Adding external electric field

     Computed dipole along edir(3) : 
        Dipole               -0.6704 Ry au,         -1.7039 Debye
        Dipole field         -0.0004 Ry au, 
 
        Potential amp.        0.0453 Ry
        Total length         55.1515 bohr
 
 
     Adding external electric field

     Computed dipole along edir(3) : 
        Dipole               -0.6704 Ry au,         -1.7039 Debye
        Dipole field         -0.0004 Ry au, 
 
        Potential amp.        0.0453 Ry
        Total length         55.1515 bohr
 

     total cpu time spent up to now is      264.3 secs

     total energy              =   -7738.10868750 Ry
     estimated scf accuracy    <       1.67270276 Ry

     total magnetization       =    87.84 Bohr mag/cell
     absolute magnetization    =    94.56 Bohr mag/cell

     iteration # 17     ecut=    50.00 Ry     beta= 0.10
     Davidson diagonalization with overlap
     ethr =  1.53E-04,  avg # of iterations =  1.0

     negative rho (up, down):  1.796E-03 4.645E-03
 
     Adding external electric field

     Computed dipole along edir(3) : 
        Dipole               -0.5717 Ry au,         -1.4531 Debye
        Dipole field         -0.0003 Ry au, 
 
        Potential amp.        0.0386 Ry
        Total length         55.1515 bohr
 
 
     Adding external electric field

     Computed dipole along edir(3) : 
        Dipole               -0.5717 Ry au,         -1.4531 Debye
        Dipole field         -0.0003 Ry au, 
 
        Potential amp.        0.0386 Ry
        Total length         55.1515 bohr
 

     total cpu time spent up to now is      277.4 secs

     total energy              =   -7738.08091784 Ry
     estimated scf accuracy    <       1.77659199 Ry

     total magnetization       =    87.29 Bohr mag/cell
     absolute magnetization    =    94.08 Bohr mag/cell

     iteration # 18     ecut=    50.00 Ry     beta= 0.10
     Davidson diagonalization with overlap
     ethr =  1.53E-04,  avg # of iterations =  1.5

     negative rho (up, down):  1.027E-02 1.389E-02
 
     Adding external electric field

     Computed dipole along edir(3) : 
        Dipole               -0.3613 Ry au,         -0.9184 Debye
        Dipole field         -0.0002 Ry au, 
 
        Potential amp.        0.0244 Ry
        Total length         55.1515 bohr
 
 
     Adding external electric field

     Computed dipole along edir(3) : 
        Dipole               -0.3613 Ry au,         -0.9184 Debye
        Dipole field         -0.0002 Ry au, 
 
        Potential amp.        0.0244 Ry
        Total length         55.1515 bohr
 

     total cpu time spent up to now is      291.7 secs

     total energy              =   -7738.15447849 Ry
     estimated scf accuracy    <       2.61896610 Ry

     total magnetization       =    86.98 Bohr mag/cell
     absolute magnetization    =    93.51 Bohr mag/cell

     iteration # 19     ecut=    50.00 Ry     beta= 0.10
     Davidson diagonalization with overlap
     ethr =  1.53E-04,  avg # of iterations =  1.5

     negative rho (up, down):  2.106E-02 2.525E-02
 
     Adding external electric field

     Computed dipole along edir(3) : 
        Dipole               -0.0903 Ry au,         -0.2295 Debye
        Dipole field         -0.0001 Ry au, 
 
        Potential amp.        0.0061 Ry
        Total length         55.1515 bohr
 
 
     Adding external electric field

     Computed dipole along edir(3) : 
        Dipole               -0.0903 Ry au,         -0.2295 Debye
        Dipole field         -0.0001 Ry au, 
 
        Potential amp.        0.0061 Ry
        Total length         55.1515 bohr
 

     total cpu time spent up to now is      305.8 secs

     total energy              =   -7738.22958707 Ry
     estimated scf accuracy    <       1.68245844 Ry

     total magnetization       =    88.46 Bohr mag/cell
     absolute magnetization    =    94.15 Bohr mag/cell

     iteration # 20     ecut=    50.00 Ry     beta= 0.10
     Davidson diagonalization with overlap
     ethr =  1.53E-04,  avg # of iterations =  1.5

     negative rho (up, down):  4.886E-03 7.534E-03
 
     Adding external electric field

     Computed dipole along edir(3) : 
        Dipole               -0.6629 Ry au,         -1.6848 Debye
        Dipole field         -0.0004 Ry au, 
 
        Potential amp.        0.0448 Ry
        Total length         55.1515 bohr
 
 
     Adding external electric field

     Computed dipole along edir(3) : 
        Dipole               -0.6629 Ry au,         -1.6848 Debye
        Dipole field         -0.0004 Ry au, 
 
        Potential amp.        0.0448 Ry
        Total length         55.1515 bohr
 

     total cpu time spent up to now is      319.7 secs

     total energy              =   -7738.17675255 Ry
     estimated scf accuracy    <       2.12303052 Ry

     total magnetization       =    88.25 Bohr mag/cell
     absolute magnetization    =    93.42 Bohr mag/cell

     iteration # 21     ecut=    50.00 Ry     beta= 0.10
     Davidson diagonalization with overlap
     ethr =  1.53E-04,  avg # of iterations =  1.5

     negative rho (up, down):  1.169E-03 2.505E-03
 
     Adding external electric field

     Computed dipole along edir(3) : 
        Dipole               -1.4313 Ry au,         -3.6381 Debye
        Dipole field         -0.0009 Ry au, 
 
        Potential amp.        0.0966 Ry
        Total length         55.1515 bohr
 
 
     Adding external electric field

     Computed dipole along edir(3) : 
        Dipole               -1.4313 Ry au,         -3.6381 Debye
        Dipole field         -0.0009 Ry au, 
 
        Potential amp.        0.0966 Ry
        Total length         55.1515 bohr
 

     total cpu time spent up to now is      334.2 secs

     total energy              =   -7738.15209044 Ry
     estimated scf accuracy    <       1.38654907 Ry

     total magnetization       =    89.25 Bohr mag/cell
     absolute magnetization    =    94.55 Bohr mag/cell

     iteration # 22     ecut=    50.00 Ry     beta= 0.10
     Davidson diagonalization with overlap
     c_bands:  3 eigenvalues not converged
     ethr =  1.27E-04,  avg # of iterations = 10.5

     negative rho (up, down):  1.244E-02 1.613E-02
 
     Adding external electric field

     Computed dipole along edir(3) : 
        Dipole               -1.9548 Ry au,         -4.9687 Debye
        Dipole field         -0.0012 Ry au, 
 
        Potential amp.        0.1320 Ry
        Total length         55.1515 bohr
 
 
     Adding external electric field

     Computed dipole along edir(3) : 
        Dipole               -1.9548 Ry au,         -4.9687 Debye
        Dipole field         -0.0012 Ry au, 
 
        Potential amp.        0.1320 Ry
        Total length         55.1515 bohr
 

     total cpu time spent up to now is      354.2 secs

     total energy              =   -7738.14854987 Ry
     estimated scf accuracy    <       1.03800862 Ry

     total magnetization       =    89.27 Bohr mag/cell
     absolute magnetization    =    94.37 Bohr mag/cell

     iteration # 23     ecut=    50.00 Ry     beta= 0.10
     Davidson diagonalization with overlap
     ethr =  9.50E-05,  avg # of iterations =  2.5

     negative rho (up, down):  1.093E-02 1.367E-02
 
     Adding external electric field

     Computed dipole along edir(3) : 
        Dipole               -1.8982 Ry au,         -4.8247 Debye
        Dipole field         -0.0012 Ry au, 
 
        Potential amp.        0.1282 Ry
        Total length         55.1515 bohr
 
 
     Adding external electric field

     Computed dipole along edir(3) : 
        Dipole               -1.8982 Ry au,         -4.8247 Debye
        Dipole field         -0.0012 Ry au, 
 
        Potential amp.        0.1282 Ry
        Total length         55.1515 bohr
 

     total cpu time spent up to now is      369.5 secs

     total energy              =   -7738.18892788 Ry
     estimated scf accuracy    <       1.08803592 Ry

     total magnetization       =    87.85 Bohr mag/cell
     absolute magnetization    =    93.15 Bohr mag/cell

     iteration # 24     ecut=    50.00 Ry     beta= 0.10
     Davidson diagonalization with overlap
     ethr =  9.50E-05,  avg # of iterations =  1.5

     negative rho (up, down):  1.464E-02 1.643E-02
 
     Adding external electric field

     Computed dipole along edir(3) : 
        Dipole               -1.8894 Ry au,         -4.8025 Debye
        Dipole field         -0.0012 Ry au, 
 
        Potential amp.        0.1276 Ry
        Total length         55.1515 bohr
 
 
     Adding external electric field

     Computed dipole along edir(3) : 
        Dipole               -1.8894 Ry au,         -4.8025 Debye
        Dipole field         -0.0012 Ry au, 
 
        Potential amp.        0.1276 Ry
        Total length         55.1515 bohr
 

     total cpu time spent up to now is      383.6 secs

     total energy              =   -7738.22465956 Ry
     estimated scf accuracy    <       0.90485551 Ry

     total magnetization       =    88.24 Bohr mag/cell
     absolute magnetization    =    93.50 Bohr mag/cell

     iteration # 25     ecut=    50.00 Ry     beta= 0.10
     Davidson diagonalization with overlap
     ethr =  8.28E-05,  avg # of iterations =  2.0

     negative rho (up, down):  1.072E-03 1.412E-03
 
     Adding external electric field

     Computed dipole along edir(3) : 
        Dipole               -1.4399 Ry au,         -3.6598 Debye
        Dipole field         -0.0009 Ry au, 
 
        Potential amp.        0.0972 Ry
        Total length         55.1515 bohr
 
 
     Adding external electric field

     Computed dipole along edir(3) : 
        Dipole               -1.4399 Ry au,         -3.6598 Debye
        Dipole field         -0.0009 Ry au, 
 
        Potential amp.        0.0972 Ry
        Total length         55.1515 bohr
 

     total cpu time spent up to now is      398.4 secs

     total energy              =   -7738.21243972 Ry
     estimated scf accuracy    <       1.05749886 Ry

     total magnetization       =    87.59 Bohr mag/cell
     absolute magnetization    =    92.55 Bohr mag/cell

     iteration # 26     ecut=    50.00 Ry     beta= 0.10
     Davidson diagonalization with overlap
     ethr =  8.28E-05,  avg # of iterations =  1.0

     negative rho (up, down):  2.031E-05 5.284E-05
 
     Adding external electric field

     Computed dipole along edir(3) : 
        Dipole               -0.9078 Ry au,         -2.3073 Debye
        Dipole field         -0.0006 Ry au, 
 
        Potential amp.        0.0613 Ry
        Total length         55.1515 bohr
 
 
     Adding external electric field

     Computed dipole along edir(3) : 
        Dipole               -0.9078 Ry au,         -2.3073 Debye
        Dipole field         -0.0006 Ry au, 
 
        Potential amp.        0.0613 Ry
        Total length         55.1515 bohr
 

     total cpu time spent up to now is      411.7 secs

     total energy              =   -7738.22143731 Ry
     estimated scf accuracy    <       0.39373728 Ry

     total magnetization       =    88.65 Bohr mag/cell
     absolute magnetization    =    93.58 Bohr mag/cell

     iteration # 27     ecut=    50.00 Ry     beta= 0.10
     Davidson diagonalization with overlap
     ethr =  3.60E-05,  avg # of iterations =  3.0

     negative rho (up, down):  6.077E-04 9.161E-04
 
     Adding external electric field

     Computed dipole along edir(3) : 
        Dipole               -1.3258 Ry au,         -3.3699 Debye
        Dipole field         -0.0008 Ry au, 
 
        Potential amp.        0.0895 Ry
        Total length         55.1515 bohr
 
 
     Adding external electric field

     Computed dipole along edir(3) : 
        Dipole               -1.3258 Ry au,         -3.3699 Debye
        Dipole field         -0.0008 Ry au, 
 
        Potential amp.        0.0895 Ry
        Total length         55.1515 bohr
 

     total cpu time spent up to now is      427.3 secs

     total energy              =   -7738.21852036 Ry
     estimated scf accuracy    <       2.26488418 Ry

     total magnetization       =    87.05 Bohr mag/cell
     absolute magnetization    =    91.71 Bohr mag/cell

     iteration # 28     ecut=    50.00 Ry     beta= 0.10
     Davidson diagonalization with overlap
     ethr =  3.60E-05,  avg # of iterations =  1.5

     negative rho (up, down):  3.854E-04 8.321E-04
 
     Adding external electric field

     Computed dipole along edir(3) : 
        Dipole               -1.1271 Ry au,         -2.8649 Debye
        Dipole field         -0.0007 Ry au, 
 
        Potential amp.        0.0761 Ry
        Total length         55.1515 bohr
 
 
     Adding external electric field

     Computed dipole along edir(3) : 
        Dipole               -1.1271 Ry au,         -2.8649 Debye
        Dipole field         -0.0007 Ry au, 
 
        Potential amp.        0.0761 Ry
        Total length         55.1515 bohr
 

     total cpu time spent up to now is      441.2 secs

     total energy              =   -7738.27399865 Ry
     estimated scf accuracy    <       0.24118690 Ry

     total magnetization       =    88.40 Bohr mag/cell
     absolute magnetization    =    92.81 Bohr mag/cell

     iteration # 29     ecut=    50.00 Ry     beta= 0.10
     Davidson diagonalization with overlap
     c_bands:  2 eigenvalues not converged
     ethr =  2.21E-05,  avg # of iterations = 21.0

     negative rho (up, down):  6.726E-05 1.211E-04
 
     Adding external electric field

     Computed dipole along edir(3) : 
        Dipole               -0.9803 Ry au,         -2.4918 Debye
        Dipole field         -0.0006 Ry au, 
 
        Potential amp.        0.0662 Ry
        Total length         55.1515 bohr
 
 
     Adding external electric field

     Computed dipole along edir(3) : 
        Dipole               -0.9803 Ry au,         -2.4918 Debye
        Dipole field         -0.0006 Ry au, 
 
        Potential amp.        0.0662 Ry
        Total length         55.1515 bohr
 

     total cpu time spent up to now is      473.4 secs

     total energy              =   -7738.32065208 Ry
     estimated scf accuracy    <       1.40165723 Ry

     total magnetization       =    87.82 Bohr mag/cell
     absolute magnetization    =    90.76 Bohr mag/cell

     iteration # 30     ecut=    50.00 Ry     beta= 0.10
     Davidson diagonalization with overlap
     ethr =  2.21E-05,  avg # of iterations =  1.5

     negative rho (up, down):  1.656E-03 2.205E-03
 
     Adding external electric field

     Computed dipole along edir(3) : 
        Dipole               -1.1397 Ry au,         -2.8969 Debye
        Dipole field         -0.0007 Ry au, 
 
        Potential amp.        0.0770 Ry
        Total length         55.1515 bohr
 
 
     Adding external electric field

     Computed dipole along edir(3) : 
        Dipole               -1.1397 Ry au,         -2.8969 Debye
        Dipole field         -0.0007 Ry au, 
 
        Potential amp.        0.0770 Ry
        Total length         55.1515 bohr
 

     total cpu time spent up to now is      487.1 secs

     total energy              =   -7738.31710194 Ry
     estimated scf accuracy    <       2.86845043 Ry

     total magnetization       =    87.04 Bohr mag/cell
     absolute magnetization    =    89.89 Bohr mag/cell

     iteration # 31     ecut=    50.00 Ry     beta= 0.10
     Davidson diagonalization with overlap
     ethr =  2.21E-05,  avg # of iterations =  1.5

     negative rho (up, down):  1.444E-03 1.872E-03
 
     Adding external electric field

     Computed dipole along edir(3) : 
        Dipole               -1.1126 Ry au,         -2.8279 Debye
        Dipole field         -0.0007 Ry au, 
 
        Potential amp.        0.0751 Ry
        Total length         55.1515 bohr
 
 
     Adding external electric field

     Computed dipole along edir(3) : 
        Dipole               -1.1126 Ry au,         -2.8279 Debye
        Dipole field         -0.0007 Ry au, 
 
        Potential amp.        0.0751 Ry
        Total length         55.1515 bohr
 

     total cpu time spent up to now is      500.6 secs

     total energy              =   -7738.32280840 Ry
     estimated scf accuracy    <       1.90750165 Ry

     total magnetization       =    87.34 Bohr mag/cell
     absolute magnetization    =    89.98 Bohr mag/cell

     iteration # 32     ecut=    50.00 Ry     beta= 0.10
     Davidson diagonalization with overlap
     ethr =  2.21E-05,  avg # of iterations =  2.0

     negative rho (up, down):  2.649E-03 3.263E-03
 
     Adding external electric field

     Computed dipole along edir(3) : 
        Dipole               -1.1632 Ry au,         -2.9565 Debye
        Dipole field         -0.0007 Ry au, 
 
        Potential amp.        0.0785 Ry
        Total length         55.1515 bohr
 
 
     Adding external electric field

     Computed dipole along edir(3) : 
        Dipole               -1.1632 Ry au,         -2.9565 Debye
        Dipole field         -0.0007 Ry au, 
 
        Potential amp.        0.0785 Ry
        Total length         55.1515 bohr
 

     total cpu time spent up to now is      515.2 secs

     total energy              =   -7738.32025374 Ry
     estimated scf accuracy    <       2.41114654 Ry

     total magnetization       =    86.98 Bohr mag/cell
     absolute magnetization    =    89.67 Bohr mag/cell

     iteration # 33     ecut=    50.00 Ry     beta= 0.10
     Davidson diagonalization with overlap
     ethr =  2.21E-05,  avg # of iterations =  2.0

     negative rho (up, down):  5.395E-03 6.587E-03
 
     Adding external electric field

     Computed dipole along edir(3) : 
        Dipole               -1.2358 Ry au,         -3.1411 Debye
        Dipole field         -0.0008 Ry au, 
 
        Potential amp.        0.0834 Ry
        Total length         55.1515 bohr
 
 
     Adding external electric field

     Computed dipole along edir(3) : 
        Dipole               -1.2358 Ry au,         -3.1411 Debye
        Dipole field         -0.0008 Ry au, 
 
        Potential amp.        0.0834 Ry
        Total length         55.1515 bohr
 

     total cpu time spent up to now is      529.6 secs

     total energy              =   -7738.31653429 Ry
     estimated scf accuracy    <       2.13912400 Ry

     total magnetization       =    86.59 Bohr mag/cell
     absolute magnetization    =    89.28 Bohr mag/cell

     iteration # 34     ecut=    50.00 Ry     beta= 0.10
     Davidson diagonalization with overlap
     ethr =  2.21E-05,  avg # of iterations =  1.0

     negative rho (up, down):  4.685E-03 5.926E-03
 
     Adding external electric field

     Computed dipole along edir(3) : 
        Dipole               -1.2753 Ry au,         -3.2414 Debye
        Dipole field         -0.0008 Ry au, 
 
        Potential amp.        0.0861 Ry
        Total length         55.1515 bohr
 
 
     Adding external electric field

     Computed dipole along edir(3) : 
        Dipole               -1.2753 Ry au,         -3.2414 Debye
        Dipole field         -0.0008 Ry au, 
 
        Potential amp.        0.0861 Ry
        Total length         55.1515 bohr
 

     total cpu time spent up to now is      542.9 secs

     total energy              =   -7738.30473720 Ry
     estimated scf accuracy    <       1.58320853 Ry

     total magnetization       =    85.89 Bohr mag/cell
     absolute magnetization    =    88.55 Bohr mag/cell

     iteration # 35     ecut=    50.00 Ry     beta= 0.10
     Davidson diagonalization with overlap
     ethr =  2.21E-05,  avg # of iterations =  2.0

     negative rho (up, down):  4.554E-03 5.764E-03
 
     Adding external electric field

     Computed dipole along edir(3) : 
        Dipole               -1.3583 Ry au,         -3.4523 Debye
        Dipole field         -0.0008 Ry au, 
 
        Potential amp.        0.0917 Ry
        Total length         55.1515 bohr
 
 
     Adding external electric field

     Computed dipole along edir(3) : 
        Dipole               -1.3583 Ry au,         -3.4523 Debye
        Dipole field         -0.0008 Ry au, 
 
        Potential amp.        0.0917 Ry
        Total length         55.1515 bohr
 

     total cpu time spent up to now is      557.2 secs

     total energy              =   -7738.28941400 Ry
     estimated scf accuracy    <       0.81228401 Ry

     total magnetization       =    86.75 Bohr mag/cell
     absolute magnetization    =    89.39 Bohr mag/cell

     iteration # 36     ecut=    50.00 Ry     beta= 0.10
     Davidson diagonalization with overlap
     ethr =  2.21E-05,  avg # of iterations =  2.0

     negative rho (up, down):  4.118E-03 5.411E-03
 
     Adding external electric field

     Computed dipole along edir(3) : 
        Dipole               -1.2965 Ry au,         -3.2954 Debye
        Dipole field         -0.0008 Ry au, 
 
        Potential amp.        0.0875 Ry
        Total length         55.1515 bohr
 
 
     Adding external electric field

     Computed dipole along edir(3) : 
        Dipole               -1.2965 Ry au,         -3.2954 Debye
        Dipole field         -0.0008 Ry au, 
 
        Potential amp.        0.0875 Ry
        Total length         55.1515 bohr
 

     total cpu time spent up to now is      572.3 secs

     total energy              =   -7738.30220862 Ry
     estimated scf accuracy    <       0.09559260 Ry

     total magnetization       =    88.11 Bohr mag/cell
     absolute magnetization    =    90.63 Bohr mag/cell

     iteration # 37     ecut=    50.00 Ry     beta= 0.10
     Davidson diagonalization with overlap
     ethr =  8.75E-06,  avg # of iterations = 12.5

     negative rho (up, down):  8.837E-03 1.048E-02
 
     Adding external electric field

     Computed dipole along edir(3) : 
        Dipole               -1.3578 Ry au,         -3.4513 Debye
        Dipole field         -0.0008 Ry au, 
 
        Potential amp.        0.0917 Ry
        Total length         55.1515 bohr
 
 
     Adding external electric field

     Computed dipole along edir(3) : 
        Dipole               -1.3578 Ry au,         -3.4513 Debye
        Dipole field         -0.0008 Ry au, 
 
        Potential amp.        0.0917 Ry
        Total length         55.1515 bohr
 

     total cpu time spent up to now is      600.6 secs

     total energy              =   -7738.31061339 Ry
     estimated scf accuracy    <       0.08547613 Ry

     total magnetization       =    88.53 Bohr mag/cell
     absolute magnetization    =    90.43 Bohr mag/cell

     iteration # 38     ecut=    50.00 Ry     beta= 0.10
     Davidson diagonalization with overlap
     ethr =  7.82E-06,  avg # of iterations =  1.5

     negative rho (up, down):  2.678E-03 3.350E-03
 
     Adding external electric field

     Computed dipole along edir(3) : 
        Dipole               -1.1574 Ry au,         -2.9417 Debye
        Dipole field         -0.0007 Ry au, 
 
        Potential amp.        0.0781 Ry
        Total length         55.1515 bohr
 
 
     Adding external electric field

     Computed dipole along edir(3) : 
        Dipole               -1.1574 Ry au,         -2.9417 Debye
        Dipole field         -0.0007 Ry au, 
 
        Potential amp.        0.0781 Ry
        Total length         55.1515 bohr
 

     total cpu time spent up to now is      614.4 secs

     total energy              =   -7738.31375063 Ry
     estimated scf accuracy    <       0.04489656 Ry

     total magnetization       =    88.31 Bohr mag/cell
     absolute magnetization    =    90.03 Bohr mag/cell

     iteration # 39     ecut=    50.00 Ry     beta= 0.10
     Davidson diagonalization with overlap
     c_bands:  2 eigenvalues not converged
     ethr =  4.11E-06,  avg # of iterations = 25.0

     negative rho (up, down):  4.791E-03 5.399E-03
 
     Adding external electric field

     Computed dipole along edir(3) : 
        Dipole               -1.1926 Ry au,         -3.0312 Debye
        Dipole field         -0.0007 Ry au, 
 
        Potential amp.        0.0805 Ry
        Total length         55.1515 bohr
 
 
     Adding external electric field

     Computed dipole along edir(3) : 
        Dipole               -1.1926 Ry au,         -3.0312 Debye
        Dipole field         -0.0007 Ry au, 
 
        Potential amp.        0.0805 Ry
        Total length         55.1515 bohr
 

     total cpu time spent up to now is      652.0 secs

     total energy              =   -7738.31723599 Ry
     estimated scf accuracy    <       0.10536357 Ry

     total magnetization       =    88.61 Bohr mag/cell
     absolute magnetization    =    89.94 Bohr mag/cell

     iteration # 40     ecut=    50.00 Ry     beta= 0.10
     Davidson diagonalization with overlap
     ethr =  4.11E-06,  avg # of iterations =  2.0

     negative rho (up, down):  4.698E-03 4.960E-03
 
     Adding external electric field

     Computed dipole along edir(3) : 
        Dipole               -1.1082 Ry au,         -2.8168 Debye
        Dipole field         -0.0007 Ry au, 
 
        Potential amp.        0.0748 Ry
        Total length         55.1515 bohr
 
 
     Adding external electric field

     Computed dipole along edir(3) : 
        Dipole               -1.1082 Ry au,         -2.8168 Debye
        Dipole field         -0.0007 Ry au, 
 
        Potential amp.        0.0748 Ry
        Total length         55.1515 bohr
 

     total cpu time spent up to now is      666.7 secs

     total energy              =   -7738.31870813 Ry
     estimated scf accuracy    <       0.03061917 Ry

     total magnetization       =    88.35 Bohr mag/cell
     absolute magnetization    =    89.79 Bohr mag/cell

     iteration # 41     ecut=    50.00 Ry     beta= 0.10
     Davidson diagonalization with overlap
     ethr =  2.80E-06,  avg # of iterations =  2.0

     negative rho (up, down):  4.800E-03 4.925E-03
 
     Adding external electric field

     Computed dipole along edir(3) : 
        Dipole               -1.0761 Ry au,         -2.7352 Debye
        Dipole field         -0.0007 Ry au, 
 
        Potential amp.        0.0727 Ry
        Total length         55.1515 bohr
 
 
     Adding external electric field

     Computed dipole along edir(3) : 
        Dipole               -1.0761 Ry au,         -2.7352 Debye
        Dipole field         -0.0007 Ry au, 
 
        Potential amp.        0.0727 Ry
        Total length         55.1515 bohr
 

     total cpu time spent up to now is      681.5 secs

     total energy              =   -7738.31887634 Ry
     estimated scf accuracy    <       0.03782461 Ry

     total magnetization       =    88.24 Bohr mag/cell
     absolute magnetization    =    89.56 Bohr mag/cell

     iteration # 42     ecut=    50.00 Ry     beta= 0.10
     Davidson diagonalization with overlap
     ethr =  2.80E-06,  avg # of iterations =  1.5

     negative rho (up, down):  6.204E-03 6.180E-03
 
     Adding external electric field

     Computed dipole along edir(3) : 
        Dipole               -1.0489 Ry au,         -2.6659 Debye
        Dipole field         -0.0006 Ry au, 
 
        Potential amp.        0.0708 Ry
        Total length         55.1515 bohr
 
 
     Adding external electric field

     Computed dipole along edir(3) : 
        Dipole               -1.0489 Ry au,         -2.6659 Debye
        Dipole field         -0.0006 Ry au, 
 
        Potential amp.        0.0708 Ry
        Total length         55.1515 bohr
 

     total cpu time spent up to now is      695.5 secs

     total energy              =   -7738.31844719 Ry
     estimated scf accuracy    <       0.03507813 Ry

     total magnetization       =    88.35 Bohr mag/cell
     absolute magnetization    =    89.64 Bohr mag/cell

     iteration # 43     ecut=    50.00 Ry     beta= 0.10
     Davidson diagonalization with overlap
     ethr =  2.80E-06,  avg # of iterations =  2.0

     negative rho (up, down):  7.440E-03 7.405E-03
 
     Adding external electric field

     Computed dipole along edir(3) : 
        Dipole               -1.0367 Ry au,         -2.6350 Debye
        Dipole field         -0.0006 Ry au, 
 
        Potential amp.        0.0700 Ry
        Total length         55.1515 bohr
 
 
     Adding external electric field

     Computed dipole along edir(3) : 
        Dipole               -1.0367 Ry au,         -2.6350 Debye
        Dipole field         -0.0006 Ry au, 
 
        Potential amp.        0.0700 Ry
        Total length         55.1515 bohr
 

     total cpu time spent up to now is      709.8 secs

     total energy              =   -7738.31809667 Ry
     estimated scf accuracy    <       0.02739368 Ry

     total magnetization       =    88.48 Bohr mag/cell
     absolute magnetization    =    89.76 Bohr mag/cell

     iteration # 44     ecut=    50.00 Ry     beta= 0.10
     Davidson diagonalization with overlap
     ethr =  2.51E-06,  avg # of iterations =  1.0

     negative rho (up, down):  8.039E-03 7.996E-03
 
     Adding external electric field

     Computed dipole along edir(3) : 
        Dipole               -1.0478 Ry au,         -2.6632 Debye
        Dipole field         -0.0006 Ry au, 
 
        Potential amp.        0.0707 Ry
        Total length         55.1515 bohr
 
 
     Adding external electric field

     Computed dipole along edir(3) : 
        Dipole               -1.0478 Ry au,         -2.6632 Debye
        Dipole field         -0.0006 Ry au, 
 
        Potential amp.        0.0707 Ry
        Total length         55.1515 bohr
 

     total cpu time spent up to now is      722.5 secs

     total energy              =   -7738.31803353 Ry
     estimated scf accuracy    <       0.02648253 Ry

     total magnetization       =    88.50 Bohr mag/cell
     absolute magnetization    =    89.75 Bohr mag/cell

     iteration # 45     ecut=    50.00 Ry     beta= 0.10
     Davidson diagonalization with overlap
     ethr =  2.42E-06,  avg # of iterations =  1.0

     negative rho (up, down):  6.351E-03 6.270E-03
 
     Adding external electric field

     Computed dipole along edir(3) : 
        Dipole               -1.0153 Ry au,         -2.5807 Debye
        Dipole field         -0.0006 Ry au, 
 
        Potential amp.        0.0686 Ry
        Total length         55.1515 bohr
 
 
     Adding external electric field

     Computed dipole along edir(3) : 
        Dipole               -1.0153 Ry au,         -2.5807 Debye
        Dipole field         -0.0006 Ry au, 
 
        Potential amp.        0.0686 Ry
        Total length         55.1515 bohr
 

     total cpu time spent up to now is      734.9 secs

     total energy              =   -7738.31827408 Ry
     estimated scf accuracy    <       0.02433650 Ry

     total magnetization       =    88.54 Bohr mag/cell
     absolute magnetization    =    89.78 Bohr mag/cell

     iteration # 46     ecut=    50.00 Ry     beta= 0.10
     Davidson diagonalization with overlap
     ethr =  2.23E-06,  avg # of iterations =  1.0

     negative rho (up, down):  8.089E-03 8.165E-03
 
     Adding external electric field

     Computed dipole along edir(3) : 
        Dipole               -1.0306 Ry au,         -2.6195 Debye
        Dipole field         -0.0006 Ry au, 
 
        Potential amp.        0.0696 Ry
        Total length         55.1515 bohr
 
 
     Adding external electric field

     Computed dipole along edir(3) : 
        Dipole               -1.0306 Ry au,         -2.6195 Debye
        Dipole field         -0.0006 Ry au, 
 
        Potential amp.        0.0696 Ry
        Total length         55.1515 bohr
 

     total cpu time spent up to now is      747.7 secs

     total energy              =   -7738.31824030 Ry
     estimated scf accuracy    <       0.02530030 Ry

     total magnetization       =    88.56 Bohr mag/cell
     absolute magnetization    =    89.84 Bohr mag/cell

     iteration # 47     ecut=    50.00 Ry     beta= 0.10
     Davidson diagonalization with overlap
     ethr =  2.23E-06,  avg # of iterations =  2.0

     negative rho (up, down):  8.151E-03 8.246E-03
 
     Adding external electric field

     Computed dipole along edir(3) : 
        Dipole               -1.0289 Ry au,         -2.6152 Debye
        Dipole field         -0.0006 Ry au, 
 
        Potential amp.        0.0695 Ry
        Total length         55.1515 bohr
 
 
     Adding external electric field

     Computed dipole along edir(3) : 
        Dipole               -1.0289 Ry au,         -2.6152 Debye
        Dipole field         -0.0006 Ry au, 
 
        Potential amp.        0.0695 Ry
        Total length         55.1515 bohr
 

     total cpu time spent up to now is      762.3 secs

     total energy              =   -7738.31823188 Ry
     estimated scf accuracy    <       0.02206962 Ry

     total magnetization       =    88.55 Bohr mag/cell
     absolute magnetization    =    89.85 Bohr mag/cell

     iteration # 48     ecut=    50.00 Ry     beta= 0.10
     Davidson diagonalization with overlap
     ethr =  2.02E-06,  avg # of iterations =  1.0

     negative rho (up, down):  8.574E-03 8.426E-03
 
     Adding external electric field

     Computed dipole along edir(3) : 
        Dipole               -0.8752 Ry au,         -2.2245 Debye
        Dipole field         -0.0005 Ry au, 
 
        Potential amp.        0.0591 Ry
        Total length         55.1515 bohr
 
 
     Adding external electric field

     Computed dipole along edir(3) : 
        Dipole               -0.8752 Ry au,         -2.2245 Debye
        Dipole field         -0.0005 Ry au, 
 
        Potential amp.        0.0591 Ry
        Total length         55.1515 bohr
 

     total cpu time spent up to now is      775.3 secs

     total energy              =   -7738.31732698 Ry
     estimated scf accuracy    <       0.02086672 Ry

     total magnetization       =    88.53 Bohr mag/cell
     absolute magnetization    =    89.82 Bohr mag/cell

     iteration # 49     ecut=    50.00 Ry     beta= 0.10
     Davidson diagonalization with overlap
     ethr =  1.91E-06,  avg # of iterations =  2.0

     negative rho (up, down):  8.991E-03 8.769E-03
 
     Adding external electric field

     Computed dipole along edir(3) : 
        Dipole               -0.8314 Ry au,         -2.1133 Debye
        Dipole field         -0.0005 Ry au, 
 
        Potential amp.        0.0561 Ry
        Total length         55.1515 bohr
 
 
     Adding external electric field

     Computed dipole along edir(3) : 
        Dipole               -0.8314 Ry au,         -2.1133 Debye
        Dipole field         -0.0005 Ry au, 
 
        Potential amp.        0.0561 Ry
        Total length         55.1515 bohr
 

     total cpu time spent up to now is      789.7 secs

     total energy              =   -7738.31713971 Ry
     estimated scf accuracy    <       0.02345375 Ry

     total magnetization       =    88.48 Bohr mag/cell
     absolute magnetization    =    89.79 Bohr mag/cell

     iteration # 50     ecut=    50.00 Ry     beta= 0.10
     Davidson diagonalization with overlap
     ethr =  1.91E-06,  avg # of iterations =  1.5

     negative rho (up, down):  7.625E-03 7.528E-03
 
     Adding external electric field

     Computed dipole along edir(3) : 
        Dipole               -0.8277 Ry au,         -2.1038 Debye
        Dipole field         -0.0005 Ry au, 
 
        Potential amp.        0.0559 Ry
        Total length         55.1515 bohr
 
 
     Adding external electric field

     Computed dipole along edir(3) : 
        Dipole               -0.8277 Ry au,         -2.1038 Debye
        Dipole field         -0.0005 Ry au, 
 
        Potential amp.        0.0559 Ry
        Total length         55.1515 bohr
 

     total cpu time spent up to now is      803.2 secs

     total energy              =   -7738.31707594 Ry
     estimated scf accuracy    <       0.02152963 Ry

     total magnetization       =    88.50 Bohr mag/cell
     absolute magnetization    =    89.80 Bohr mag/cell

     iteration # 51     ecut=    50.00 Ry     beta= 0.10
     Davidson diagonalization with overlap
     ethr =  1.91E-06,  avg # of iterations =  2.0

     negative rho (up, down):  6.952E-03 6.946E-03
 
     Adding external electric field

     Computed dipole along edir(3) : 
        Dipole               -0.8460 Ry au,         -2.1504 Debye
        Dipole field         -0.0005 Ry au, 
 
        Potential amp.        0.0571 Ry
        Total length         55.1515 bohr
 
 
     Adding external electric field

     Computed dipole along edir(3) : 
        Dipole               -0.8460 Ry au,         -2.1504 Debye
        Dipole field         -0.0005 Ry au, 
 
        Potential amp.        0.0571 Ry
        Total length         55.1515 bohr
 

     total cpu time spent up to now is      817.5 secs

     total energy              =   -7738.31723788 Ry
     estimated scf accuracy    <       0.01926043 Ry

     total magnetization       =    88.53 Bohr mag/cell
     absolute magnetization    =    89.81 Bohr mag/cell

     iteration # 52     ecut=    50.00 Ry     beta= 0.10
     Davidson diagonalization with overlap
     ethr =  1.76E-06,  avg # of iterations =  1.5

     negative rho (up, down):  7.280E-03 7.200E-03
 
     Adding external electric field

     Computed dipole along edir(3) : 
        Dipole               -0.8346 Ry au,         -2.1214 Debye
        Dipole field         -0.0005 Ry au, 
 
        Potential amp.        0.0564 Ry
        Total length         55.1515 bohr
 
 
     Adding external electric field

     Computed dipole along edir(3) : 
        Dipole               -0.8346 Ry au,         -2.1214 Debye
        Dipole field         -0.0005 Ry au, 
 
        Potential amp.        0.0564 Ry
        Total length         55.1515 bohr
 

     total cpu time spent up to now is      830.9 secs

     total energy              =   -7738.31720974 Ry
     estimated scf accuracy    <       0.01986091 Ry

     total magnetization       =    88.52 Bohr mag/cell
     absolute magnetization    =    89.81 Bohr mag/cell

     iteration # 53     ecut=    50.00 Ry     beta= 0.10
     Davidson diagonalization with overlap
     ethr =  1.76E-06,  avg # of iterations =  2.0

     negative rho (up, down):  6.311E-03 6.428E-03
 
     Adding external electric field

     Computed dipole along edir(3) : 
        Dipole               -0.8687 Ry au,         -2.2080 Debye
        Dipole field         -0.0005 Ry au, 
 
        Potential amp.        0.0587 Ry
        Total length         55.1515 bohr
 
 
     Adding external electric field

     Computed dipole along edir(3) : 
        Dipole               -0.8687 Ry au,         -2.2080 Debye
        Dipole field         -0.0005 Ry au, 
 
        Potential amp.        0.0587 Ry
        Total length         55.1515 bohr
 

     total cpu time spent up to now is      845.7 secs

     total energy              =   -7738.31754964 Ry
     estimated scf accuracy    <       0.02054576 Ry

     total magnetization       =    88.53 Bohr mag/cell
     absolute magnetization    =    89.81 Bohr mag/cell

     iteration # 54     ecut=    50.00 Ry     beta= 0.10
     Davidson diagonalization with overlap
     ethr =  1.76E-06,  avg # of iterations =  1.5

     negative rho (up, down):  7.555E-03 7.598E-03
 
     Adding external electric field

     Computed dipole along edir(3) : 
        Dipole               -0.8737 Ry au,         -2.2206 Debye
        Dipole field         -0.0005 Ry au, 
 
        Potential amp.        0.0590 Ry
        Total length         55.1515 bohr
 
 
     Adding external electric field

     Computed dipole along edir(3) : 
        Dipole               -0.8737 Ry au,         -2.2206 Debye
        Dipole field         -0.0005 Ry au, 
 
        Potential amp.        0.0590 Ry
        Total length         55.1515 bohr
 

     total cpu time spent up to now is      859.2 secs

     total energy              =   -7738.31692910 Ry
     estimated scf accuracy    <       0.02284384 Ry

     total magnetization       =    88.49 Bohr mag/cell
     absolute magnetization    =    89.83 Bohr mag/cell

     iteration # 55     ecut=    50.00 Ry     beta= 0.10
     Davidson diagonalization with overlap
     ethr =  1.76E-06,  avg # of iterations =  1.5

     negative rho (up, down):  6.578E-03 6.603E-03
 
     Adding external electric field

     Computed dipole along edir(3) : 
        Dipole               -0.8730 Ry au,         -2.2190 Debye
        Dipole field         -0.0005 Ry au, 
 
        Potential amp.        0.0589 Ry
        Total length         55.1515 bohr
 
 
     Adding external electric field

     Computed dipole along edir(3) : 
        Dipole               -0.8730 Ry au,         -2.2190 Debye
        Dipole field         -0.0005 Ry au, 
 
        Potential amp.        0.0589 Ry
        Total length         55.1515 bohr
 

     total cpu time spent up to now is      872.8 secs

     total energy              =   -7738.31748441 Ry
     estimated scf accuracy    <       0.01969099 Ry

     total magnetization       =    88.52 Bohr mag/cell
     absolute magnetization    =    89.77 Bohr mag/cell

     iteration # 56     ecut=    50.00 Ry     beta= 0.10
     Davidson diagonalization with overlap
     ethr =  1.76E-06,  avg # of iterations =  1.5

     negative rho (up, down):  8.734E-03 8.957E-03
 
     Adding external electric field

     Computed dipole along edir(3) : 
        Dipole               -0.8491 Ry au,         -2.1583 Debye
        Dipole field         -0.0005 Ry au, 
 
        Potential amp.        0.0573 Ry
        Total length         55.1515 bohr
 
 
     Adding external electric field

     Computed dipole along edir(3) : 
        Dipole               -0.8491 Ry au,         -2.1583 Debye
        Dipole field         -0.0005 Ry au, 
 
        Potential amp.        0.0573 Ry
        Total length         55.1515 bohr
 

     total cpu time spent up to now is      886.6 secs

     total energy              =   -7738.31728273 Ry
     estimated scf accuracy    <       0.02245186 Ry

     total magnetization       =    88.50 Bohr mag/cell
     absolute magnetization    =    89.81 Bohr mag/cell

     iteration # 57     ecut=    50.00 Ry     beta= 0.10
     Davidson diagonalization with overlap
     ethr =  1.76E-06,  avg # of iterations =  2.0

     negative rho (up, down):  8.583E-03 8.852E-03
 
     Adding external electric field

     Computed dipole along edir(3) : 
        Dipole               -0.7749 Ry au,         -1.9696 Debye
        Dipole field         -0.0005 Ry au, 
 
        Potential amp.        0.0523 Ry
        Total length         55.1515 bohr
 
 
     Adding external electric field

     Computed dipole along edir(3) : 
        Dipole               -0.7749 Ry au,         -1.9696 Debye
        Dipole field         -0.0005 Ry au, 
 
        Potential amp.        0.0523 Ry
        Total length         55.1515 bohr
 

     total cpu time spent up to now is      901.0 secs

     total energy              =   -7738.31694374 Ry
     estimated scf accuracy    <       0.01808867 Ry

     total magnetization       =    88.54 Bohr mag/cell
     absolute magnetization    =    89.86 Bohr mag/cell

     iteration # 58     ecut=    50.00 Ry     beta= 0.10
     Davidson diagonalization with overlap
     ethr =  1.65E-06,  avg # of iterations =  1.5

     negative rho (up, down):  8.547E-03 8.838E-03
 
     Adding external electric field

     Computed dipole along edir(3) : 
        Dipole               -0.8472 Ry au,         -2.1533 Debye
        Dipole field         -0.0005 Ry au, 
 
[...]
    -5.9816  -5.9674  -5.9174  -5.9074  -5.8857  -5.8781  -5.8756  -5.8457
    -5.8261  -5.8017  -5.7509  -5.7401  -5.7200  -5.6916  -5.6768  -5.6457
    -5.6410  -5.6318  -5.5925  -5.5767  -5.5692  -5.5606  -5.5567  -5.5326
    -5.5178  -5.5054  -5.4825  -5.4441  -5.4018  -5.3579  -5.3329  -5.3183
    -5.2966  -5.2662  -5.2350  -5.1670  -5.1517  -5.1476  -5.1341  -5.1043
    -5.0546  -5.0122  -4.9702  -4.9441  -4.9009  -4.8897  -4.8614  -4.8561
    -4.8145  -4.7962  -4.7811  -4.7439  -4.7082  -4.6902  -4.6499  -4.6053
    -4.5519  -4.4719  -4.4440  -4.4265  -4.4173  -4.4023  -4.3604  -4.3535
    -4.3087  -4.2836  -4.2569  -4.2350  -4.2043  -4.1709  -4.1182  -4.1075
    -4.0777  -4.0493  -4.0473  -4.0146  -3.9584  -3.9341  -3.9206  -3.8781
    -3.8684  -3.8202  -3.8116  -3.8000  -3.7881  -3.7482  -3.7242  -3.6954
    -3.6927  -3.6643  -3.6467  -3.5979  -3.5849  -3.5787  -3.5742  -3.5476
    -3.5437  -3.5213  -3.5027  -3.4777  -3.4588  -3.4429  -3.4279  -3.4134
    -3.4101  -3.3701  -3.3605  -3.3539  -3.3381  -3.3048  -3.2751  -3.2591
    -3.2544  -3.2117  -3.1973  -3.1822  -3.1496  -3.1167  -3.1041  -3.0822
    -3.0741  -3.0680  -3.0444  -3.0379  -3.0222  -3.0037  -2.9791  -2.9663
    -2.9301  -2.9184  -2.8966  -2.8885  -2.8693  -2.8538  -2.8142  -2.7966
    -2.7883  -2.7595  -2.7546  -2.7459  -2.7286  -2.7176  -2.7034  -2.6961
    -2.6881  -2.6778  -2.6621  -2.6479  -2.6416  -2.6088  -2.6024  -2.5975
    -2.5736  -2.5677  -2.5423  -2.5282  -2.5179  -2.4874  -2.4744  -2.4582
    -2.4455  -2.4220  -2.4102  -2.3798  -2.3588  -2.3540  -2.3210  -2.2876
    -2.2783  -2.2675  -2.2288  -2.2111  -2.1957  -2.1804  -2.1478  -2.1433
    -2.1153  -2.0881  -2.0694  -2.0641  -2.0582  -2.0433  -2.0318  -2.0230
    -1.9988  -1.9791  -1.9418  -1.9190  -1.9143  -1.9124  -1.8790  -1.8572
    -1.8427  -1.8369  -1.8256  -1.8105  -1.7899  -1.7174  -1.7099  -1.6925
    -1.6729  -1.6570  -1.6360  -1.6303  -1.6166  -1.6149  -1.5928  -1.5712
    -1.5509  -1.5325  -1.5164  -1.4898  -1.4868  -1.4559  -1.4368  -1.4294
    -1.4004  -1.3977  -1.3828  -1.3767  -1.3589  -1.3496  -1.3059  -1.2631
    -1.2355  -1.2124  -1.1713  -1.1507  -1.1376  -1.1334  -1.0937  -1.0551
    -1.0424  -0.9969  -0.9308  -0.8440  -0.7378  -0.7310  -0.6148  -0.5560
    -0.5249  -0.5112  -0.3587  -0.2210   0.1764   0.2181   0.2407   0.2453
     0.2972   0.3092   0.3120   0.3186   0.3280   0.3473   0.3565   0.3669
     0.3734   0.3871   0.3944   0.4008   0.4033   0.4123   0.4170   0.4244
     0.4308   0.4385   0.4605   0.4639   0.4736   0.4814   0.4888   0.4894
     0.4939   0.5000   0.5075   0.5147   0.5235   0.5311   0.5339   0.5413
     0.5429   0.5611   0.5650   0.5727   0.5820   0.5977   0.6013   0.6162
     0.6213   0.6227   0.6391   0.6460   0.6510   0.6597   0.6642   0.6760
     0.6822   0.6902   0.6984   0.7006   0.7106   0.7280   0.7301   0.7405
     0.7456   0.7564   0.7649   0.7666   0.7743   0.7892   0.7984   0.8092
     0.8110   0.8203   0.8368   0.8537   0.8643   0.8649   0.8673   0.8730
     0.8807   0.8872   0.9046   0.9075   0.9163   0.9506   0.9838   0.9934
     1.0177   1.0475   1.0866   1.1099   1.1207   1.6709   1.7333   1.7457
     1.7668   1.7881   1.7984   1.8135   1.8267   1.8408   1.9025   1.9176
     1.9373   1.9649   1.9884   2.0078   2.0412   2.0434   2.0936   2.1049
     2.1293   2.1413   2.1435   2.1778   2.1886   2.1940   2.2044   2.2320
     2.2657   2.2741   2.2942   2.2982   2.3110   2.3204   2.3295   2.3481
     2.3702   2.3726   2.3869   2.3900   2.4141   2.4179   2.4294   2.4918
     2.5000   2.5280   2.5336   2.5376   2.5507   2.5661   2.5864   2.5959
     2.6202   2.6792   2.7037   2.7187   2.7408   2.7997   2.8020   2.8621
     2.8732   2.9506   3.6501   3.7058   3.7193   3.7459   3.7818   3.7962
     3.8436   3.9021   3.9253   3.9472   3.9578   3.9800   3.9983   4.0037
     4.0517   4.0573   4.1414   4.1448   4.1545   4.1766   4.6479   4.6614
     4.7684   4.8117   4.8585   4.8937   4.9159   4.9594   5.0362   5.0926
     5.1115   5.1431   5.4247   6.2418   6.3721   6.6100   6.6588   6.7500
     6.8446   6.8639   6.8885   6.9646   6.9870   7.0663   7.1172   7.1289
     7.2689   7.3498   7.3552   7.4185   7.4789   7.5393   7.5723   7.6284
     7.6563   7.6657   7.7421   7.7673   7.8012   7.8610   7.8923   7.9673
     7.9997   8.0480   8.0521   8.0901   8.1059   8.1632   8.1799   8.2114
     8.2440   8.2835   8.3022   8.3302   8.4024   8.4278   8.4299   8.4513
     8.4572   8.4774   8.4973   8.5382   8.5534   8.5721   8.5961   8.6206
     8.6682   8.7059   8.7228   8.7537   8.7674   8.7787   8.8378   8.8460

     the Fermi energy is     1.6580 ev

!    total energy              =   -7738.31723380 Ry
     estimated scf accuracy    <       0.00000065 Ry
     smearing contrib. (-TS)   =      -0.02291252 Ry
     internal energy E=F+TS    =   -7738.29432128 Ry

     The total energy is F=E-TS. E is the sum of the following terms:
     one-electron contribution =  -94545.23598817 Ry
     hartree contribution      =   47889.79873359 Ry
     xc contribution           =   -2218.69105184 Ry
     ewald contribution        =   41137.63891748 Ry
     Dispersion Correction     =      -1.80499730 Ry
     electric field correction =       0.00006497 Ry

     total magnetization       =    88.46 Bohr mag/cell
     absolute magnetization    =    89.84 Bohr mag/cell

     convergence has been achieved in  88 iterations

     negative rho (up, down):  1.051E-03 5.880E-04

     Forces acting on atoms (cartesian axes, Ry/au):

     atom    1 type  1   force =    -0.00026985   -0.00012157   -0.00001199
     atom    2 type  2   force =    -0.00024117    0.00079785   -0.00033917
     atom    3 type  1   force =     0.00010594   -0.00007134    0.00030239
     atom    4 type  1   force =    -0.00036521    0.00054297   -0.00057533
     atom    5 type  1   force =    -0.00019081    0.00063107   -0.00039979
     atom    6 type  1   force =     0.00064661    0.00064158   -0.00080560
     atom    7 type  3   force =     0.00024620    0.00035817   -0.00033217
     atom    8 type  3   force =     0.00038472    0.00080182   -0.00010331
     atom    9 type  3   force =    -0.00010443    0.00073405   -0.00001737
     atom   10 type  3   force =    -0.00099665    0.00031323    0.00023604
     atom   11 type  4   force =     0.00030635    0.00032458   -0.00033566
     atom   12 type  4   force =    -0.00053587    0.00055308   -0.00081448
     atom   13 type  4   force =     0.00030776    0.00004915   -0.00034532
     atom   14 type  4   force =    -0.00031892    0.00015515   -0.00012071
     atom   15 type  4   force =    -0.00040597    0.00049835   -0.00011564
     atom   16 type  4   force =    -0.00027322    0.00039167   -0.00026342
     atom   17 type  4   force =     0.00002042    0.00040800    0.00030175
     atom   18 type  4   force =     0.00044341    0.00014718   -0.00009028
     atom   19 type  4   force =     0.00057118   -0.00003409   -0.00062992
     atom   20 type  4   force =    -0.00001784    0.00000144    0.00020635
     atom   21 type  4   force =    -0.00058252    0.00023493    0.00027469
     atom   22 type  4   force =     0.00048109    0.00019238    0.00047831
     atom   23 type  4   force =    -0.00004678    0.00023752    0.00027377
     atom   24 type  4   force =     0.00011658    0.00010812    0.00035332
     atom   25 type  4   force =    -0.00101617    0.00039650   -0.00064916
     atom   26 type  4   force =     0.00034966    0.00028219    0.00056245
     atom   27 type  1   force =    -0.00644971   -0.00876018   -0.00293716
     atom   28 type  2   force =    -0.01199975    0.00029066   -0.00179805
     atom   29 type  1   force =     0.00335389   -0.00477179   -0.00076209
     atom   30 type  1   force =     0.00233153    0.00386443   -0.00176706
     atom   31 type  1   force =     0.00205521   -0.00492185   -0.00054107
     atom   32 type  1   force =    -0.00122929    0.00114718    0.00162622
     atom   33 type  3   force =    -0.00717051   -0.00078467   -0.00037509
     atom   34 type  3   force =    -0.00573859    0.00370537   -0.00118639
     atom   35 type  3   force =     0.00353377   -0.00145648   -0.00447912
     atom   36 type  3   force =     0.00104911   -0.00121550    0.00295736
     atom   37 type  4   force =     0.00883841    0.00528214   -0.00761921
     atom   38 type  4   force =     0.00375178   -0.00108869    0.02016444
     atom   39 type  4   force =    -0.00147428    0.00381542    0.01080006
     atom   40 type  4   force =    -0.00160446   -0.00231725   -0.00892377
     atom   41 type  4   force =     0.00214644    0.00858000    0.00657899
     atom   42 type  4   force =    -0.00456499   -0.00342101   -0.01678702
     atom   43 type  4   force =     0.01058889    0.00506617   -0.00753011
     atom   44 type  4   force =     0.00724737   -0.00304784    0.00609780
     atom   45 type  4   force =     0.00231327    0.00583534   -0.00066589
     atom   46 type  4   force =     0.00257310    0.00069594    0.00601239
     atom   47 type  4   force =    -0.01322151    0.00020298    0.00335013
     atom   48 type  4   force =    -0.01411348    0.00205313   -0.00315015
     atom   49 type  4   force =     0.01309148    0.00233534   -0.00479682
     atom   50 type  4   force =    -0.00349830   -0.00484598    0.00054555
     atom   51 type  4   force =    -0.00427806    0.00262124   -0.00067249
     atom   52 type  4   force =     0.01629818   -0.00322960    0.00424251
     atom   53 type  1   force =    -0.00752419   -0.00710685   -0.00841287
     atom   54 type  2   force =     0.01568718    0.01710541   -0.01004226
     atom   55 type  1   force =     0.00581826   -0.00487239   -0.00573467
     atom   56 type  1   force =    -0.02042494    0.01932770    0.01974203
     atom   57 type  1   force =     0.00441918   -0.00764620   -0.00135125
     atom   58 type  1   force =    -0.00388243   -0.00519223   -0.00097528
     atom   59 type  3   force =    -0.03903697   -0.03837119   -0.05605487
     atom   60 type  3   force =    -0.00496062   -0.00126865   -0.00114624
     atom   61 type  3   force =     0.00273381   -0.00101220   -0.01009218
     atom   62 type  3   force =     0.02911299   -0.04950463   -0.06057467
     atom   63 type  4   force =     0.00629209    0.00350594    0.02096559
     atom   64 type  4   force =     0.00454782    0.00227100    0.01463779
     atom   65 type  4   force =    -0.00066956    0.00292205    0.01276176
     atom   66 type  4   force =     0.00013420    0.00215659    0.01618875
     atom   67 type  4   force =     0.00109945   -0.00059035    0.03924167
     atom   68 type  4   force =    -0.00564531   -0.00397321   -0.01723954
     atom   69 type  4   force =     0.00779154    0.00446290   -0.00262774
     atom   70 type  4   force =     0.00173576   -0.00732366    0.03548761
     atom   71 type  4   force =    -0.00914580    0.03911814    0.00096630
     atom   72 type  4   force =     0.00227535   -0.00044128    0.00794869
     atom   73 type  4   force =    -0.03005654    0.00088952    0.00765402
     atom   74 type  4   force =    -0.01347102    0.00143041   -0.00040650
     atom   75 type  4   force =     0.01186663    0.00349824   -0.00251841
     atom   76 type  4   force =    -0.00236021   -0.00283926    0.00258048
     atom   77 type  4   force =     0.00918607    0.02576032   -0.00255647
     atom   78 type  4   force =     0.03347092   -0.00640493    0.00619816
     atom   79 type  1   force =    -0.00096518   -0.00029401    0.00036286
     atom   80 type  2   force =    -0.00004578    0.00072824   -0.00040290
     atom   81 type  1   force =     0.00058031   -0.00001108    0.00014127
     atom   82 type  1   force =    -0.00010339    0.00058735   -0.00033418
     atom   83 type  1   force =    -0.00081635    0.00066094    0.00027177
     atom   84 type  1   force =     0.00022587    0.00019436   -0.00046894
     atom   85 type  3   force =     0.00019287    0.00043091   -0.00016203
     atom   86 type  3   force =     0.00007921   -0.00018058   -0.00088449
     atom   87 type  3   force =    -0.00038723    0.00044421   -0.00000155
     atom   88 type  3   force =    -0.00078667    0.00087835    0.00031113
     atom   89 type  4   force =    -0.00014719    0.00057678   -0.00027315
     atom   90 type  4   force =    -0.00063364    0.00034071   -0.00037989
     atom   91 type  4   force =     0.00068549   -0.00054079    0.00018113
     atom   92 type  4   force =    -0.00049401    0.00018823   -0.00022439
     atom   93 type  4   force =    -0.00010779    0.00038259   -0.00001194
     atom   94 type  4   force =    -0.00012524    0.00045634    0.00015784
     atom   95 type  4   force =     0.00010559   -0.00017610   -0.00001447
     atom   96 type  4   force =     0.00026697    0.00021904   -0.00060039
     atom   97 type  4   force =     0.00031082   -0.00005592   -0.00026795
     atom   98 type  4   force =     0.00035181    0.00053065   -0.00014912
     atom   99 type  4   force =    -0.00044928    0.00012389    0.00063783
     atom  100 type  4   force =    -0.00070903    0.00024840    0.00004215
     atom  101 type  4   force =    -0.00016669    0.00020211    0.00006908
     atom  102 type  4   force =    -0.00005915    0.00020721    0.00051384
     atom  103 type  4   force =    -0.00054732    0.00033594   -0.00049639
     atom  104 type  4   force =     0.00058864    0.00027632   -0.00008048
     atom  105 type  1   force =    -0.00679530   -0.00719460   -0.00199102
     atom  106 type  2   force =    -0.01231790    0.00009100   -0.00161334
     atom  107 type  1   force =     0.00390124   -0.00457361   -0.00017339
     atom  108 type  1   force =     0.00238390    0.00386662   -0.00165508
     atom  109 type  1   force =     0.00149203   -0.00484699   -0.00034916
     atom  110 type  1   force =    -0.00112014    0.00131547    0.00172092
     atom  111 type  3   force =    -0.00697916   -0.00091726    0.00015279
     atom  112 type  3   force =    -0.00675282    0.00425774   -0.00239458
     atom  113 type  3   force =     0.00390447   -0.00301906   -0.00320008
     atom  114 type  3   force =     0.00118078   -0.00124167    0.00297566
     atom  115 type  4   force =     0.00864085    0.00514002   -0.00788441
     atom  116 type  4   force =     0.00465762   -0.00228059    0.01988414
     atom  117 type  4   force =    -0.00113951    0.00409956    0.01044150
     atom  118 type  4   force =    -0.00163882   -0.00248062   -0.00898868
     atom  119 type  4   force =     0.00203858    0.00837510    0.00625836
     atom  120 type  4   force =    -0.00467962   -0.00378020   -0.01884014
     atom  121 type  4   force =     0.00994459    0.00543949   -0.00683822
     atom  122 type  4   force =     0.00702247   -0.00301557    0.00609786
     atom  123 type  4   force =     0.00203500    0.00587682   -0.00060689
     atom  124 type  4   force =     0.00293123    0.00175719    0.00505431
     atom  125 type  4   force =    -0.01306610    0.00014891    0.00326854
     atom  126 type  4   force =    -0.01470632    0.00242596   -0.00307268
     atom  127 type  4   force =     0.01245734    0.00192324   -0.00477405
     atom  128 type  4   force =    -0.00371692   -0.00466998    0.00042182
     atom  129 type  4   force =    -0.00439679    0.00263977   -0.00057347
     atom  130 type  4   force =     0.01633883   -0.00325020    0.00402977
     atom  131 type  1   force =    -0.00751445   -0.00716680   -0.00837867
     atom  132 type  2   force =     0.01574175    0.01713310   -0.01009691
     atom  133 type  1   force =     0.00580493   -0.00485604   -0.00572755
     atom  134 type  1   force =    -0.02041006    0.01932919    0.01974054
     atom  135 type  1   force =     0.00445489   -0.00764257   -0.00136504
     atom  136 type  1   force =    -0.00390948   -0.00521769   -0.00098548
     atom  137 type  3   force =    -0.03899965   -0.03831823   -0.05610933
     atom  138 type  3   force =    -0.00479033   -0.00134170   -0.00108753
     atom  139 type  3   force =     0.00271542   -0.00092784   -0.01009945
     atom  140 type  3   force =     0.02909217   -0.04950125   -0.06058024
     atom  141 type  4   force =     0.00624176    0.00350304    0.02110121
     atom  142 type  4   force =     0.00432459    0.00238384    0.01472341
     atom  143 type  4   force =    -0.00060971    0.00280717    0.01282295
     atom  144 type  4   force =     0.00018384    0.00224736    0.01640004
     atom  145 type  4   force =     0.00123974   -0.00059311    0.03926433
     atom  146 type  4   force =    -0.00549901   -0.00391621   -0.01730763
     atom  147 type  4   force =     0.00777247    0.00450002   -0.00281904
     atom  148 type  4   force =     0.00163165   -0.00736235    0.03554113
     atom  149 type  4   force =    -0.00933570    0.03911842    0.00096753
     atom  150 type  4   force =     0.00205483   -0.00052420    0.00795863
     atom  151 type  4   force =    -0.02995579    0.00089155    0.00766026
     atom  152 type  4   force =    -0.01355701    0.00141567   -0.00040712
     atom  153 type  4   force =     0.01211126    0.00364990   -0.00251096
     atom  154 type  4   force =    -0.00242962   -0.00271619    0.00248521
     atom  155 type  4   force =     0.00908943    0.02576988   -0.00261012
     atom  156 type  4   force =     0.03341575   -0.00621728    0.00604068
     atom  157 type  4   force =     0.00840788    0.00632442   -0.00301122
     atom  158 type  5   force =    -0.00717241   -0.00572236    0.00303965

     Total force =     0.237110     Total SCF correction =     0.003447
 
     init_run     :      7.48s CPU      8.22s WALL (       1 calls)
     electrons    :   1283.67s CPU   1356.50s WALL (       1 calls)
     forces       :      4.43s CPU      4.92s WALL (       1 calls)
     force_london :      0.12s CPU      0.12s WALL (       1 calls)

     Called by init_run:
     wfcinit      :      4.28s CPU      4.50s WALL (       1 calls)
     potinit      :      0.56s CPU      0.70s WALL (       1 calls)
     hinit0       :      1.48s CPU      1.58s WALL (       1 calls)

     Called by electrons:
     c_bands      :   1007.99s CPU   1044.29s WALL (      88 calls)
     sum_band     :    174.61s CPU    193.56s WALL (      88 calls)
     v_of_rho     :     22.41s CPU     24.15s WALL (      89 calls)
     newd         :     51.57s CPU     67.36s WALL (      89 calls)
     mix_rho      :     25.62s CPU     25.81s WALL (      88 calls)
     energy_londo :      0.11s CPU      0.11s WALL (       1 calls)

     Called by c_bands:
     init_us_2    :      3.35s CPU      3.42s WALL (     356 calls)
     init_us_2:cp :      3.34s CPU      3.42s WALL (     356 calls)
     regterg      :    983.75s CPU   1019.66s WALL (     180 calls)

     Called by *egterg:
     rdiaghg      :    268.61s CPU    285.62s WALL (     689 calls)
     h_psi        :    398.88s CPU    407.43s WALL (     691 calls)
     s_psi        :     78.44s CPU     78.49s WALL (     691 calls)
     g_psi        :      0.59s CPU      0.60s WALL (     509 calls)

     Called by h_psi:
     h_psi:calbec :     98.22s CPU    104.76s WALL (     691 calls)
     vloc_psi     :    221.70s CPU    222.72s WALL (     691 calls)
     add_vuspsi   :     77.89s CPU     78.86s WALL (     691 calls)

     General routines
     calbec       :    145.12s CPU    154.97s WALL (     875 calls)
     fft          :     18.15s CPU     20.45s WALL (    1615 calls)
     ffts         :     15.63s CPU     15.70s WALL (   10967 calls)
     fftw         :    244.10s CPU    245.19s WALL (  301460 calls)
     interpolate  :      1.73s CPU      1.85s WALL (     178 calls)
 
     Parallel routines
 
     PWSCF        :  21m37.66s CPU  22m52.03s WALL

 
   This run was terminated on:  19:36:30  19Nov2025            

=------------------------------------------------------------------------------=
   JOB DONE.
=------------------------------------------------------------------------------=
