
     Program PWSCF v.7.2 starts on 11Nov2025 at  2:23:42 

     This program is part of the open-source Quantum ESPRESSO suite
     for quantum simulation of materials; please cite
         "P. Giannozzi et al., J. Phys.:Condens. Matter 21 395502 (2009);
         "P. Giannozzi et al., J. Phys.:Condens. Matter 29 465901 (2017);
         "P. Giannozzi et al., J. Chem. Phys. 152 154105 (2020);
          URL http://www.quantum-espresso.org", 
     in publications or presentations arising from this work. More details at
     http://www.quantum-espresso.org/quote

     Parallel version (MPI), running on    64 processors

     MPI processes distributed on     4 nodes
     491987 MiB available memory on the printing compute node when the environment starts
 
     Reading input from ./81/H1_removed/PW.in

     Current dimensions of program PWSCF are:
     Max number of different atomic species (ntypx) = 10
     Max number of k-points (npk) =  40000
     Max angular momentum in pseudopotentials (lmaxx) =  4
     Presently no symmetry can be used with electric field

     Presently stress not available with electric field and gates

     file Ni.pbe-n-rrkjus_psl.1.0.0.UPF: wavefunction(s)  3D renormalized
     file Mn.pbe-spn-rrkjus_psl.0.3.1.UPF: wavefunction(s)  3D renormalized
     file O.pbe-rrkjus.UPF: wavefunction(s)  2S renormalized
     file H.pbe-rrkjus.UPF: wavefunction(s)  1S renormalized

     gamma-point specific algorithms are used
 
     R & G space division:  proc/nbgrp/npool/nimage =      64
     Subspace diagonalization in iterative solution of the eigenvalue problem:
     one sub-group per band group will be used
     custom distributed-memory algorithm (size of sub-group:  7*  7 procs)

 
     Parallelization info
     --------------------
     sticks:   dense  smooth     PW     G-vecs:    dense   smooth      PW
     Min         207      82     20                60552    15302    1896
     Max         210      84     22                60574    15336    1950
     Sum       13325    5345   1333              3876045   980655  122653
 
     Using Slab Decomposition
 


     bravais-lattice index     =            0
     lattice parameter (alat)  =      17.4067  a.u.
     unit-cell volume          =   20529.8182 (a.u.)^3
     number of atoms/cell      =          158
     number of atomic types    =            5
     number of electrons       =      1093.00
     number of Kohn-Sham states=          656
     kinetic-energy cutoff     =      50.0000  Ry
     charge density cutoff     =     500.0000  Ry
     scf convergence threshold =      1.0E-06
     mixing beta               =       0.1000
     number of iterations used =            8  local-TF  mixing
     energy convergence thresh.=      1.0E-04
     force convergence thresh. =      1.0E-03
     Exchange-correlation=  SLA  PW   PBE  PBE
                           (   1   4   3   4   0   0   0)
     nstep                     =         1000


     celldm(1)=  17.406729  celldm(2)=   0.000000  celldm(3)=   0.000000
     celldm(4)=   0.000000  celldm(5)=   0.000000  celldm(6)=   0.000000

     crystal axes: (cart. coord. in units of alat)
               a(1) = (   1.000000   0.000000   0.000000 )  
               a(2) = (  -0.001404   1.105696   0.000000 )  
               a(3) = (   0.000000   0.000000   3.520448 )  

     reciprocal axes: (cart. coord. in units 2 pi/alat)
               b(1) = (  1.000000  0.001270  0.000000 )  
               b(2) = (  0.000000  0.904408  0.000000 )  
               b(3) = (  0.000000  0.000000  0.284055 )  


     PseudoPot. # 1 for Ni read from file:
     ~/PSEUDO/Ni.pbe-n-rrkjus_psl.1.0.0.UPF
     MD5 check sum: Not computed, couldn't open file
     Pseudo is Ultrasoft + core correction, Zval = 10.0
     Generated using "atomic" code by A. Dal Corso  v.5.1.2
     Using radial grid of 1195 points,  6 beta functions with: 
                l(1) =   0
                l(2) =   0
                l(3) =   1
                l(4) =   1
                l(5) =   2
                l(6) =   2
     Q(r) pseudized with 0 coefficients 


     PseudoPot. # 2 for Mn read from file:
     ~/PSEUDO/Mn.pbe-spn-rrkjus_psl.0.3.1.UPF
     MD5 check sum: Not computed, couldn't open file
     Pseudo is Ultrasoft + core correction, Zval = 15.0
     Generated using &quot;atomic&quot; code by A. Dal Corso  v.6.2.2
     Using radial grid of 1187 points,  6 beta functions with: 
                l(1) =   0
                l(2) =   0
                l(3) =   1
                l(4) =   1
                l(5) =   2
                l(6) =   2
     Q(r) pseudized with 0 coefficients 


     PseudoPot. # 3 for P  read from file:
     ~/PSEUDO/P.pbe-n-rrkjus_psl.1.0.0.UPF
     MD5 check sum: Not computed, couldn't open file
     Pseudo is Ultrasoft + core correction, Zval =  5.0
     Generated using "atomic" code by A. Dal Corso  v.5.1
     Using radial grid of 1147 points,  6 beta functions with: 
                l(1) =   0
                l(2) =   0
                l(3) =   1
                l(4) =   1
                l(5) =   2
                l(6) =   2
     Q(r) pseudized with 0 coefficients 


     PseudoPot. # 4 for O  read from file:
     ~/PSEUDO/O.pbe-rrkjus.UPF
     MD5 check sum: Not computed, couldn't open file
     Pseudo is Ultrasoft, Zval =  6.0
     Generated by new atomic code, or converted to UPF format
     Using radial grid of 1269 points,  4 beta functions with: 
                l(1) =   0
                l(2) =   0
                l(3) =   1
                l(4) =   1
     Q(r) pseudized with 0 coefficients 


     PseudoPot. # 5 for H  read from file:
     ~/PSEUDO/H.pbe-rrkjus.UPF
     MD5 check sum: Not computed, couldn't open file
     Pseudo is Ultrasoft, Zval =  1.0
     Generated by new atomic code, or converted to UPF format
     Using radial grid of 1061 points,  2 beta functions with: 
                l(1) =   0
                l(2) =   0
     Q(r) pseudized with 0 coefficients 


     atomic species   valence    mass     pseudopotential
     Ni               10.00    58.69300     Ni( 1.00)
     Mn               15.00    54.93800     Mn( 1.00)
     P                 5.00    30.97300     P ( 1.00)
     O                 6.00    15.99900     O ( 1.00)
     H                 1.00     1.00790     H ( 1.00)

     Starting magnetic structure 
     atomic species   magnetization
     Ni              1.000
     Mn              1.000
     P               1.000
     O               1.000
     H               0.000

     No symmetry found



   Cartesian axes

     site n.     atom                  positions (alat units)
         1        Ni     tau(   1) = (   0.2421002   0.8609138   1.7639572  )
         2        Mn     tau(   2) = (   0.4924481   0.7886602   1.4286360  )
         3        Ni     tau(   3) = (   0.0052341   0.3031820   1.7657208  )
         4        Ni     tau(   4) = (   0.2570603   0.2374878   1.4323851  )
         5        Ni     tau(   5) = (   0.4976584   1.1048203   1.5977343  )
         6        Ni     tau(   6) = (   0.2495781   0.5440308   1.5987947  )
         7        P      tau(   7) = (   0.2083492   0.9982113   1.4353607  )
         8        P      tau(   8) = (   0.4584476   0.6559264   1.7594663  )
         9        P      tau(   9) = (   0.2889394   0.1031966   1.7622405  )
        10        P      tau(  10) = (   0.0400379   0.4338094   1.4355470  )
        11        O      tau(  11) = (   0.1314218   0.9248062   1.5751781  )
        12        O      tau(  12) = (   0.3797244   0.7272031   1.6198878  )
        13        O      tau(  13) = (   0.3662315   0.1762062   1.6220864  )
        14        O      tau(  14) = (   0.1171240   0.3646150   1.5772412  )
        15        O      tau(  15) = (   0.1510364   0.9068326   1.3059819  )
        16        O      tau(  16) = (   0.3981989   0.7453439   1.8888257  )
        17        O      tau(  17) = (   0.3490561   0.1888693   1.8930896  )
        18        O      tau(  18) = (   0.0982395   0.3475583   1.3047310  )
        19        O      tau(  19) = (   0.0992163   0.5918099   1.4399248  )
        20        O      tau(  20) = (   0.3467441   1.0504690   1.7536753  )
        21        O      tau(  21) = (   0.3739183   0.4303319   1.4463782  )
        22        O      tau(  22) = (   0.1230967   0.1088895   1.7518793  )
        23        O      tau(  23) = (   0.1242901   0.6635968   1.7498824  )
        24        O      tau(  24) = (   0.4011802   0.4971632   1.7565472  )
        25        O      tau(  25) = (   0.1484006   0.0497464   1.4390787  )
        26        O      tau(  26) = (   0.3736100   0.9942556   1.4449594  )
        27        Ni     tau(  27) = (   0.2413539   0.8509941   1.1121345  )
        28        Mn     tau(  28) = (   0.4917018   0.7787406   0.7768134  )
        29        Ni     tau(  29) = (   0.0044877   0.2932623   1.1138982  )
        30        Ni     tau(  30) = (   0.2563139   0.2275682   0.7805625  )
        31        Ni     tau(  31) = (   0.4969120   1.0949007   0.9459116  )
        32        Ni     tau(  32) = (   0.2488318   0.5341111   0.9469721  )
        33        P      tau(  33) = (   0.2076029   0.9882917   0.7835381  )
        34        P      tau(  34) = (   0.4577012   0.6460068   1.1076436  )
        35        P      tau(  35) = (   0.2881931   0.0932770   1.1104179  )
        36        P      tau(  36) = (   0.0392916   0.4238898   0.7837243  )
        37        O      tau(  37) = (   0.1306755   0.9148866   0.9233554  )
        38        O      tau(  38) = (   0.3789780   0.7172835   0.9680652  )
        39        O      tau(  39) = (   0.3654852   0.1662865   0.9702638  )
        40        O      tau(  40) = (   0.1163776   0.3546954   0.9254186  )
        41        O      tau(  41) = (   0.1502901   0.8969129   0.6541592  )
        42        O      tau(  42) = (   0.3974525   0.7354243   1.2370031  )
        43        O      tau(  43) = (   0.3483097   0.1789497   1.2412670  )
        44        O      tau(  44) = (   0.0974932   0.3376387   0.6529083  )
        45        O      tau(  45) = (   0.0984699   0.5818903   0.7881021  )
        46        O      tau(  46) = (   0.3459978   1.0405493   1.1018526  )
        47        O      tau(  47) = (   0.3731719   0.4204123   0.7945555  )
        48        O      tau(  48) = (   0.1223503   0.0989699   1.1000566  )
        49        O      tau(  49) = (   0.1235438   0.6536772   1.0980598  )
        50        O      tau(  50) = (   0.4004339   0.4872435   1.1047245  )
        51        O      tau(  51) = (   0.1476543   0.0398268   0.7872561  )
        52        O      tau(  52) = (   0.3728637   0.9843360   0.7931368  )
        53        Ni     tau(  53) = (   0.2406075   0.8410745   0.4603118  )
        54        Mn     tau(  54) = (   0.4909555   0.7688210   0.1249907  )
        55        Ni     tau(  55) = (   0.0037414   0.2833427   0.4620755  )
        56        Ni     tau(  56) = (   0.2555676   0.2176485   0.1287398  )
        57        Ni     tau(  57) = (   0.4961657   1.0849810   0.2940889  )
        58        Ni     tau(  58) = (   0.2480854   0.5241915   0.2951494  )
        59        P      tau(  59) = (   0.2068565   0.9783721   0.1317154  )
        60        P      tau(  60) = (   0.4569549   0.6360871   0.4558210  )
        61        P      tau(  61) = (   0.2874467   0.0833574   0.4585952  )
        62        P      tau(  62) = (   0.0385452   0.4139702   0.1319017  )
        63        O      tau(  63) = (   0.1299291   0.9049669   0.2715327  )
        64        O      tau(  64) = (   0.3782317   0.7073639   0.3162425  )
        65        O      tau(  65) = (   0.3647389   0.1563669   0.3184411  )
        66        O      tau(  66) = (   0.1156313   0.3447757   0.2735959  )
        67        O      tau(  67) = (   0.1495437   0.8869933   0.0023366  )
        68        O      tau(  68) = (   0.3967062   0.7255047   0.5851804  )
        69        O      tau(  69) = (   0.3475634   0.1690300   0.5894443  )
        70        O      tau(  70) = (   0.0967469   0.3277190   0.0010856  )
        71        O      tau(  71) = (   0.0977236   0.5719706   0.1362794  )
        72        O      tau(  72) = (   0.3452514   1.0306297   0.4500300  )
        73        O      tau(  73) = (   0.3724256   0.4104926   0.1427328  )
        74        O      tau(  74) = (   0.1216040   0.0890503   0.4482339  )
        75        O      tau(  75) = (   0.1227974   0.6437575   0.4462371  )
        76        O      tau(  76) = (   0.3996875   0.4773239   0.4529018  )
        77        O      tau(  77) = (   0.1469079   0.0299071   0.1354334  )
        78        O      tau(  78) = (   0.3721173   0.9744163   0.1413141  )
        79        Ni     tau(  79) = (   0.7421002   0.8609138   1.7639572  )
        80        Mn     tau(  80) = (   0.9924481   0.7886602   1.4286360  )
        81        Ni     tau(  81) = (   0.5052341   0.3031820   1.7657208  )
        82        Ni     tau(  82) = (   0.7570603   0.2374878   1.4323851  )
        83        Ni     tau(  83) = (   0.9976584   1.1048203   1.5977343  )
        84        Ni     tau(  84) = (   0.7495781   0.5440308   1.5987947  )
        85        P      tau(  85) = (   0.7083492   0.9982113   1.4353607  )
        86        P      tau(  86) = (   0.9584476   0.6559264   1.7594663  )
        87        P      tau(  87) = (   0.7889394   0.1031966   1.7622405  )
        88        P      tau(  88) = (   0.5400379   0.4338094   1.4355470  )
        89        O      tau(  89) = (   0.6314218   0.9248062   1.5751781  )
        90        O      tau(  90) = (   0.8797244   0.7272031   1.6198878  )
        91        O      tau(  91) = (   0.8662315   0.1762062   1.6220864  )
        92        O      tau(  92) = (   0.6171240   0.3646150   1.5772412  )
        93        O      tau(  93) = (   0.6510364   0.9068326   1.3059819  )
        94        O      tau(  94) = (   0.8981989   0.7453439   1.8888257  )
        95        O      tau(  95) = (   0.8490561   0.1888693   1.8930896  )
        96        O      tau(  96) = (   0.5982395   0.3475583   1.3047310  )
        97        O      tau(  97) = (   0.5992163   0.5918099   1.4399248  )
        98        O      tau(  98) = (   0.8467441   1.0504690   1.7536753  )
        99        O      tau(  99) = (   0.8739183   0.4303319   1.4463782  )
       100        O      tau( 100) = (   0.6230967   0.1088895   1.7518793  )
       101        O      tau( 101) = (   0.6242901   0.6635968   1.7498824  )
       102        O      tau( 102) = (   0.9011802   0.4971632   1.7565472  )
       103        O      tau( 103) = (   0.6484006   0.0497464   1.4390787  )
       104        O      tau( 104) = (   0.8736100   0.9942556   1.4449594  )
       105        Ni     tau( 105) = (   0.7413539   0.8509941   1.1121345  )
       106        Mn     tau( 106) = (   0.9917018   0.7787406   0.7768134  )
       107        Ni     tau( 107) = (   0.5044877   0.2932623   1.1138982  )
       108        Ni     tau( 108) = (   0.7563139   0.2275682   0.7805625  )
       109        Ni     tau( 109) = (   0.9969120   1.0949007   0.9459116  )
       110        Ni     tau( 110) = (   0.7488318   0.5341111   0.9469721  )
       111        P      tau( 111) = (   0.7076029   0.9882917   0.7835381  )
       112        P      tau( 112) = (   0.9577012   0.6460068   1.1076436  )
       113        P      tau( 113) = (   0.7881931   0.0932770   1.1104179  )
       114        P      tau( 114) = (   0.5392916   0.4238898   0.7837243  )
       115        O      tau( 115) = (   0.6306755   0.9148866   0.9233554  )
       116        O      tau( 116) = (   0.8789780   0.7172835   0.9680652  )
       117        O      tau( 117) = (   0.8654852   0.1662865   0.9702638  )
       118        O      tau( 118) = (   0.6163776   0.3546954   0.9254186  )
       119        O      tau( 119) = (   0.6502901   0.8969129   0.6541592  )
       120        O      tau( 120) = (   0.8974525   0.7354243   1.2370031  )
       121        O      tau( 121) = (   0.8483097   0.1789497   1.2412670  )
       122        O      tau( 122) = (   0.5974932   0.3376387   0.6529083  )
       123        O      tau( 123) = (   0.5984699   0.5818903   0.7881021  )
       124        O      tau( 124) = (   0.8459978   1.0405493   1.1018526  )
       125        O      tau( 125) = (   0.8731719   0.4204123   0.7945555  )
       126        O      tau( 126) = (   0.6223503   0.0989699   1.1000566  )
       127        O      tau( 127) = (   0.6235438   0.6536772   1.0980598  )
       128        O      tau( 128) = (   0.9004339   0.4872435   1.1047245  )
       129        O      tau( 129) = (   0.6476543   0.0398268   0.7872561  )
       130        O      tau( 130) = (   0.8728637   0.9843360   0.7931368  )
       131        Ni     tau( 131) = (   0.7406075   0.8410745   0.4603118  )
       132        Mn     tau( 132) = (   0.9909555   0.7688210   0.1249907  )
       133        Ni     tau( 133) = (   0.5037414   0.2833427   0.4620755  )
       134        Ni     tau( 134) = (   0.7555676   0.2176485   0.1287398  )
       135        Ni     tau( 135) = (   0.9961657   1.0849810   0.2940889  )
       136        Ni     tau( 136) = (   0.7480854   0.5241915   0.2951494  )
       137        P      tau( 137) = (   0.7068565   0.9783721   0.1317154  )
       138        P      tau( 138) = (   0.9569549   0.6360871   0.4558210  )
       139        P      tau( 139) = (   0.7874467   0.0833574   0.4585952  )
       140        P      tau( 140) = (   0.5385452   0.4139702   0.1319017  )
       141        O      tau( 141) = (   0.6299291   0.9049669   0.2715327  )
       142        O      tau( 142) = (   0.8782317   0.7073639   0.3162425  )
       143        O      tau( 143) = (   0.8647389   0.1563669   0.3184411  )
       144        O      tau( 144) = (   0.6156313   0.3447757   0.2735959  )
       145        O      tau( 145) = (   0.6495437   0.8869933   0.0023366  )
       146        O      tau( 146) = (   0.8967062   0.7255047   0.5851804  )
       147        O      tau( 147) = (   0.8475634   0.1690300   0.5894443  )
       148        O      tau( 148) = (   0.5967469   0.3277190   0.0010856  )
       149        O      tau( 149) = (   0.5977236   0.5719706   0.1362794  )
       150        O      tau( 150) = (   0.8452514   1.0306297   0.4500300  )
       151        O      tau( 151) = (   0.8724256   0.4104926   0.1427328  )
       152        O      tau( 152) = (   0.6216040   0.0890503   0.4482339  )
       153        O      tau( 153) = (   0.6227974   0.6437575   0.4462371  )
       154        O      tau( 154) = (   0.8996875   0.4773239   0.4529018  )
       155        O      tau( 155) = (   0.6469079   0.0299071   0.1354334  )
       156        O      tau( 156) = (   0.8721173   0.9744163   0.1413141  )
       157        O      tau( 157) = (   0.6518854   0.3845740   1.9150900  )
       158        H      tau( 158) = (   0.7340853   0.3275311   1.9119734  )

     -------------------------------------------------
     Parameters for Dispersion (Grimme-D2) Correction:
     -------------------------------------------------
       atom      VdW radius       C_6     

        Ni         2.952        374.666
        Mn         2.952        374.666
        P          3.222        271.980
        O          2.536         24.284
        H          1.892          4.857

     number of k points=     1  Gaussian smearing, width (Ry)=  0.0100
                       cart. coord. in units 2pi/alat
        k(    1) = (   0.0000000   0.0000000   0.0000000), wk =   1.0000000

     Dense  grid:  1938023 G-vectors     FFT dimensions: ( 125, 144, 450)

     Smooth grid:   490328 G-vectors     FFT dimensions: (  80,  90, 288)

     Estimated max dynamical RAM per process >     326.29 MB

     Estimated total dynamical RAM >      20.39 GB

     Check: negative core charge=   -0.000001
     Generating pointlists ...
     new r_m :   0.0894 (alat units)  1.5564 (a.u.) for type    1
     new r_m :   0.0909 (alat units)  1.5826 (a.u.) for type    2
     new r_m :   0.0683 (alat units)  1.1890 (a.u.) for type    3
     new r_m :   0.0413 (alat units)  0.7188 (a.u.) for type    4
     new r_m :   0.0413 (alat units)  0.7188 (a.u.) for type    5

     Initial potential from superposition of free atoms

     starting charge    1092.8893, renormalised to    1093.0000

     negative rho (up, down):  1.420E-03 4.528E-04
 
     Adding external electric field

     Computed dipole along edir(3) : 
        Dipole                1.6101 Ry au,          4.0925 Debye
        Dipole field          0.0010 Ry au, 
 
        Potential amp.       -0.1087 Ry
        Total length         55.1515 bohr
 
 
     Adding external electric field

     Computed dipole along edir(3) : 
        Dipole                1.6101 Ry au,          4.0925 Debye
        Dipole field          0.0010 Ry au, 
 
        Potential amp.       -0.1087 Ry
        Total length         55.1515 bohr
 
     Starting wfcs are  815 randomized atomic wfcs

     total cpu time spent up to now is       11.3 secs

     Self-consistent Calculation

     iteration #  1     ecut=    50.00 Ry     beta= 0.10
     Davidson diagonalization with overlap
     ethr =  1.00E-02,  avg # of iterations =  6.0

     negative rho (up, down):  3.535E-01 8.497E-07
 
     Adding external electric field

     Computed dipole along edir(3) : 
        Dipole               -3.6879 Ry au,         -9.3737 Debye
        Dipole field         -0.0023 Ry au, 
 
        Potential amp.        0.2490 Ry
        Total length         55.1515 bohr
 
 
     Adding external electric field

     Computed dipole along edir(3) : 
        Dipole               -3.6879 Ry au,         -9.3737 Debye
        Dipole field         -0.0023 Ry au, 
 
        Potential amp.        0.2490 Ry
        Total length         55.1515 bohr
 

     total cpu time spent up to now is       41.9 secs

     total energy              =   -7518.09378431 Ry
     estimated scf accuracy    <     789.69957461 Ry

     total magnetization       =   219.00 Bohr mag/cell
     absolute magnetization    =   305.80 Bohr mag/cell

     iteration #  2     ecut=    50.00 Ry     beta= 0.10
     Davidson diagonalization with overlap
     ethr =  1.00E-02,  avg # of iterations =  2.0

     negative rho (up, down):  3.369E-01 5.008E-07
 
     Adding external electric field

     Computed dipole along edir(3) : 
        Dipole               -2.4689 Ry au,         -6.2752 Debye
        Dipole field         -0.0015 Ry au, 
 
        Potential amp.        0.1667 Ry
        Total length         55.1515 bohr
 
 
     Adding external electric field

     Computed dipole along edir(3) : 
        Dipole               -2.4689 Ry au,         -6.2752 Debye
        Dipole field         -0.0015 Ry au, 
 
        Potential amp.        0.1667 Ry
        Total length         55.1515 bohr
 

     total cpu time spent up to now is       59.3 secs

     total energy              =   -7600.29067686 Ry
     estimated scf accuracy    <     214.97018218 Ry

     total magnetization       =   160.17 Bohr mag/cell
     absolute magnetization    =   209.19 Bohr mag/cell

     iteration #  3     ecut=    50.00 Ry     beta= 0.10
     Davidson diagonalization with overlap
     ethr =  1.00E-02,  avg # of iterations =  1.5

     negative rho (up, down):  3.010E-01 4.171E-07
 
     Adding external electric field

     Computed dipole along edir(3) : 
        Dipole               -2.1699 Ry au,         -5.5152 Debye
        Dipole field         -0.0013 Ry au, 
 
        Potential amp.        0.1465 Ry
        Total length         55.1515 bohr
 
 
     Adding external electric field

     Computed dipole along edir(3) : 
        Dipole               -2.1699 Ry au,         -5.5152 Debye
        Dipole field         -0.0013 Ry au, 
 
        Potential amp.        0.1465 Ry
        Total length         55.1515 bohr
 

     total cpu time spent up to now is       73.0 secs

     total energy              =   -7629.19120382 Ry
     estimated scf accuracy    <     101.49033096 Ry

     total magnetization       =   136.12 Bohr mag/cell
     absolute magnetization    =   187.77 Bohr mag/cell

     iteration #  4     ecut=    50.00 Ry     beta= 0.10
     Davidson diagonalization with overlap
     ethr =  9.29E-03,  avg # of iterations =  1.5

     negative rho (up, down):  2.343E-01 9.161E-08
 
     Adding external electric field

     Computed dipole along edir(3) : 
        Dipole               -1.9773 Ry au,         -5.0259 Debye
        Dipole field         -0.0012 Ry au, 
 
        Potential amp.        0.1335 Ry
        Total length         55.1515 bohr
 
 
     Adding external electric field

     Computed dipole along edir(3) : 
        Dipole               -1.9773 Ry au,         -5.0259 Debye
        Dipole field         -0.0012 Ry au, 
 
        Potential amp.        0.1335 Ry
        Total length         55.1515 bohr
 

     total cpu time spent up to now is       87.1 secs

     total energy              =   -7662.95907234 Ry
     estimated scf accuracy    <      82.84190508 Ry

     total magnetization       =   120.34 Bohr mag/cell
     absolute magnetization    =   173.45 Bohr mag/cell

     iteration #  5     ecut=    50.00 Ry     beta= 0.10
     Davidson diagonalization with overlap
     ethr =  7.58E-03,  avg # of iterations =  1.0

     negative rho (up, down):  2.630E-02 5.901E-08
 
     Adding external electric field

     Computed dipole along edir(3) : 
        Dipole               -1.5866 Ry au,         -4.0328 Debye
        Dipole field         -0.0010 Ry au, 
 
        Potential amp.        0.1071 Ry
        Total length         55.1515 bohr
 
 
     Adding external electric field

     Computed dipole along edir(3) : 
        Dipole               -1.5866 Ry au,         -4.0328 Debye
        Dipole field         -0.0010 Ry au, 
 
        Potential amp.        0.1071 Ry
        Total length         55.1515 bohr
 

     total cpu time spent up to now is       99.9 secs

     total energy              =   -7722.47448693 Ry
     estimated scf accuracy    <      65.84151878 Ry

     total magnetization       =    97.41 Bohr mag/cell
     absolute magnetization    =   154.09 Bohr mag/cell

     iteration #  6     ecut=    50.00 Ry     beta= 0.10
     Davidson diagonalization with overlap
     ethr =  6.02E-03,  avg # of iterations =  1.5

     negative rho (up, down):  8.612E-04 1.117E-03
 
     Adding external electric field

     Computed dipole along edir(3) : 
        Dipole               -1.3160 Ry au,         -3.3450 Debye
        Dipole field         -0.0008 Ry au, 
 
        Potential amp.        0.0889 Ry
        Total length         55.1515 bohr
 
 
     Adding external electric field

     Computed dipole along edir(3) : 
        Dipole               -1.3160 Ry au,         -3.3450 Debye
        Dipole field         -0.0008 Ry au, 
 
        Potential amp.        0.0889 Ry
        Total length         55.1515 bohr
 

     total cpu time spent up to now is      113.7 secs

     total energy              =   -7735.51051672 Ry
     estimated scf accuracy    <      14.65735683 Ry

     total magnetization       =    91.00 Bohr mag/cell
     absolute magnetization    =   126.14 Bohr mag/cell

     iteration #  7     ecut=    50.00 Ry     beta= 0.10
     Davidson diagonalization with overlap
     ethr =  1.34E-03,  avg # of iterations =  6.5

     negative rho (up, down):  8.583E-04 1.100E-03
 
     Adding external electric field

     Computed dipole along edir(3) : 
        Dipole               -1.3175 Ry au,         -3.3487 Debye
        Dipole field         -0.0008 Ry au, 
 
        Potential amp.        0.0890 Ry
        Total length         55.1515 bohr
 
 
     Adding external electric field

     Computed dipole along edir(3) : 
        Dipole               -1.3175 Ry au,         -3.3487 Debye
        Dipole field         -0.0008 Ry au, 
 
        Potential amp.        0.0890 Ry
        Total length         55.1515 bohr
 

     total cpu time spent up to now is      137.3 secs

     total energy              =   -7738.27532759 Ry
     estimated scf accuracy    <      22.94691445 Ry

     total magnetization       =    69.52 Bohr mag/cell
     absolute magnetization    =    86.75 Bohr mag/cell

     iteration #  8     ecut=    50.00 Ry     beta= 0.10
     Davidson diagonalization with overlap
     ethr =  1.34E-03,  avg # of iterations =  1.0

     negative rho (up, down):  8.683E-04 1.114E-03
 
     Adding external electric field

     Computed dipole along edir(3) : 
        Dipole               -1.3331 Ry au,         -3.3883 Debye
        Dipole field         -0.0008 Ry au, 
 
        Potential amp.        0.0900 Ry
        Total length         55.1515 bohr
 
 
     Adding external electric field

     Computed dipole along edir(3) : 
        Dipole               -1.3331 Ry au,         -3.3883 Debye
        Dipole field         -0.0008 Ry au, 
 
        Potential amp.        0.0900 Ry
        Total length         55.1515 bohr
 

     total cpu time spent up to now is      149.9 secs

     total energy              =   -7738.32156917 Ry
     estimated scf accuracy    <      22.34920435 Ry

     total magnetization       =    69.82 Bohr mag/cell
     absolute magnetization    =    86.71 Bohr mag/cell

     iteration #  9     ecut=    50.00 Ry     beta= 0.10
     Davidson diagonalization with overlap
     ethr =  1.34E-03,  avg # of iterations =  1.0

     negative rho (up, down):  1.316E-03 1.171E-03
 
     Adding external electric field

     Computed dipole along edir(3) : 
        Dipole               -1.1580 Ry au,         -2.9434 Debye
        Dipole field         -0.0007 Ry au, 
 
        Potential amp.        0.0782 Ry
        Total length         55.1515 bohr
 
 
     Adding external electric field

     Computed dipole along edir(3) : 
        Dipole               -1.1580 Ry au,         -2.9434 Debye
        Dipole field         -0.0007 Ry au, 
 
        Potential amp.        0.0782 Ry
        Total length         55.1515 bohr
 

     total cpu time spent up to now is      162.4 secs

     total energy              =   -7738.20852643 Ry
     estimated scf accuracy    <      22.60169567 Ry

     total magnetization       =    69.70 Bohr mag/cell
     absolute magnetization    =    86.32 Bohr mag/cell

     iteration # 10     ecut=    50.00 Ry     beta= 0.10
     Davidson diagonalization with overlap
     ethr =  1.34E-03,  avg # of iterations =  1.0

     negative rho (up, down):  5.734E-02 5.421E-02
 
     Adding external electric field

     Computed dipole along edir(3) : 
        Dipole               -0.5781 Ry au,         -1.4693 Debye
        Dipole field         -0.0004 Ry au, 
 
        Potential amp.        0.0390 Ry
        Total length         55.1515 bohr
 
 
     Adding external electric field

     Computed dipole along edir(3) : 
        Dipole               -0.5781 Ry au,         -1.4693 Debye
        Dipole field         -0.0004 Ry au, 
 
        Potential amp.        0.0390 Ry
        Total length         55.1515 bohr
 

     total cpu time spent up to now is      174.4 secs

     total energy              =   -7737.96510951 Ry
     estimated scf accuracy    <      19.50335640 Ry

     total magnetization       =    70.92 Bohr mag/cell
     absolute magnetization    =    86.88 Bohr mag/cell

     iteration # 11     ecut=    50.00 Ry     beta= 0.10
     Davidson diagonalization with overlap
     ethr =  1.34E-03,  avg # of iterations =  1.0

     negative rho (up, down):  8.707E-03 8.657E-03
 
     Adding external electric field

     Computed dipole along edir(3) : 
        Dipole               -0.9085 Ry au,         -2.3092 Debye
        Dipole field         -0.0006 Ry au, 
 
        Potential amp.        0.0613 Ry
        Total length         55.1515 bohr
 
 
     Adding external electric field

     Computed dipole along edir(3) : 
        Dipole               -0.9085 Ry au,         -2.3092 Debye
        Dipole field         -0.0006 Ry au, 
 
        Potential amp.        0.0613 Ry
        Total length         55.1515 bohr
 

     total cpu time spent up to now is      186.9 secs

     total energy              =   -7738.14247499 Ry
     estimated scf accuracy    <      14.78823184 Ry

     total magnetization       =    75.52 Bohr mag/cell
     absolute magnetization    =    89.28 Bohr mag/cell

     iteration # 12     ecut=    50.00 Ry     beta= 0.10
     Davidson diagonalization with overlap
     ethr =  1.34E-03,  avg # of iterations =  1.0

     negative rho (up, down):  9.008E-03 9.085E-03
 
     Adding external electric field

     Computed dipole along edir(3) : 
        Dipole               -0.9015 Ry au,         -2.2914 Debye
        Dipole field         -0.0006 Ry au, 
 
        Potential amp.        0.0609 Ry
        Total length         55.1515 bohr
 
 
     Adding external electric field

     Computed dipole along edir(3) : 
        Dipole               -0.9015 Ry au,         -2.2914 Debye
        Dipole field         -0.0006 Ry au, 
 
        Potential amp.        0.0609 Ry
        Total length         55.1515 bohr
 

     total cpu time spent up to now is      198.9 secs

     total energy              =   -7738.23871178 Ry
     estimated scf accuracy    <      19.43878108 Ry

     total magnetization       =    70.59 Bohr mag/cell
     absolute magnetization    =    85.35 Bohr mag/cell

     iteration # 13     ecut=    50.00 Ry     beta= 0.10
     Davidson diagonalization with overlap
     ethr =  1.34E-03,  avg # of iterations =  1.0

     negative rho (up, down):  3.971E-02 4.076E-02
 
     Adding external electric field

     Computed dipole along edir(3) : 
        Dipole               -0.5501 Ry au,         -1.3983 Debye
        Dipole field         -0.0003 Ry au, 
 
        Potential amp.        0.0371 Ry
        Total length         55.1515 bohr
 
 
     Adding external electric field

     Computed dipole along edir(3) : 
        Dipole               -0.5501 Ry au,         -1.3983 Debye
        Dipole field         -0.0003 Ry au, 
 
        Potential amp.        0.0371 Ry
        Total length         55.1515 bohr
 

     total cpu time spent up to now is      210.5 secs

     total energy              =   -7738.21491952 Ry
     estimated scf accuracy    <      19.52447836 Ry

     total magnetization       =    70.57 Bohr mag/cell
     absolute magnetization    =    85.36 Bohr mag/cell

     iteration # 14     ecut=    50.00 Ry     beta= 0.10
     Davidson diagonalization with overlap
     ethr =  1.34E-03,  avg # of iterations =  1.0

     negative rho (up, down):  1.268E-01 1.075E-01
 
     Adding external electric field

     Computed dipole along edir(3) : 
        Dipole               -0.7938 Ry au,         -2.0176 Debye
        Dipole field         -0.0005 Ry au, 
 
        Potential amp.        0.0536 Ry
        Total length         55.1515 bohr
 
 
     Adding external electric field

     Computed dipole along edir(3) : 
        Dipole               -0.7938 Ry au,         -2.0176 Debye
        Dipole field         -0.0005 Ry au, 
 
        Potential amp.        0.0536 Ry
        Total length         55.1515 bohr
 

     total cpu time spent up to now is      222.8 secs

     total energy              =   -7737.19194568 Ry
     estimated scf accuracy    <      22.49806120 Ry

     total magnetization       =    69.66 Bohr mag/cell
     absolute magnetization    =    84.30 Bohr mag/cell

     iteration # 15     ecut=    50.00 Ry     beta= 0.10
     Davidson diagonalization with overlap
     ethr =  1.34E-03,  avg # of iterations =  1.0

     negative rho (up, down):  1.069E-01 9.336E-02
 
     Adding external electric field

     Computed dipole along edir(3) : 
        Dipole               -1.1423 Ry au,         -2.9035 Debye
        Dipole field         -0.0007 Ry au, 
 
        Potential amp.        0.0771 Ry
        Total length         55.1515 bohr
 
 
     Adding external electric field

     Computed dipole along edir(3) : 
        Dipole               -1.1423 Ry au,         -2.9035 Debye
        Dipole field         -0.0007 Ry au, 
 
        Potential amp.        0.0771 Ry
        Total length         55.1515 bohr
 

     total cpu time spent up to now is      234.9 secs

     total energy              =   -7737.93762912 Ry
     estimated scf accuracy    <       5.14286256 Ry

     total magnetization       =    86.97 Bohr mag/cell
     absolute magnetization    =    98.17 Bohr mag/cell

     iteration # 16     ecut=    50.00 Ry     beta= 0.10
     Davidson diagonalization with overlap
     ethr =  4.71E-04,  avg # of iterations =  1.5

     negative rho (up, down):  5.865E-02 5.236E-02
 
     Adding external electric field

     Computed dipole along edir(3) : 
        Dipole               -1.8936 Ry au,         -4.8131 Debye
        Dipole field         -0.0012 Ry au, 
 
        Potential amp.        0.1279 Ry
        Total length         55.1515 bohr
 
 
     Adding external electric field

     Computed dipole along edir(3) : 
        Dipole               -1.8936 Ry au,         -4.8131 Debye
        Dipole field         -0.0012 Ry au, 
 
        Potential amp.        0.1279 Ry
        Total length         55.1515 bohr
 

     total cpu time spent up to now is      247.2 secs

     total energy              =   -7737.96463973 Ry
     estimated scf accuracy    <       3.09683661 Ry

     total magnetization       =    88.01 Bohr mag/cell
     absolute magnetization    =    98.03 Bohr mag/cell

     iteration # 17     ecut=    50.00 Ry     beta= 0.10
     Davidson diagonalization with overlap
     ethr =  2.83E-04,  avg # of iterations =  2.5

     negative rho (up, down):  5.979E-02 5.363E-02
 
     Adding external electric field

     Computed dipole along edir(3) : 
        Dipole               -1.4934 Ry au,         -3.7959 Debye
        Dipole field         -0.0009 Ry au, 
 
        Potential amp.        0.1008 Ry
        Total length         55.1515 bohr
 
 
     Adding external electric field

     Computed dipole along edir(3) : 
        Dipole               -1.4934 Ry au,         -3.7959 Debye
        Dipole field         -0.0009 Ry au, 
 
        Potential amp.        0.1008 Ry
        Total length         55.1515 bohr
 

     total cpu time spent up to now is      260.6 secs

     total energy              =   -7737.99598517 Ry
     estimated scf accuracy    <       6.43236569 Ry

     total magnetization       =    83.56 Bohr mag/cell
     absolute magnetization    =    92.67 Bohr mag/cell

     iteration # 18     ecut=    50.00 Ry     beta= 0.10
     Davidson diagonalization with overlap
     ethr =  2.83E-04,  avg # of iterations =  1.5

     negative rho (up, down):  5.003E-02 4.630E-02
 
     Adding external electric field

     Computed dipole along edir(3) : 
        Dipole               -1.3990 Ry au,         -3.5559 Debye
        Dipole field         -0.0009 Ry au, 
 
        Potential amp.        0.0945 Ry
        Total length         55.1515 bohr
 
 
     Adding external electric field

     Computed dipole along edir(3) : 
        Dipole               -1.3990 Ry au,         -3.5559 Debye
        Dipole field         -0.0009 Ry au, 
 
        Potential amp.        0.0945 Ry
        Total length         55.1515 bohr
 

     total cpu time spent up to now is      274.0 secs

     total energy              =   -7738.08924029 Ry
     estimated scf accuracy    <       1.31056594 Ry

     total magnetization       =    89.67 Bohr mag/cell
     absolute magnetization    =    96.48 Bohr mag/cell

     iteration # 19     ecut=    50.00 Ry     beta= 0.10
     Davidson diagonalization with overlap
     c_bands:  1 eigenvalues not converged
     ethr =  1.20E-04,  avg # of iterations = 11.0

     negative rho (up, down):  3.906E-02 3.676E-02
 
     Adding external electric field

     Computed dipole along edir(3) : 
        Dipole               -1.4183 Ry au,         -3.6050 Debye
        Dipole field         -0.0009 Ry au, 
 
        Potential amp.        0.0958 Ry
        Total length         55.1515 bohr
 
 
     Adding external electric field

     Computed dipole along edir(3) : 
        Dipole               -1.4183 Ry au,         -3.6050 Debye
        Dipole field         -0.0009 Ry au, 
 
        Potential amp.        0.0958 Ry
        Total length         55.1515 bohr
 

     total cpu time spent up to now is      296.0 secs

     total energy              =   -7738.11875095 Ry
     estimated scf accuracy    <       0.66556014 Ry

     total magnetization       =    90.45 Bohr mag/cell
     absolute magnetization    =    95.75 Bohr mag/cell

     iteration # 20     ecut=    50.00 Ry     beta= 0.10
     Davidson diagonalization with overlap
     ethr =  6.09E-05,  avg # of iterations =  2.0

     negative rho (up, down):  2.395E-02 2.521E-02
 
     Adding external electric field

     Computed dipole along edir(3) : 
        Dipole               -1.6575 Ry au,         -4.2130 Debye
        Dipole field         -0.0010 Ry au, 
 
        Potential amp.        0.1119 Ry
        Total length         55.1515 bohr
 
 
     Adding external electric field

     Computed dipole along edir(3) : 
        Dipole               -1.6575 Ry au,         -4.2130 Debye
        Dipole field         -0.0010 Ry au, 
 
        Potential amp.        0.1119 Ry
        Total length         55.1515 bohr
 

     total cpu time spent up to now is      311.0 secs

     total energy              =   -7738.09298657 Ry
     estimated scf accuracy    <       0.51049034 Ry

     total magnetization       =    89.70 Bohr mag/cell
     absolute magnetization    =    94.99 Bohr mag/cell

     iteration # 21     ecut=    50.00 Ry     beta= 0.10
     Davidson diagonalization with overlap
     ethr =  4.67E-05,  avg # of iterations =  1.5

     negative rho (up, down):  1.031E-02 1.197E-02
 
     Adding external electric field

     Computed dipole along edir(3) : 
        Dipole               -1.7453 Ry au,         -4.4360 Debye
        Dipole field         -0.0011 Ry au, 
 
        Potential amp.        0.1178 Ry
        Total length         55.1515 bohr
 
 
     Adding external electric field

     Computed dipole along edir(3) : 
        Dipole               -1.7453 Ry au,         -4.4360 Debye
        Dipole field         -0.0011 Ry au, 
 
        Potential amp.        0.1178 Ry
        Total length         55.1515 bohr
 

     total cpu time spent up to now is      325.1 secs

     total energy              =   -7738.11595878 Ry
     estimated scf accuracy    <       0.40461563 Ry

     total magnetization       =    88.07 Bohr mag/cell
     absolute magnetization    =    92.69 Bohr mag/cell

     iteration # 22     ecut=    50.00 Ry     beta= 0.10
     Davidson diagonalization with overlap
     ethr =  3.70E-05,  avg # of iterations =  2.0

     negative rho (up, down):  1.969E-02 2.135E-02
 
     Adding external electric field

     Computed dipole along edir(3) : 
        Dipole               -1.5155 Ry au,         -3.8520 Debye
        Dipole field         -0.0009 Ry au, 
 
        Potential amp.        0.1023 Ry
        Total length         55.1515 bohr
 
 
     Adding external electric field

     Computed dipole along edir(3) : 
        Dipole               -1.5155 Ry au,         -3.8520 Debye
        Dipole field         -0.0009 Ry au, 
 
        Potential amp.        0.1023 Ry
        Total length         55.1515 bohr
 

     total cpu time spent up to now is      340.3 secs

     total energy              =   -7738.14896496 Ry
     estimated scf accuracy    <       0.72814108 Ry

     total magnetization       =    86.71 Bohr mag/cell
     absolute magnetization    =    91.13 Bohr mag/cell

     iteration # 23     ecut=    50.00 Ry     beta= 0.10
     Davidson diagonalization with overlap
     ethr =  3.70E-05,  avg # of iterations =  2.0

     negative rho (up, down):  1.784E-02 1.907E-02
 
     Adding external electric field

     Computed dipole along edir(3) : 
        Dipole               -1.4648 Ry au,         -3.7232 Debye
        Dipole field         -0.0009 Ry au, 
 
        Potential amp.        0.0989 Ry
        Total length         55.1515 bohr
 
 
     Adding external electric field

     Computed dipole along edir(3) : 
        Dipole               -1.4648 Ry au,         -3.7232 Debye
        Dipole field         -0.0009 Ry au, 
 
        Potential amp.        0.0989 Ry
        Total length         55.1515 bohr
 

     total cpu time spent up to now is      354.6 secs

     total energy              =   -7738.19741078 Ry
     estimated scf accuracy    <       0.17028443 Ry

     total magnetization       =    88.98 Bohr mag/cell
     absolute magnetization    =    92.36 Bohr mag/cell

     iteration # 24     ecut=    50.00 Ry     beta= 0.10
     Davidson diagonalization with overlap
     ethr =  1.56E-05,  avg # of iterations = 12.0

     negative rho (up, down):  1.223E-02 1.333E-02
 
     Adding external electric field

     Computed dipole along edir(3) : 
        Dipole               -1.5526 Ry au,         -3.9462 Debye
        Dipole field         -0.0010 Ry au, 
 
        Potential amp.        0.1048 Ry
        Total length         55.1515 bohr
 
 
     Adding external electric field

     Computed dipole along edir(3) : 
        Dipole               -1.5526 Ry au,         -3.9462 Debye
        Dipole field         -0.0010 Ry au, 
 
        Potential amp.        0.1048 Ry
        Total length         55.1515 bohr
 

     total cpu time spent up to now is      382.6 secs

     total energy              =   -7738.20412503 Ry
     estimated scf accuracy    <       0.22399122 Ry

     total magnetization       =    89.01 Bohr mag/cell
     absolute magnetization    =    91.40 Bohr mag/cell

     iteration # 25     ecut=    50.00 Ry     beta= 0.10
     Davidson diagonalization with overlap
     ethr =  1.56E-05,  avg # of iterations =  1.5

     negative rho (up, down):  2.606E-03 3.172E-03
 
     Adding external electric field

     Computed dipole along edir(3) : 
        Dipole               -1.6563 Ry au,         -4.2100 Debye
        Dipole field         -0.0010 Ry au, 
 
        Potential amp.        0.1118 Ry
        Total length         55.1515 bohr
 
 
     Adding external electric field

     Computed dipole along edir(3) : 
        Dipole               -1.6563 Ry au,         -4.2100 Debye
        Dipole field         -0.0010 Ry au, 
 
        Potential amp.        0.1118 Ry
        Total length         55.1515 bohr
 

     total cpu time spent up to now is      396.4 secs

     total energy              =   -7738.20575377 Ry
     estimated scf accuracy    <       0.10722396 Ry

     total magnetization       =    89.24 Bohr mag/cell
     absolute magnetization    =    91.48 Bohr mag/cell

     iteration # 26     ecut=    50.00 Ry     beta= 0.10
     Davidson diagonalization with overlap
     ethr =  9.81E-06,  avg # of iterations = 21.0

     negative rho (up, down):  2.876E-03 3.518E-03
 
     Adding external electric field

     Computed dipole along edir(3) : 
        Dipole               -1.6679 Ry au,         -4.2395 Debye
        Dipole field         -0.0010 Ry au, 
 
        Potential amp.        0.1126 Ry
        Total length         55.1515 bohr
 
 
     Adding external electric field

     Computed dipole along edir(3) : 
        Dipole               -1.6679 Ry au,         -4.2395 Debye
        Dipole field         -0.0010 Ry au, 
 
        Potential amp.        0.1126 Ry
        Total length         55.1515 bohr
 

     total cpu time spent up to now is      424.5 secs

     total energy              =   -7738.21230007 Ry
     estimated scf accuracy    <       0.11208511 Ry

     total magnetization       =    87.67 Bohr mag/cell
     absolute magnetization    =    89.58 Bohr mag/cell

     iteration # 27     ecut=    50.00 Ry     beta= 0.10
     Davidson diagonalization with overlap
     ethr =  9.81E-06,  avg # of iterations =  1.5

     negative rho (up, down):  3.737E-03 4.478E-03
 
     Adding external electric field

     Computed dipole along edir(3) : 
        Dipole               -1.6502 Ry au,         -4.1945 Debye
        Dipole field         -0.0010 Ry au, 
 
        Potential amp.        0.1114 Ry
        Total length         55.1515 bohr
 
 
     Adding external electric field

     Computed dipole along edir(3) : 
        Dipole               -1.6502 Ry au,         -4.1945 Debye
        Dipole field         -0.0010 Ry au, 
 
        Potential amp.        0.1114 Ry
        Total length         55.1515 bohr
 

     total cpu time spent up to now is      437.1 secs

     total energy              =   -7738.21068079 Ry
     estimated scf accuracy    <       0.10224977 Ry

     total magnetization       =    87.73 Bohr mag/cell
     absolute magnetization    =    89.62 Bohr mag/cell

     iteration # 28     ecut=    50.00 Ry     beta= 0.10
     Davidson diagonalization with overlap
     ethr =  9.35E-06,  avg # of iterations =  2.0

     negative rho (up, down):  1.066E-03 1.310E-03
 
     Adding external electric field

     Computed dipole along edir(3) : 
        Dipole               -1.5664 Ry au,         -3.9814 Debye
        Dipole field         -0.0010 Ry au, 
 
        Potential amp.        0.1058 Ry
        Total length         55.1515 bohr
 
 
     Adding external electric field

     Computed dipole along edir(3) : 
        Dipole               -1.5664 Ry au,         -3.9814 Debye
        Dipole field         -0.0010 Ry au, 
 
        Potential amp.        0.1058 Ry
        Total length         55.1515 bohr
 

     total cpu time spent up to now is      450.9 secs

     total energy              =   -7738.21238696 Ry
     estimated scf accuracy    <       0.07193068 Ry

     total magnetization       =    87.97 Bohr mag/cell
     absolute magnetization    =    89.84 Bohr mag/cell

     iteration # 29     ecut=    50.00 Ry     beta= 0.10
     Davidson diagonalization with overlap
     ethr =  6.58E-06,  avg # of iterations =  2.0

     negative rho (up, down):  1.109E-04 1.374E-04
 
     Adding external electric field

     Computed dipole along edir(3) : 
        Dipole               -1.5105 Ry au,         -3.8394 Debye
        Dipole field         -0.0009 Ry au, 
 
        Potential amp.        0.1020 Ry
        Total length         55.1515 bohr
 
 
     Adding external electric field

     Computed dipole along edir(3) : 
        Dipole               -1.5105 Ry au,         -3.8394 Debye
        Dipole field         -0.0009 Ry au, 
 
        Potential amp.        0.1020 Ry
        Total length         55.1515 bohr
 

     total cpu time spent up to now is      465.1 secs

     total energy              =   -7738.21520459 Ry
     estimated scf accuracy    <       0.03304786 Ry

     total magnetization       =    89.17 Bohr mag/cell
     absolute magnetization    =    90.72 Bohr mag/cell

     iteration # 30     ecut=    50.00 Ry     beta= 0.10
     Davidson diagonalization with overlap
     ethr =  3.02E-06,  avg # of iterations =  2.0

     negative rho (up, down):  1.892E-04 2.450E-04
 
     Adding external electric field

     Computed dipole along edir(3) : 
        Dipole               -1.4790 Ry au,         -3.7592 Debye
        Dipole field         -0.0009 Ry au, 
 
        Potential amp.        0.0999 Ry
        Total length         55.1515 bohr
 
 
     Adding external electric field

     Computed dipole along edir(3) : 
        Dipole               -1.4790 Ry au,         -3.7592 Debye
        Dipole field         -0.0009 Ry au, 
 
        Potential amp.        0.0999 Ry
        Total length         55.1515 bohr
 

     total cpu time spent up to now is      479.9 secs

     total energy              =   -7738.21507523 Ry
     estimated scf accuracy    <       0.02862763 Ry

     total magnetization       =    88.94 Bohr mag/cell
     absolute magnetization    =    90.32 Bohr mag/cell

     iteration # 31     ecut=    50.00 Ry     beta= 0.10
     Davidson diagonalization with overlap
     c_bands:  4 eigenvalues not converged
     ethr =  2.62E-06,  avg # of iterations = 11.0

     negative rho (up, down):  1.869E-04 2.572E-04
 
     Adding external electric field

     Computed dipole along edir(3) : 
        Dipole               -1.4834 Ry au,         -3.7705 Debye
        Dipole field         -0.0009 Ry au, 
 
        Potential amp.        0.1002 Ry
        Total length         55.1515 bohr
 
 
     Adding external electric field

     Computed dipole along edir(3) : 
        Dipole               -1.4834 Ry au,         -3.7705 Debye
        Dipole field         -0.0009 Ry au, 
 
        Potential amp.        0.1002 Ry
        Total length         55.1515 bohr
 

     total cpu time spent up to now is      499.1 secs

     total energy              =   -7738.21501963 Ry
     estimated scf accuracy    <       0.03636576 Ry

     total magnetization       =    88.74 Bohr mag/cell
     absolute magnetization    =    90.08 Bohr mag/cell

     iteration # 32     ecut=    50.00 Ry     beta= 0.10
     Davidson diagonalization with overlap
     ethr =  2.62E-06,  avg # of iterations = 12.0

     negative rho (up, down):  2.221E-04 3.023E-04
 
     Adding external electric field

     Computed dipole along edir(3) : 
        Dipole               -1.4841 Ry au,         -3.7721 Debye
        Dipole field         -0.0009 Ry au, 
 
        Potential amp.        0.1002 Ry
        Total length         55.1515 bohr
 
 
     Adding external electric field

     Computed dipole along edir(3) : 
        Dipole               -1.4841 Ry au,         -3.7721 Debye
        Dipole field         -0.0009 Ry au, 
 
        Potential amp.        0.1002 Ry
        Total length         55.1515 bohr
 

     total cpu time spent up to now is      524.0 secs

     total energy              =   -7738.21505750 Ry
     estimated scf accuracy    <       0.02964276 Ry

     total magnetization       =    88.67 Bohr mag/cell
     absolute magnetization    =    89.99 Bohr mag/cell

     iteration # 33     ecut=    50.00 Ry     beta= 0.10
     Davidson diagonalization with overlap
     ethr =  2.62E-06,  avg # of iterations =  2.0

     negative rho (up, down):  6.959E-05 8.782E-05
 
     Adding external electric field

     Computed dipole along edir(3) : 
        Dipole               -1.4750 Ry au,         -3.7490 Debye
        Dipole field         -0.0009 Ry au, 
 
        Potential amp.        0.0996 Ry
        Total length         55.1515 bohr
 
 
     Adding external electric field

     Computed dipole along edir(3) : 
        Dipole               -1.4750 Ry au,         -3.7490 Debye
        Dipole field         -0.0009 Ry au, 
 
        Potential amp.        0.0996 Ry
        Total length         55.1515 bohr
 

     total cpu time spent up to now is      537.7 secs

     total energy              =   -7738.21530626 Ry
     estimated scf accuracy    <       0.03053573 Ry

     total magnetization       =    88.68 Bohr mag/cell
     absolute magnetization    =    89.99 Bohr mag/cell

     iteration # 34     ecut=    50.00 Ry     beta= 0.10
     Davidson diagonalization with overlap
     ethr =  2.62E-06,  avg # of iterations =  2.0

     negative rho (up, down):  5.165E-04 5.197E-04
 
     Adding external electric field

     Computed dipole along edir(3) : 
        Dipole               -1.4555 Ry au,         -3.6994 Debye
        Dipole field         -0.0009 Ry au, 
 
        Potential amp.        0.0983 Ry
        Total length         55.1515 bohr
 
 
     Adding external electric field

     Computed dipole along edir(3) : 
        Dipole               -1.4555 Ry au,         -3.6994 Debye
        Dipole field         -0.0009 Ry au, 
 
        Potential amp.        0.0983 Ry
        Total length         55.1515 bohr
 

     total cpu time spent up to now is      550.8 secs

     total energy              =   -7738.21470626 Ry
     estimated scf accuracy    <       0.02744222 Ry

     total magnetization       =    88.66 Bohr mag/cell
     absolute magnetization    =    89.98 Bohr mag/cell

     iteration # 35     ecut=    50.00 Ry     beta= 0.10
     Davidson diagonalization with overlap
     ethr =  2.51E-06,  avg # of iterations =  2.0

     negative rho (up, down):  9.348E-04 9.687E-04
 
     Adding external electric field

     Computed dipole along edir(3) : 
        Dipole               -1.4442 Ry au,         -3.6709 Debye
        Dipole field         -0.0009 Ry au, 
 
        Potential amp.        0.0975 Ry
        Total length         55.1515 bohr
 
 
     Adding external electric field

     Computed dipole along edir(3) : 
        Dipole               -1.4442 Ry au,         -3.6709 Debye
        Dipole field         -0.0009 Ry au, 
 
        Potential amp.        0.0975 Ry
        Total length         55.1515 bohr
 

     total cpu time spent up to now is      564.5 secs

     total energy              =   -7738.21467464 Ry
     estimated scf accuracy    <       0.02494489 Ry

     total magnetization       =    88.74 Bohr mag/cell
     absolute magnetization    =    90.02 Bohr mag/cell

     iteration # 36     ecut=    50.00 Ry     beta= 0.10
     Davidson diagonalization with overlap
     ethr =  2.28E-06,  avg # of iterations =  2.0

     negative rho (up, down):  8.991E-04 9.330E-04
 
     Adding external electric field

     Computed dipole along edir(3) : 
        Dipole               -1.4470 Ry au,         -3.6780 Debye
        Dipole field         -0.0009 Ry au, 
 
        Potential amp.        0.0977 Ry
        Total length         55.1515 bohr
 
 
     Adding external electric field

     Computed dipole along edir(3) : 
        Dipole               -1.4470 Ry au,         -3.6780 Debye
        Dipole field         -0.0009 Ry au, 
 
        Potential amp.        0.0977 Ry
        Total length         55.1515 bohr
 

     total cpu time spent up to now is      578.8 secs

     total energy              =   -7738.21482067 Ry
     estimated scf accuracy    <       0.02547625 Ry

     total magnetization       =    88.70 Bohr mag/cell
     absolute magnetization    =    89.96 Bohr mag/cell

     iteration # 37     ecut=    50.00 Ry     beta= 0.10
     Davidson diagonalization with overlap
     ethr =  2.28E-06,  avg # of iterations =  1.5

     negative rho (up, down):  8.097E-04 8.563E-04
 
     Adding external electric field

     Computed dipole along edir(3) : 
        Dipole               -1.4572 Ry au,         -3.7039 Debye
        Dipole field         -0.0009 Ry au, 
 
        Potential amp.        0.0984 Ry
        Total length         55.1515 bohr
 
 
     Adding external electric field

     Computed dipole along edir(3) : 
        Dipole               -1.4572 Ry au,         -3.7039 Debye
        Dipole field         -0.0009 Ry au, 
 
        Potential amp.        0.0984 Ry
        Total length         55.1515 bohr
 

     total cpu time spent up to now is      592.1 secs

     total energy              =   -7738.21503770 Ry
     estimated scf accuracy    <       0.02514999 Ry

     total magnetization       =    88.71 Bohr mag/cell
     absolute magnetization    =    89.98 Bohr mag/cell

     iteration # 38     ecut=    50.00 Ry     beta= 0.10
     Davidson diagonalization with overlap
     ethr =  2.28E-06,  avg # of iterations =  2.0

     negative rho (up, down):  8.102E-04 8.573E-04
 
     Adding external electric field

     Computed dipole along edir(3) : 
        Dipole               -1.4520 Ry au,         -3.6906 Debye
        Dipole field         -0.0009 Ry au, 
 
        Potential amp.        0.0980 Ry
        Total length         55.1515 bohr
 
 
     Adding external electric field

     Computed dipole along edir(3) : 
        Dipole               -1.4520 Ry au,         -3.6906 Debye
        Dipole field         -0.0009 Ry au, 
 
        Potential amp.        0.0980 Ry
        Total length         55.1515 bohr
 

     total cpu time spent up to now is      605.3 secs

     total energy              =   -7738.21499960 Ry
     estimated scf accuracy    <       0.02506558 Ry

     total magnetization       =    88.69 Bohr mag/cell
     absolute magnetization    =    89.98 Bohr mag/cell

     iteration # 39     ecut=    50.00 Ry     beta= 0.10
     Davidson diagonalization with overlap
     ethr =  2.28E-06,  avg # of iterations =  1.5

     negative rho (up, down):  1.620E-03 1.747E-03
 
     Adding external electric field

     Computed dipole along edir(3) : 
        Dipole               -1.4918 Ry au,         -3.7919 Debye
        Dipole field         -0.0009 Ry au, 
 
        Potential amp.        0.1007 Ry
        Total length         55.1515 bohr
 
 
     Adding external electric field

     Computed dipole along edir(3) : 
        Dipole               -1.4918 Ry au,         -3.7919 Debye
        Dipole field         -0.0009 Ry au, 
 
        Potential amp.        0.1007 Ry
        Total length         55.1515 bohr
 

     total cpu time spent up to now is      618.2 secs

     total energy              =   -7738.21458917 Ry
     estimated scf accuracy    <       0.02496452 Ry

     total magnetization       =    88.69 Bohr mag/cell
     absolute magnetization    =    89.98 Bohr mag/cell

     iteration # 40     ecut=    50.00 Ry     beta= 0.10
     Davidson diagonalization with overlap
     ethr =  2.28E-06,  avg # of iterations =  2.0

     negative rho (up, down):  1.438E-03 1.533E-03
 
     Adding external electric field

     Computed dipole along edir(3) : 
        Dipole               -1.4931 Ry au,         -3.7952 Debye
        Dipole field         -0.0009 Ry au, 
 
        Potential amp.        0.1008 Ry
        Total length         55.1515 bohr
 
 
     Adding external electric field

     Computed dipole along edir(3) : 
        Dipole               -1.4931 Ry au,         -3.7952 Debye
        Dipole field         -0.0009 Ry au, 
 
        Potential amp.        0.1008 Ry
        Total length         55.1515 bohr
 

     total cpu time spent up to now is      632.0 secs

     total energy              =   -7738.21455972 Ry
     estimated scf accuracy    <       0.02414276 Ry

     total magnetization       =    88.63 Bohr mag/cell
     absolute magnetization    =    89.89 Bohr mag/cell

     iteration # 41     ecut=    50.00 Ry     beta= 0.10
     Davidson diagonalization with overlap
     ethr =  2.21E-06,  avg # of iterations =  2.0

     negative rho (up, down):  1.103E-03 1.193E-03
 
     Adding external electric field

     Computed dipole along edir(3) : 
        Dipole               -1.4821 Ry au,         -3.7672 Debye
        Dipole field         -0.0009 Ry au, 
 
        Potential amp.        0.1001 Ry
        Total length         55.1515 bohr
 
 
     Adding external electric field

     Computed dipole along edir(3) : 
        Dipole               -1.4821 Ry au,         -3.7672 Debye
        Dipole field         -0.0009 Ry au, 
 
        Potential amp.        0.1001 Ry
        Total length         55.1515 bohr
 

     total cpu time spent up to now is      645.2 secs

     total energy              =   -7738.21490357 Ry
     estimated scf accuracy    <       0.02318080 Ry

     total magnetization       =    88.63 Bohr mag/cell
     absolute magnetization    =    89.90 Bohr mag/cell

     iteration # 42     ecut=    50.00 Ry     beta= 0.10
     Davidson diagonalization with overlap
     ethr =  2.12E-06,  avg # of iterations =  1.5

     negative rho (up, down):  2.417E-03 2.586E-03
 
     Adding external electric field

     Computed dipole along edir(3) : 
        Dipole               -1.5300 Ry au,         -3.8889 Debye
        Dipole field         -0.0009 Ry au, 
 
        Potential amp.        0.1033 Ry
        Total length         55.1515 bohr
 
 
     Adding external electric field

     Computed dipole along edir(3) : 
        Dipole               -1.5300 Ry au,         -3.8889 Debye
        Dipole field         -0.0009 Ry au, 
 
        Potential amp.        0.1033 Ry
        Total length         55.1515 bohr
 

     total cpu time spent up to now is      658.3 secs

     total energy              =   -7738.21352328 Ry
     estimated scf accuracy    <       0.02380905 Ry

     total magnetization       =    88.64 Bohr mag/cell
     absolute magnetization    =    89.93 Bohr mag/cell

     iteration # 43     ecut=    50.00 Ry     beta= 0.10
     Davidson diagonalization with overlap
     ethr =  2.12E-06,  avg # of iterations =  2.0

     negative rho (up, down):  1.386E-03 1.537E-03
 
     Adding external electric field

     Computed dipole along edir(3) : 
        Dipole               -1.5183 Ry au,         -3.8592 Debye
        Dipole field         -0.0009 Ry au, 
 
        Potential amp.        0.1025 Ry
        Total length         55.1515 bohr
 
 
     Adding external electric field

     Computed dipole along edir(3) : 
        Dipole               -1.5183 Ry au,         -3.8592 Debye
        Dipole field         -0.0009 Ry au, 
 
        Potential amp.        0.1025 Ry
        Total length         55.1515 bohr
 

     total cpu time spent up to now is      671.7 secs

     total energy              =   -7738.21422455 Ry
     estimated scf accuracy    <       0.02267144 Ry

     total magnetization       =    88.61 Bohr mag/cell
     absolute magnetization    =    89.84 Bohr mag/cell

     iteration # 44     ecut=    50.00 Ry     beta= 0.10
     Davidson diagonalization with overlap
     ethr =  2.07E-06,  avg # of iterations =  1.5

     negative rho (up, down):  3.704E-03 4.020E-03
 
     Adding external electric field

     Computed dipole along edir(3) : 
        Dipole               -1.5035 Ry au,         -3.8215 Debye
        Dipole field         -0.0009 Ry au, 
 
        Potential amp.        0.1015 Ry
        Total length         55.1515 bohr
 
 
     Adding external electric field

     Computed dipole along edir(3) : 
        Dipole               -1.5035 Ry au,         -3.8215 Debye
        Dipole field         -0.0009 Ry au, 
 
        Potential amp.        0.1015 Ry
        Total length         55.1515 bohr
 

     total cpu time spent up to now is      684.3 secs

     total energy              =   -7738.21348178 Ry
     estimated scf accuracy    <       0.02265287 Ry

     total magnetization       =    88.61 Bohr mag/cell
     absolute magnetization    =    89.85 Bohr mag/cell

     iteration # 45     ecut=    50.00 Ry     beta= 0.10
     Davidson diagonalization with overlap
     ethr =  2.07E-06,  avg # of iterations =  2.0

     negative rho (up, down):  1.690E-03 1.807E-03
 
     Adding external electric field

     Computed dipole along edir(3) : 
        Dipole               -1.5305 Ry au,         -3.8902 Debye
        Dipole field         -0.0009 Ry au, 
 
        Potential amp.        0.1033 Ry
        Total length         55.1515 bohr
 
 
     Adding external electric field

     Computed dipole along edir(3) : 
        Dipole               -1.5305 Ry au,         -3.8902 Debye
        Dipole field         -0.0009 Ry au, 
 
        Potential amp.        0.1033 Ry
        Total length         55.1515 bohr
 

     total cpu time spent up to now is      697.5 secs

     total energy              =   -7738.21355394 Ry
     estimated scf accuracy    <       0.02450441 Ry

     total magnetization       =    88.59 Bohr mag/cell
     absolute magnetization    =    89.81 Bohr mag/cell

     iteration # 46     ecut=    50.00 Ry     beta= 0.10
     Davidson diagonalization with overlap
     ethr =  2.07E-06,  avg # of iterations =  1.5

     negative rho (up, down):  2.831E-03 2.940E-03
 
     Adding external electric field

     Computed dipole along edir(3) : 
        Dipole               -1.5023 Ry au,         -3.8183 Debye
        Dipole field         -0.0009 Ry au, 
 
        Potential amp.        0.1014 Ry
        Total length         55.1515 bohr
 
 
     Adding external electric field

     Computed dipole along edir(3) : 
        Dipole               -1.5023 Ry au,         -3.8183 Debye
        Dipole field         -0.0009 Ry au, 
 
        Potential amp.        0.1014 Ry
        Total length         55.1515 bohr
 

     total cpu time spent up to now is      710.0 secs

     total energy              =   -7738.21282707 Ry
     estimated scf accuracy    <       0.02621479 Ry

     total magnetization       =    88.54 Bohr mag/cell
     absolute magnetization    =    89.75 Bohr mag/cell

     iteration # 47     ecut=    50.00 Ry     beta= 0.10
     Davidson diagonalization with overlap
     ethr =  2.07E-06,  avg # of iterations =  2.0

     negative rho (up, down):  1.064E-03 1.160E-03
 
     Adding external electric field

     Computed dipole along edir(3) : 
        Dipole               -1.5699 Ry au,         -3.9903 Debye
        Dipole field         -0.0010 Ry au, 
 
        Potential amp.        0.1060 Ry
        Total length         55.1515 bohr
 
 
     Adding external electric field

     Computed dipole along edir(3) : 
        Dipole               -1.5699 Ry au,         -3.9903 Debye
        Dipole field         -0.0010 Ry au, 
 
        Potential amp.        0.1060 Ry
        Total length         55.1515 bohr
 

     total cpu time spent up to now is      723.9 secs

     total energy              =   -7738.21447298 Ry
     estimated scf accuracy    <       0.02382431 Ry

     total magnetization       =    88.65 Bohr mag/cell
     absolute magnetization    =    89.83 Bohr mag/cell

     iteration # 48     ecut=    50.00 Ry     beta= 0.10
     Davidson diagonalization with overlap
     ethr =  2.07E-06,  avg # of iterations =  2.0

     negative rho (up, down):  1.461E-03 1.574E-03
 
     Adding external electric field

     Computed dipole along edir(3) : 
        Dipole               -1.5079 Ry au,         -3.8326 Debye
        Dipole field         -0.0009 Ry au, 
 
        Potential amp.        0.1018 Ry
        Total length         55.1515 bohr
 
 
     Adding external electric field

     Computed dipole along edir(3) : 
        Dipole               -1.5079 Ry au,         -3.8326 Debye
        Dipole field         -0.0009 Ry au, 
 
        Potential amp.        0.1018 Ry
        Total length         55.1515 bohr
 

     total cpu time spent up to now is      737.2 secs

     total energy              =   -7738.21418682 Ry
     estimated scf accuracy    <       0.02442066 Ry

     total magnetization       =    88.61 Bohr mag/cell
     absolute magnetization    =    89.91 Bohr mag/cell

     iteration # 49     ecut=    50.00 Ry     beta= 0.10
     Davidson diagonalization with overlap
     ethr =  2.07E-06,  avg # of iterations =  1.0

     negative rho (up, down):  2.134E-03 2.244E-03
 
     Adding external electric field

     Computed dipole along edir(3) : 
        Dipole               -1.5237 Ry au,         -3.8729 Debye
        Dipole field         -0.0009 Ry au, 
 
        Potential amp.        0.1029 Ry
        Total length         55.1515 bohr
 
 
     Adding external electric field

     Computed dipole along edir(3) : 
        Dipole               -1.5237 Ry au,         -3.8729 Debye
        Dipole field         -0.0009 Ry au, 
 
        Potential amp.        0.1029 Ry
        Total length         55.1515 bohr
 

     total cpu time spent up to now is      749.4 secs

     total energy              =   -7738.21396995 Ry
     estimated scf accuracy    <       0.02489738 Ry

     total magnetization       =    88.63 Bohr mag/cell
     absolute magnetization    =    89.89 Bohr mag/cell

     iteration # 50     ecut=    50.00 Ry     beta= 0.10
     Davidson diagonalization with overlap
     ethr =  2.07E-06,  avg # of iterations =  1.5

     negative rho (up, down):  2.015E-03 2.277E-03
 
     Adding external electric field

     Computed dipole along edir(3) : 
        Dipole               -1.5413 Ry au,         -3.9175 Debye
        Dipole field         -0.0009 Ry au, 
 
        Potential amp.        0.1041 Ry
        Total length         55.1515 bohr
 
 
     Adding external electric field

     Computed dipole along edir(3) : 
        Dipole               -1.5413 Ry au,         -3.9175 Debye
        Dipole field         -0.0009 Ry au, 
 
        Potential amp.        0.1041 Ry
        Total length         55.1515 bohr
 

     total cpu time spent up to now is      761.5 secs

     total energy              =   -7738.21363891 Ry
     estimated scf accuracy    <       0.02440979 Ry

     total magnetization       =    88.61 Bohr mag/cell
     absolute magnetization    =    89.85 Bohr mag/cell

     iteration # 51     ecut=    50.00 Ry     beta= 0.10
     Davidson diagonalization with overlap
     ethr =  2.07E-06,  avg # of iterations =  1.5

     negative rho (up, down):  3.007E-03 3.221E-03
 
     Adding external electric field

     Computed dipole along edir(3) : 
        Dipole               -1.5492 Ry au,         -3.9378 Debye
        Dipole field         -0.0009 Ry au, 
 
        Potential amp.        0.1046 Ry
        Total length         55.1515 bohr
 
 
     Adding external electric field

     Computed dipole along edir(3) : 
        Dipole               -1.5492 Ry au,         -3.9378 Debye
        Dipole field         -0.0009 Ry au, 
 
        Potential amp.        0.1046 Ry
        Total length         55.1515 bohr
 

     total cpu time spent up to now is      774.6 secs

     total energy              =   -7738.21341293 Ry
     estimated scf accuracy    <       0.02356265 Ry

     total magnetization       =    88.60 Bohr mag/cell
     absolute magnetization    =    89.82 Bohr mag/cell

     iteration # 52     ecut=    50.00 Ry     beta= 0.10
     Davidson diagonalization with overlap
     ethr =  2.07E-06,  avg # of iterations =  1.5

     negative rho (up, down):  7.439E-04 8.672E-04
 
     Adding external electric field

     Computed dipole along edir(3) : 
        Dipole               -1.4843 Ry au,         -3.7727 Debye
        Dipole field         -0.0009 Ry au, 
 
        Potential amp.        0.1002 Ry
        Total length         55.1515 bohr
 
 
     Adding external electric field

     Computed dipole along edir(3) : 
        Dipole               -1.4843 Ry au,         -3.7727 Debye
        Dipole field         -0.0009 Ry au, 
 
        Potential amp.        0.1002 Ry
        Total length         55.1515 bohr
 

     total cpu time spent up to now is      787.2 secs

     total energy              =   -7738.21447107 Ry
     estimated scf accuracy    <       0.02404446 Ry

     total magnetization       =    88.59 Bohr mag/cell
     absolute magnetization    =    89.80 Bohr mag/cell

     iteration # 53     ecut=    50.00 Ry     beta= 0.10
     Davidson diagonalization with overlap
     ethr =  2.07E-06,  avg # of iterations =  2.0

     negative rho (up, down):  4.394E-03 4.606E-03
 
     Adding external electric field

     Computed dipole along edir(3) : 
        Dipole               -1.5339 Ry au,         -3.8988 Debye
        Dipole field         -0.0009 Ry au, 
 
        Potential amp.        0.1036 Ry
        Total length         55.1515 bohr
 
 
     Adding external electric field

     Computed dipole along edir(3) : 
        Dipole               -1.5339 Ry au,         -3.8988 Debye
        Dipole field         -0.0009 Ry au, 
 
        Potential amp.        0.1036 Ry
        Total length         55.1515 bohr
 

     total cpu time spent up to now is      801.0 secs

     total energy              =   -7738.21230691 Ry
     estimated scf accuracy    <       0.02475885 Ry

     total magnetization       =    88.62 Bohr mag/cell
     absolute magnetization    =    89.87 Bohr mag/cell

     iteration # 54     ecut=    50.00 Ry     beta= 0.10
     Davidson diagonalization with overlap
     ethr =  2.07E-06,  avg # of iterations =  3.5

     negative rho (up, down):  2.436E-03 2.570E-03
 
     Adding external electric field

     Computed dipole along edir(3) : 
        Dipole               -1.5626 Ry au,         -3.9719 Debye
        Dipole field         -0.0010 Ry au, 
 
        Potential amp.        0.1055 Ry
        Total length         55.1515 bohr
 
 
     Adding external electric field

     Computed dipole along edir(3) : 
        Dipole               -1.5626 Ry au,         -3.9719 Debye
        Dipole field         -0.0010 Ry au, 
 
        Potential amp.        0.1055 Ry
        Total length         55.1515 bohr
 

     total cpu time spent up to now is      815.0 secs

     total energy              =   -7738.21389687 Ry
     estimated scf accuracy    <       0.02623945 Ry

     total magnetization       =    88.60 Bohr mag/cell
     absolute magnetization    =    89.78 Bohr mag/cell

     iteration # 55     ecut=    50.00 Ry     beta= 0.10
     Davidson diagonalization with overlap
     ethr =  2.07E-06,  avg # of iterations =  2.0

     negative rho (up, down):  1.026E-03 1.046E-03
 
     Adding external electric field

     Computed dipole along edir(3) : 
        Dipole               -1.4918 Ry au,         -3.7918 Debye
        Dipole field         -0.0009 Ry au, 
 
        Potential amp.        0.1007 Ry
        Total length         55.1515 bohr
 
 
     Adding external electric field

     Computed dipole along edir(3) : 
        Dipole               -1.4918 Ry au,         -3.7918 Debye
        Dipole field         -0.0009 Ry au, 
 
        Potential amp.        0.1007 Ry
        Total length         55.1515 bohr
 

     total cpu time spent up to now is      828.3 secs

     total energy              =   -7738.21316067 Ry
     estimated scf accuracy    <       0.02319810 Ry

     total magnetization       =    88.63 Bohr mag/cell
     absolute magnetization    =    89.85 Bohr mag/cell

     iteration # 56     ecut=    50.00 Ry     beta= 0.10
     Davidson diagonalization with overlap
     ethr =  2.07E-06,  avg # of iterations =  2.0

     negative rho (up, down):  7.941E-04 8.092E-04
 
     Adding external electric field

     Computed dipole along edir(3) : 
        Dipole               -1.5263 Ry au,         -3.8795 Debye
        Dipole field         -0.0009 Ry au, 
 
        Potential amp.        0.1031 Ry
        Total length         55.1515 bohr
 
 
     Adding external electric field

     Computed dipole along edir(3) : 
        Dipole               -1.5263 Ry au,         -3.8795 Debye
        Dipole field         -0.0009 Ry au, 
 
        Potential amp.        0.1031 Ry
        Total length         55.1515 bohr
 

     total cpu time spent up to now is      841.7 secs

     total energy              =   -7738.21371632 Ry
     estimated scf accuracy    <       0.02213504 Ry

     total magnetization       =    88.62 Bohr mag/cell
     absolute magnetization    =    89.82 Bohr mag/cell

     iteration # 57     ecut=    50.00 Ry     beta= 0.10
     Davidson diagonalization with overlap
     ethr =  2.03E-06,  avg # of iterations =  1.5

     negative rho (up, down):  8.769E-04 9.116E-04
 
     Adding external electric field

     Computed dipole along edir(3) : 
        Dipole               -1.4772 Ry au,         -3.7546 Debye
        Dipole field         -0.0009 Ry au, 
 
        Potential amp.        0.0997 Ry
        Total length         55.1515 bohr
 
 
     Adding external electric field

     Computed dipole along edir(3) : 
        Dipole               -1.4772 Ry au,         -3.7546 Debye
        Dipole field         -0.0009 Ry au, 
 
        Potential amp.        0.0997 Ry
        Total length         55.1515 bohr
 

     total cpu time spent up to now is      853.7 secs

     total energy              =   -7738.21360534 Ry
     estimated scf accuracy    <       0.02476006 Ry

     total magnetization       =    88.56 Bohr mag/cell
     absolute magnetization    =    89.78 Bohr mag/cell

     iteration # 58     ecut=    50.00 Ry     beta= 0.10
     Davidson diagonalization with overlap
     ethr =  2.03E-06,  avg # of iterations =  2.0

     negative rho (up, down):  4.616E-04 5.034E-04
 
[...]
     atom   99 type  4   force =     0.00011711    0.00011936    0.00023812
     atom  100 type  4   force =     0.00005796   -0.00032198    0.00016185
     atom  101 type  4   force =    -0.00005431    0.00009410   -0.00019314
     atom  102 type  4   force =    -0.00014670    0.00008055    0.00019016
     atom  103 type  4   force =    -0.00045695    0.00029646    0.00037677
     atom  104 type  4   force =    -0.00005770   -0.00042994    0.00014193
     atom  105 type  1   force =    -0.00646280   -0.00792596   -0.00362419
     atom  106 type  2   force =    -0.01205017    0.00013607   -0.00192856
     atom  107 type  1   force =     0.00423747   -0.00286300    0.00316321
     atom  108 type  1   force =     0.00241726    0.00399613   -0.00165589
     atom  109 type  1   force =     0.00181656   -0.00477369   -0.00028146
     atom  110 type  1   force =    -0.00122678    0.00108336    0.00180160
     atom  111 type  3   force =    -0.00709291   -0.00082812   -0.00046482
     atom  112 type  3   force =    -0.00615729    0.00299747   -0.00224976
     atom  113 type  3   force =     0.00409086   -0.00002277   -0.00391081
     atom  114 type  3   force =     0.00104864   -0.00133021    0.00299065
     atom  115 type  4   force =     0.00872868    0.00506478   -0.00761212
     atom  116 type  4   force =     0.00365734   -0.00113923    0.02071070
     atom  117 type  4   force =    -0.00098319    0.00369619    0.01021009
     atom  118 type  4   force =    -0.00153738   -0.00241181   -0.00894012
     atom  119 type  4   force =     0.00215955    0.00853183    0.00642046
     atom  120 type  4   force =    -0.00690858   -0.00295987   -0.01973911
     atom  121 type  4   force =     0.00980314    0.00730975   -0.00653675
     atom  122 type  4   force =     0.00706601   -0.00304625    0.00603030
     atom  123 type  4   force =     0.00214626    0.00592677   -0.00054663
     atom  124 type  4   force =     0.00322864    0.00086151    0.00505358
     atom  125 type  4   force =    -0.01311891    0.00022910    0.00331371
     atom  126 type  4   force =    -0.01453755    0.00250860   -0.00331942
     atom  127 type  4   force =     0.01314845    0.00299595   -0.00436790
     atom  128 type  4   force =    -0.00434999   -0.00376388   -0.00007198
     atom  129 type  4   force =    -0.00436921    0.00265081   -0.00053638
     atom  130 type  4   force =     0.01639501   -0.00323553    0.00419994
     atom  131 type  1   force =    -0.00755951   -0.00703891   -0.00839534
     atom  132 type  2   force =     0.01575937    0.01727140   -0.00989108
     atom  133 type  1   force =     0.00579998   -0.00489404   -0.00579015
     atom  134 type  1   force =    -0.02054053    0.01926676    0.01988159
     atom  135 type  1   force =     0.00445917   -0.00756732   -0.00141005
     atom  136 type  1   force =    -0.00389586   -0.00534232   -0.00088505
     atom  137 type  3   force =    -0.03902763   -0.03834654   -0.05605226
     atom  138 type  3   force =    -0.00485954   -0.00126819   -0.00117505
     atom  139 type  3   force =     0.00273457   -0.00101160   -0.01014854
     atom  140 type  3   force =     0.02909280   -0.04950345   -0.06060067
     atom  141 type  4   force =     0.00620090    0.00351337    0.02106174
     atom  142 type  4   force =     0.00441453    0.00232938    0.01456039
     atom  143 type  4   force =    -0.00058469    0.00284267    0.01277939
     atom  144 type  4   force =     0.00020357    0.00220733    0.01641988
     atom  145 type  4   force =     0.00119810   -0.00065701    0.03905988
     atom  146 type  4   force =    -0.00545522   -0.00392467   -0.01717699
     atom  147 type  4   force =     0.00780557    0.00454268   -0.00277603
     atom  148 type  4   force =     0.00166037   -0.00742283    0.03540364
     atom  149 type  4   force =    -0.00928854    0.03921520    0.00092692
     atom  150 type  4   force =     0.00207920   -0.00045750    0.00794614
     atom  151 type  4   force =    -0.03002275    0.00087983    0.00763175
     atom  152 type  4   force =    -0.01360483    0.00144149   -0.00042022
     atom  153 type  4   force =     0.01213450    0.00360160   -0.00251349
     atom  154 type  4   force =    -0.00245052   -0.00279707    0.00249474
     atom  155 type  4   force =     0.00906678    0.02584048   -0.00263397
     atom  156 type  4   force =     0.03351832   -0.00619169    0.00600462
     atom  157 type  4   force =     0.00018691    0.00061470   -0.00058551
     atom  158 type  5   force =     0.00024936    0.00066866   -0.00041863

     Total force =     0.003564     Total SCF correction =     0.000155
     Energy error            =      2.9E-05 Ry
     Gradient error          =      9.3E-04 Ry/Bohr

     bfgs converged in  43 scf cycles and  42 bfgs steps
     (criteria: energy <  1.0E-04 Ry, force <  1.0E-03 Ry/Bohr)

     End of BFGS Geometry Optimization

     Final energy             =   -7738.3169543703 Ry

     File ./tmp/pwscf.bfgs deleted, as requested
Begin final coordinates

ATOMIC_POSITIONS (angstrom)
Ni               2.3183997914        7.9524804769       16.0859933318
Mn               4.4754692739        7.2990563585       13.1687617502
Ni              -0.0045688719        2.8113349877       16.0582429907
Ni               2.3626669759        2.2466948791       13.1668775167
Ni               4.5818727265       10.2236445373       14.7231806959
Ni               2.3239793820        5.0794612921       14.7417845356
P                1.9178648777        9.2438376720       13.1783286885
P                4.2526796577        6.1543098167       16.2807005697
P                2.6409334125        1.0623847648       16.1644738961
P                0.3635846582        4.0827302070       13.1874395310
O                1.2255903500        8.5722934162       14.4651426490
O                3.5229140833        6.7489252108       14.9191625000
O                3.3462553870        1.6176155117       14.8162039656
O                1.0886856250        3.4272414852       14.4663217015
O                1.3793183459        8.3984873445       11.9991899256
O                3.7071620941        7.0922371072       17.3476935593
O                3.1656443375        1.9792510322       17.2651195303
O                0.9173707884        3.2804862761       11.9894411949
O                0.9074588597        5.5438623904       13.2403343181
O                3.1461759083        9.7637022556       16.1974288649
O                3.4293178410        4.0389242558       13.3094394024
O                1.0928849972        1.0879191685       16.0518530837
O                1.1995842891        6.1948578819       16.1026488409
O                3.7023932153        4.6912110800       16.2111346503
O                1.3519749153        0.5005122298       13.1935051813
O                3.4510170387        9.1717763354       13.2938166004
Ni               2.2231694467        7.8387150113       10.2441428465    0   0   0
Mn               4.5291854344        7.1731699804        7.1554177006    0   0   0
Ni               0.0413377460        2.7013109415       10.2603882940    0   0   0
Ni               2.3609701921        2.0961861161        7.1899515213    0   0   0
Ni               4.5771780352       10.0853977451        8.7130228178    0   0   0
Ni               2.2920501783        4.9198282349        8.7227910824    0   0   0
P                1.9122808731        9.1033963050        7.2173607613    0   0   0
P                4.2159980376        5.9505261806       10.2027763372    0   0   0
P                2.6546169098        0.8591972239       10.2283303116    0   0   0
P                0.3619242519        3.9045525432        7.2190763494    0   0   0
O                1.2036838524        8.4272438680        8.5052521184    0   0   0
O                3.4908594272        6.6070736456        8.9170848147    0   0   0
O                3.3665734522        1.5317059583        8.9373367535    0   0   0
O                1.0719826629        3.2671856475        8.5242565260    0   0   0
O                1.3843584724        8.2616841471        6.0256206039    0   0   0
O                3.6610322847        6.7741729017       11.3943375015    0   0   0
O                3.2083661661        1.6483492612       11.4336134640    0   0   0
O                0.8980336260        3.1100721707        6.0140979227    0   0   0
O                0.9070304683        5.3599334065        7.2594010652    0   0   0
O                3.1870699093        9.5847542147       10.1494340391    0   0   0
O                3.4373778089        3.8725200731        7.3188449707    0   0   0
O                1.1269987174        0.9116358839       10.1328903704    0   0   0
O                1.1379920588        6.0211801669       10.1144969906    0   0   0
O                3.6884944322        4.4881192592       10.1758874244    0   0   0
O                1.3600796965        0.3668542279        7.2516081594    0   0   0
O                3.4345382286        9.0669591473        7.3057765327    0   0   0
Ni               2.2162947113        7.7473428066        4.2400449238    0   0   0
Mn               4.5223106990        7.0817977756        1.1513197779    0   0   0
Ni               0.0344630106        2.6099387368        4.2562903713    0   0   0
Ni               2.3540954567        2.0048139114        1.1858535986    0   0   0
Ni               4.5703032998        9.9940255404        2.7089248952    0   0   0
Ni               2.2851754429        4.8284560302        2.7186931597    0   0   0
P                1.9054061377        9.0120241003        1.2132628386    0   0   0
P                4.2091233022        5.8591539759        4.1986784145    0   0   0
P                2.6477421744        0.7678250192        4.2242323889    0   0   0
P                0.3550495165        3.8131803385        1.2149784268    0   0   0
O                1.1968091169        8.3358716633        2.5011541957    0   0   0
O                3.4839846918        6.5157014409        2.9129868921    0   0   0
O                3.3596987168        1.4403337535        2.9332388308    0   0   0
O                1.0651079275        3.1758134427        2.5201586033    0   0   0
O                1.3774837370        8.1703119424        0.0215226813    0   0   0
O                3.6541575493        6.6828006969        5.3902395788    0   0   0
O                3.2014914307        1.5569770565        5.4295155413    0   0   0
O                0.8911588906        3.0186999659        0.0100000000    0   0   0
O                0.9001557329        5.2685612018        1.2553031425    0   0   0
O                3.1801951739        9.4933820100        4.1453361164    0   0   0
O                3.4305030735        3.7811478683        1.3147470481    0   0   0
O                1.1201239820        0.8202636792        4.1287924477    0   0   0
O                1.1311173233        5.9298079622        4.1103990679    0   0   0
O                3.6816196968        4.3967470545        4.1717895017    0   0   0
O                1.3532049611        0.2754820232        1.2475102367    0   0   0
O                3.4276634932        8.9755869426        1.3016786101    0   0   0
Ni               6.9189730319        7.9133669981       16.0876072679
Mn               9.0747208809        7.3040342335       13.1660097376
Ni               4.6968690820        2.9006420356       16.3660359891
Ni               6.9660395282        2.2484418752       13.1805936895
Ni               9.1805357049       10.1967336634       14.6960537713
Ni               6.9093864108        5.0520466338       14.7785950530
P                6.5162648973        9.2421807371       13.1867792763
P                8.8735982896        6.1178519599       16.2796879523
P                7.2595268623        0.9977057366       16.2269530650
P                4.9662798786        4.0610909892       13.2186870963
O                5.8314674544        8.5742290522       14.4740873806
O                8.1362811663        6.6947061793       14.9239132682
O                7.9462273334        1.6095957685       14.8623985123
O                5.6755949579        3.3900747603       14.4909582919
O                5.9798884676        8.4026967922       12.0025255156
O                8.3001574998        7.0266604148       17.3549478552
O                7.8605386531        1.8799864956       17.3211708285
O                5.5163355260        3.2669233819       12.0095098513
O                5.5108602785        5.5260471539       13.2728618097
O                7.7781536536        9.7094783510       16.1902391547
O                8.0418744220        4.0309265552       13.3188179510
O                5.7186496005        1.0470324153       16.1311877907
O                5.7890868110        6.2051344655       16.0884919334
O                8.3834312053        4.6272351196       16.2363363973
O                5.9667358860        0.5037159363       13.2154442030
O                8.0521278339        9.1617464777       13.2905183188
Ni               6.8287916588        7.8387150113       10.2441428465    0   0   0
Mn               9.1348076465        7.1731699804        7.1554177006    0   0   0
Ni               4.6469599580        2.7013109415       10.2603882940    0   0   0
Ni               6.9665924042        2.0961861161        7.1899515213    0   0   0
Ni               9.1828002472       10.0853977451        8.7130228178    0   0   0
Ni               6.8976723903        4.9198282349        8.7227910824    0   0   0
P                6.5179030852        9.1033963050        7.2173607613    0   0   0
P                8.8216202497        5.9505261806       10.2027763372    0   0   0
P                7.2602391219        0.8591972239       10.2283303116    0   0   0
P                4.9675464640        3.9045525432        7.2190763494    0   0   0
O                5.8093060644        8.4272438680        8.5052521184    0   0   0
O                8.0964816393        6.6070736456        8.9170848147    0   0   0
O                7.9721956643        1.5317059583        8.9373367535    0   0   0
O                5.6776048750        3.2671856475        8.5242565260    0   0   0
O                5.9899806845        8.2616841471        6.0256206039    0   0   0
O                8.2666544968        6.7741729017       11.3943375015    0   0   0
O                7.8139883782        1.6483492612       11.4336134640    0   0   0
O                5.5036558380        3.1100721707        6.0140979227    0   0   0
O                5.5126526804        5.3599334065        7.2594010652    0   0   0
O                7.7926921213        9.5847542147       10.1494340391    0   0   0
O                8.0430000209        3.8725200731        7.3188449707    0   0   0
O                5.7326209294        0.9116358839       10.1328903704    0   0   0
O                5.7436142708        6.0211801669       10.1144969906    0   0   0
O                8.2941166443        4.4881192592       10.1758874244    0   0   0
O                5.9657019086        0.3668542279        7.2516081594    0   0   0
O                8.0401604407        9.0669591473        7.3057765327    0   0   0
Ni               6.8219169233        7.7473428066        4.2400449238    0   0   0
Mn               9.1279329110        7.0817977756        1.1513197779    0   0   0
Ni               4.6400852226        2.6099387368        4.2562903713    0   0   0
Ni               6.9597176688        2.0048139114        1.1858535986    0   0   0
Ni               9.1759255118        9.9940255404        2.7089248952    0   0   0
Ni               6.8907976549        4.8284560302        2.7186931597    0   0   0
P                6.5110283498        9.0120241003        1.2132628386    0   0   0
P                8.8147455142        5.8591539759        4.1986784145    0   0   0
P                7.2533643865        0.7678250192        4.2242323889    0   0   0
P                4.9606717285        3.8131803385        1.2149784268    0   0   0
O                5.8024313290        8.3358716633        2.5011541957    0   0   0
O                8.0896069039        6.5157014409        2.9129868921    0   0   0
O                7.9653209289        1.4403337535        2.9332388308    0   0   0
O                5.6707301395        3.1758134427        2.5201586033    0   0   0
O                5.9831059490        8.1703119424        0.0215226813    0   0   0
O                8.2597797614        6.6828006969        5.3902395788    0   0   0
O                7.8071136427        1.5569770565        5.4295155413    0   0   0
O                5.4967811026        3.0186999659        0.0100000000    0   0   0
O                5.5057779450        5.2685612018        1.2553031425    0   0   0
O                7.7858173859        9.4933820100        4.1453361164    0   0   0
O                8.0361252855        3.7811478683        1.3147470481    0   0   0
O                5.7257461940        0.8202636792        4.1287924477    0   0   0
O                5.7367395354        5.9298079622        4.1103990679    0   0   0
O                8.2872419088        4.3967470545        4.1717895017    0   0   0
O                5.9588271731        0.2754820232        1.2475102367    0   0   0
O                8.0332857052        8.9755869426        1.3016786101    0   0   0
O                5.7635524322        3.6578506314       17.6253370157
H                6.5294174344        3.0755681286       17.8642742608
End final coordinates



     Writing all to output data dir ./tmp/pwscf.save/
 
     init_run     :      8.47s CPU      9.06s WALL (       1 calls)
     electrons    :  13693.48s CPU  14388.64s WALL (      43 calls)
     update_pot   :     18.58s CPU     22.33s WALL (      42 calls)
     forces       :    188.86s CPU    210.63s WALL (      43 calls)
     force_london :      3.90s CPU      3.90s WALL (      43 calls)

     Called by init_run:
     wfcinit      :      4.96s CPU      5.11s WALL (       1 calls)
     potinit      :      0.73s CPU      0.91s WALL (       1 calls)
     hinit0       :      1.69s CPU      1.78s WALL (       1 calls)

     Called by electrons:
     c_bands      :  10579.73s CPU  10862.21s WALL (    1002 calls)
     sum_band     :   1892.75s CPU   2025.91s WALL (    1002 calls)
     v_of_rho     :    340.18s CPU    477.63s WALL (    1014 calls)
     newd         :    622.49s CPU    733.08s WALL (    1014 calls)
     mix_rho      :    264.79s CPU    265.94s WALL (    1002 calls)
     energy_londo :      3.55s CPU      3.55s WALL (      43 calls)

     Called by c_bands:
     init_us_2    :     19.28s CPU     19.73s WALL (    4096 calls)
     init_us_2:cp :     19.26s CPU     19.72s WALL (    4096 calls)
     regterg      :  10384.30s CPU  10663.90s WALL (    2008 calls)

     Called by *egterg:
     rdiaghg      :   2523.23s CPU   2653.10s WALL (    6667 calls)
     h_psi        :   3858.60s CPU   3924.35s WALL (    6815 calls)
     s_psi        :    483.22s CPU    483.43s WALL (    6815 calls)
     g_psi        :      4.09s CPU      4.12s WALL (    4805 calls)

     Called by h_psi:
     h_psi:calbec :   1068.76s CPU   1122.91s WALL (    6815 calls)
     vloc_psi     :   2303.07s CPU   2309.10s WALL (    6815 calls)
     add_vuspsi   :    480.99s CPU    486.44s WALL (    6815 calls)

     General routines
     calbec       :   1651.17s CPU   1733.94s WALL (    9163 calls)
     fft          :    676.74s CPU    837.90s WALL (   18884 calls)
     ffts         :    161.78s CPU    162.05s WALL (  117174 calls)
     fftw         :   2712.53s CPU   2719.24s WALL ( 3417762 calls)
     interpolate  :     23.73s CPU     24.89s WALL (    2028 calls)
 
     Parallel routines
 
     PWSCF        :      3h52m CPU      4h 5m WALL

 
   This run was terminated on:   6:29:23  11Nov2025            

=------------------------------------------------------------------------------=
   JOB DONE.
=------------------------------------------------------------------------------=
