
     Program PWSCF v.7.2 starts on  9Nov2025 at  6: 9:19 

     This program is part of the open-source Quantum ESPRESSO suite
     for quantum simulation of materials; please cite
         "P. Giannozzi et al., J. Phys.:Condens. Matter 21 395502 (2009);
         "P. Giannozzi et al., J. Phys.:Condens. Matter 29 465901 (2017);
         "P. Giannozzi et al., J. Chem. Phys. 152 154105 (2020);
          URL http://www.quantum-espresso.org", 
     in publications or presentations arising from this work. More details at
     http://www.quantum-espresso.org/quote

     Parallel version (MPI), running on    64 processors

     MPI processes distributed on     4 nodes
     464891 MiB available memory on the printing compute node when the environment starts
 
     Reading input from ./7/H2_removed/PW.in

     Current dimensions of program PWSCF are:
     Max number of different atomic species (ntypx) = 10
     Max number of k-points (npk) =  40000
     Max angular momentum in pseudopotentials (lmaxx) =  4
     Presently no symmetry can be used with electric field

     Presently stress not available with electric field and gates

     file Ni.pbe-n-rrkjus_psl.1.0.0.UPF: wavefunction(s)  3D renormalized
     file Mn.pbe-spn-rrkjus_psl.0.3.1.UPF: wavefunction(s)  3D renormalized
     file O.pbe-rrkjus.UPF: wavefunction(s)  2S renormalized
     file H.pbe-rrkjus.UPF: wavefunction(s)  1S renormalized

     gamma-point specific algorithms are used
 
     R & G space division:  proc/nbgrp/npool/nimage =      64
     Subspace diagonalization in iterative solution of the eigenvalue problem:
     one sub-group per band group will be used
     custom distributed-memory algorithm (size of sub-group:  7*  7 procs)

 
     Parallelization info
     --------------------
     sticks:   dense  smooth     PW     G-vecs:    dense   smooth      PW
     Min         214      85     20                61830    15614    1928
     Max         216      86     22                61864    15658    1982
     Sum       13727    5503   1375              3958051  1001255  125211
 
     Using Slab Decomposition
 


     bravais-lattice index     =            0
     lattice parameter (alat)  =      17.8532  a.u.
     unit-cell volume          =   20962.6682 (a.u.)^3
     number of atoms/cell      =          158
     number of atomic types    =            5
     number of electrons       =      1108.00
     number of Kohn-Sham states=          665
     kinetic-energy cutoff     =      50.0000  Ry
     charge density cutoff     =     500.0000  Ry
     scf convergence threshold =      1.0E-06
     mixing beta               =       0.1000
     number of iterations used =            8  local-TF  mixing
     energy convergence thresh.=      1.0E-04
     force convergence thresh. =      1.0E-03
     Exchange-correlation=  SLA  PW   PBE  PBE
                           (   1   4   3   4   0   0   0)
     nstep                     =         1000


     celldm(1)=  17.853155  celldm(2)=   0.000000  celldm(3)=   0.000000
     celldm(4)=   0.000000  celldm(5)=   0.000000  celldm(6)=   0.000000

     crystal axes: (cart. coord. in units of alat)
               a(1) = (   1.000000   0.000000   0.000000 )  
               a(2) = (   0.003237   1.081997   0.000000 )  
               a(3) = (   0.000000   0.000000   3.404673 )  

     reciprocal axes: (cart. coord. in units 2 pi/alat)
               b(1) = (  1.000000 -0.002992  0.000000 )  
               b(2) = (  0.000000  0.924217  0.000000 )  
               b(3) = (  0.000000  0.000000  0.293714 )  


     PseudoPot. # 1 for Ni read from file:
     ~/PSEUDO/Ni.pbe-n-rrkjus_psl.1.0.0.UPF
     MD5 check sum: Not computed, couldn't open file
     Pseudo is Ultrasoft + core correction, Zval = 10.0
     Generated using "atomic" code by A. Dal Corso  v.5.1.2
     Using radial grid of 1195 points,  6 beta functions with: 
                l(1) =   0
                l(2) =   0
                l(3) =   1
                l(4) =   1
                l(5) =   2
                l(6) =   2
     Q(r) pseudized with 0 coefficients 


     PseudoPot. # 2 for Mn read from file:
     ~/PSEUDO/Mn.pbe-spn-rrkjus_psl.0.3.1.UPF
     MD5 check sum: Not computed, couldn't open file
     Pseudo is Ultrasoft + core correction, Zval = 15.0
     Generated using &quot;atomic&quot; code by A. Dal Corso  v.6.2.2
     Using radial grid of 1187 points,  6 beta functions with: 
                l(1) =   0
                l(2) =   0
                l(3) =   1
                l(4) =   1
                l(5) =   2
                l(6) =   2
     Q(r) pseudized with 0 coefficients 


     PseudoPot. # 3 for P  read from file:
     ~/PSEUDO/P.pbe-n-rrkjus_psl.1.0.0.UPF
     MD5 check sum: Not computed, couldn't open file
     Pseudo is Ultrasoft + core correction, Zval =  5.0
     Generated using "atomic" code by A. Dal Corso  v.5.1
     Using radial grid of 1147 points,  6 beta functions with: 
                l(1) =   0
                l(2) =   0
                l(3) =   1
                l(4) =   1
                l(5) =   2
                l(6) =   2
     Q(r) pseudized with 0 coefficients 


     PseudoPot. # 4 for O  read from file:
     ~/PSEUDO/O.pbe-rrkjus.UPF
     MD5 check sum: Not computed, couldn't open file
     Pseudo is Ultrasoft, Zval =  6.0
     Generated by new atomic code, or converted to UPF format
     Using radial grid of 1269 points,  4 beta functions with: 
                l(1) =   0
                l(2) =   0
                l(3) =   1
                l(4) =   1
     Q(r) pseudized with 0 coefficients 


     PseudoPot. # 5 for H  read from file:
     ~/PSEUDO/H.pbe-rrkjus.UPF
     MD5 check sum: Not computed, couldn't open file
     Pseudo is Ultrasoft, Zval =  1.0
     Generated by new atomic code, or converted to UPF format
     Using radial grid of 1061 points,  2 beta functions with: 
                l(1) =   0
                l(2) =   0
     Q(r) pseudized with 0 coefficients 


     atomic species   valence    mass     pseudopotential
     Ni               10.00    58.69300     Ni( 1.00)
     Mn               15.00    54.93800     Mn( 1.00)
     P                 5.00    30.97300     P ( 1.00)
     O                 6.00    15.99900     O ( 1.00)
     H                 1.00     1.00790     H ( 1.00)

     Starting magnetic structure 
     atomic species   magnetization
     Ni              1.000
     Mn              1.000
     P               1.000
     O               1.000
     H               0.000

     No symmetry found



   Cartesian axes

     site n.     atom                  positions (alat units)
         1        Ni     tau(   1) = (   0.2448189   0.8359134   1.6973663  )
         2        Ni     tau(   2) = (   0.4920952   0.7731948   1.3751709  )
         3        Mn     tau(   3) = (   0.0113021   0.2918949   1.7030146  )
         4        Ni     tau(   4) = (   0.2586115   0.2268566   1.3773031  )
         5        Ni     tau(   5) = (   1.0019827   1.0705803   1.5355036  )
         6        Ni     tau(   6) = (   0.2518099   0.5339061   1.5367175  )
         7        Ni     tau(   7) = (   0.7400999   0.8349186   1.6965034  )
         8        Mn     tau(   8) = (   0.9886961   0.7700845   1.3698484  )
         9        Mn     tau(   9) = (   0.5113421   0.2944667   1.7031766  )
        10        Ni     tau(  10) = (   0.7560857   0.2263843   1.3767860  )
        11        Ni     tau(  11) = (   0.5009386   1.0712238   1.5368048  )
        12        Ni     tau(  12) = (   0.7496978   0.5336600   1.5356262  )
        13        P      tau(  13) = (   0.2147792   0.9686896   1.3807994  )
        14        P      tau(  14) = (   0.4607377   0.6441916   1.6925325  )
        15        P      tau(  15) = (   0.2883218   0.0913464   1.6924906  )
        16        P      tau(  16) = (   0.0408981   0.4221836   1.3835698  )
        17        O      tau(  17) = (   0.1380864   0.9007819   1.5167438  )
        18        O      tau(  18) = (   0.3817439   0.7113683   1.5566049  )
        19        O      tau(  19) = (   0.3638364   0.1608547   1.5566241  )
        20        O      tau(  20) = (   0.1207568   0.3545755   1.5169439  )
        21        O      tau(  21) = (   0.1552194   0.8797563   1.2565499  )
        22        O      tau(  22) = (   0.4022820   0.7317969   1.8180074  )
        23        O      tau(  23) = (   0.3454844   0.1823965   1.8164323  )
        24        O      tau(  24) = (   0.1017019   0.3344979   1.2595801  )
        25        O      tau(  25) = (   0.0970074   0.5770714   1.3844204  )
        26        O      tau(  26) = (   0.3534166   1.0203677   1.6919952  )
        27        O      tau(  27) = (   0.3778024   0.4172402   1.3929630  )
        28        O      tau(  28) = (   0.1256171   0.0954063   1.6818505  )
        29        O      tau(  29) = (   0.1232168   0.6482422   1.6805486  )
        30        O      tau(  30) = (   0.4028533   0.4897833   1.6900940  )
        31        O      tau(  31) = (   0.1511050   0.0405554   1.3820680  )
        32        O      tau(  32) = (   0.3776556   0.9624293   1.3902499  )
        33        P      tau(  33) = (   0.7084770   0.9682119   1.3796107  )
        34        P      tau(  34) = (   0.9603154   0.6409658   1.6898190  )
        35        P      tau(  35) = (   0.7875734   0.0899770   1.6916560  )
        36        P      tau(  36) = (   0.5405152   0.4272620   1.3826203  )
        37        O      tau(  37) = (   0.6323583   0.8977630   1.5153988  )
        38        O      tau(  38) = (   0.8809646   0.7091921   1.5563547  )
        39        O      tau(  39) = (   0.8631054   0.1587239   1.5554172  )
        40        O      tau(  40) = (   0.6202581   0.3578380   1.5156420  )
        41        O      tau(  41) = (   0.6499160   0.8772596   1.2559747  )
        42        O      tau(  42) = (   0.8990171   0.7283464   1.8136232  )
        43        O      tau(  43) = (   0.8448361   0.1806154   1.8160000  )
        44        O      tau(  44) = (   0.6023096   0.3392612   1.2590189  )
        45        O      tau(  45) = (   0.5960222   0.5826131   1.3844319  )
        46        O      tau(  46) = (   0.8515023   1.0184215   1.6909026  )
        47        O      tau(  47) = (   0.8779640   0.4148900   1.3929675  )
        48        O      tau(  48) = (   0.6251159   0.0957170   1.6813763  )
        49        O      tau(  49) = (   0.6237654   0.6481585   1.6812289  )
        50        O      tau(  50) = (   0.9038046   0.4863338   1.6883304  )
        51        O      tau(  51) = (   0.6458737   0.0402574   1.3812679  )
        52        O      tau(  52) = (   0.8712434   0.9635255   1.3905021  )
        53        Ni     tau(  53) = (   0.2420320   0.8169913   1.0699082  )
        54        Ni     tau(  54) = (   0.4893084   0.7542727   0.7477128  )
        55        Mn     tau(  55) = (   0.0085152   0.2729728   1.0755565  )
        56        Ni     tau(  56) = (   0.2558246   0.2079345   0.7498450  )
        57        Ni     tau(  57) = (   0.9991959   1.0516583   0.9080455  )
        58        Ni     tau(  58) = (   0.2490231   0.5149840   0.9092594  )
        59        Ni     tau(  59) = (   0.7373131   0.8159965   1.0690453  )
        60        Mn     tau(  60) = (   0.9859093   0.7511625   0.7423903  )
        61        Mn     tau(  61) = (   0.5085552   0.2755447   1.0757185  )
        62        Ni     tau(  62) = (   0.7532989   0.2074622   0.7493279  )
        63        Ni     tau(  63) = (   0.4981517   1.0523018   0.9093468  )
        64        Ni     tau(  64) = (   0.7469109   0.5147379   0.9081681  )
        65        P      tau(  65) = (   0.2119924   0.9497675   0.7533413  )
        66        P      tau(  66) = (   0.4579509   0.6252695   1.0650744  )
        67        P      tau(  67) = (   0.2855349   0.0724244   1.0650326  )
        68        P      tau(  68) = (   0.0381112   0.4032615   0.7561117  )
        69        O      tau(  69) = (   0.1352995   0.8818598   0.8892857  )
        70        O      tau(  70) = (   0.3789570   0.6924463   0.9291468  )
        71        O      tau(  71) = (   0.3610496   0.1419327   0.9291660  )
        72        O      tau(  72) = (   0.1179700   0.3356534   0.8894858  )
        73        O      tau(  73) = (   0.1524325   0.8608343   0.6290918  )
        74        O      tau(  74) = (   0.3994952   0.7128748   1.1905493  )
        75        O      tau(  75) = (   0.3426976   0.1634744   1.1889742  )
        76        O      tau(  76) = (   0.0989151   0.3155758   0.6321220  )
        77        O      tau(  77) = (   0.0942206   0.5581494   0.7569623  )
        78        O      tau(  78) = (   0.3506297   1.0014456   1.0645371  )
        79        O      tau(  79) = (   0.3750155   0.3983181   0.7655049  )
        80        O      tau(  80) = (   0.1228303   0.0764842   1.0543924  )
        81        O      tau(  81) = (   0.1204299   0.6293201   1.0530905  )
        82        O      tau(  82) = (   0.4000664   0.4708612   1.0626359  )
        83        O      tau(  83) = (   0.1483182   0.0216333   0.7546099  )
        84        O      tau(  84) = (   0.3748687   0.9435072   0.7627918  )
        85        P      tau(  85) = (   0.7056901   0.9492898   0.7521526  )
        86        P      tau(  86) = (   0.9575286   0.6220438   1.0623609  )
        87        P      tau(  87) = (   0.7847866   0.0710549   1.0641979  )
        88        P      tau(  88) = (   0.5377283   0.4083400   0.7551622  )
        89        O      tau(  89) = (   0.6295714   0.8788409   0.8879407  )
        90        O      tau(  90) = (   0.8781778   0.6902700   0.9288966  )
        91        O      tau(  91) = (   0.8603186   0.1398018   0.9279591  )
        92        O      tau(  92) = (   0.6174712   0.3389159   0.8881839  )
        93        O      tau(  93) = (   0.6471291   0.8583376   0.6285166  )
        94        O      tau(  94) = (   0.8962302   0.7094244   1.1861651  )
        95        O      tau(  95) = (   0.8420493   0.1616933   1.1885419  )
        96        O      tau(  96) = (   0.5995227   0.3203391   0.6315608  )
        97        O      tau(  97) = (   0.5932354   0.5636910   0.7569738  )
        98        O      tau(  98) = (   0.8487155   0.9994995   1.0634446  )
        99        O      tau(  99) = (   0.8751772   0.3959680   0.7655094  )
       100        O      tau( 100) = (   0.6223291   0.0767949   1.0539182  )
       101        O      tau( 101) = (   0.6209785   0.6292365   1.0537708  )
       102        O      tau( 102) = (   0.9010178   0.4674118   1.0608723  )
       103        O      tau( 103) = (   0.6430869   0.0213354   0.7538098  )
       104        O      tau( 104) = (   0.8684566   0.9446034   0.7630440  )
       105        Ni     tau( 105) = (   0.2392451   0.7980692   0.4424501  )
       106        Ni     tau( 106) = (   0.4865215   0.7353506   0.1202547  )
       107        Mn     tau( 107) = (   0.0057284   0.2540508   0.4480984  )
       108        Ni     tau( 108) = (   0.2530377   0.1890124   0.1223869  )
       109        Ni     tau( 109) = (   0.9964090   1.0327362   0.2805874  )
       110        Ni     tau( 110) = (   0.2462362   0.4960619   0.2818013  )
       111        Ni     tau( 111) = (   0.7345262   0.7970744   0.4415872  )
       112        Mn     tau( 112) = (   0.9831224   0.7322404   0.1149322  )
       113        Mn     tau( 113) = (   0.5057684   0.2566226   0.4482604  )
       114        Ni     tau( 114) = (   0.7505120   0.1885401   0.1218698  )
       115        Ni     tau( 115) = (   0.4953648   1.0333797   0.2818887  )
       116        Ni     tau( 116) = (   0.7441241   0.4958159   0.2807100  )
       117        P      tau( 117) = (   0.2092055   0.9308455   0.1258832  )
       118        P      tau( 118) = (   0.4551640   0.6063475   0.4376163  )
       119        P      tau( 119) = (   0.2827481   0.0535023   0.4375745  )
       120        P      tau( 120) = (   0.0353243   0.3843395   0.1286536  )
       121        O      tau( 121) = (   0.1325127   0.8629378   0.2618276  )
       122        O      tau( 122) = (   0.3761702   0.6735242   0.3016887  )
       123        O      tau( 123) = (   0.3582627   0.1230106   0.3017079  )
       124        O      tau( 124) = (   0.1151831   0.3167313   0.2620277  )
       125        O      tau( 125) = (   0.1496456   0.8419122   0.0016337  )
       126        O      tau( 126) = (   0.3967083   0.6939527   0.5630912  )
       127        O      tau( 127) = (   0.3399107   0.1445523   0.5615161  )
       128        O      tau( 128) = (   0.0961282   0.2966537   0.0046639  )
       129        O      tau( 129) = (   0.0914337   0.5392273   0.1295042  )
       130        O      tau( 130) = (   0.3478428   0.9825235   0.4370790  )
       131        O      tau( 131) = (   0.3722287   0.3793961   0.1380469  )
       132        O      tau( 132) = (   0.1200434   0.0575621   0.4269343  )
       133        O      tau( 133) = (   0.1176431   0.6103980   0.4256324  )
       134        O      tau( 134) = (   0.3972796   0.4519391   0.4351778  )
       135        O      tau( 135) = (   0.1455313   0.0027113   0.1271518  )
       136        O      tau( 136) = (   0.3720819   0.9245852   0.1353338  )
       137        P      tau( 137) = (   0.7029032   0.9303678   0.1246945  )
       138        P      tau( 138) = (   0.9547417   0.6031217   0.4349028  )
       139        P      tau( 139) = (   0.7819997   0.0521328   0.4367398  )
       140        P      tau( 140) = (   0.5349415   0.3894179   0.1277041  )
       141        O      tau( 141) = (   0.6267846   0.8599188   0.2604826  )
       142        O      tau( 142) = (   0.8753909   0.6713480   0.3014385  )
       143        O      tau( 143) = (   0.8575317   0.1208797   0.3005010  )
       144        O      tau( 144) = (   0.6146843   0.3199938   0.2607258  )
       145        O      tau( 145) = (   0.6443422   0.8394155   0.0010585  )
       146        O      tau( 146) = (   0.8934434   0.6905023   0.5587070  )
       147        O      tau( 147) = (   0.8392624   0.1427713   0.5610838  )
       148        O      tau( 148) = (   0.5967359   0.3014171   0.0041027  )
       149        O      tau( 149) = (   0.5904485   0.5447689   0.1295157  )
       150        O      tau( 150) = (   0.8459286   0.9805774   0.4359865  )
       151        O      tau( 151) = (   0.8723903   0.3770459   0.1380513  )
       152        O      tau( 152) = (   0.6195422   0.0578729   0.4264602  )
       153        O      tau( 153) = (   0.6181917   0.6103144   0.4263127  )
       154        O      tau( 154) = (   0.8982309   0.4484897   0.4334142  )
       155        O      tau( 155) = (   0.6403000   0.0024133   0.1263517  )
       156        O      tau( 156) = (   0.8656697   0.9256814   0.1355859  )
       157        O      tau( 157) = (   0.6258695   0.9380290   1.8680576  )
       158        H      tau( 158) = (   0.5395877   0.8721278   1.8706555  )

     -------------------------------------------------
     Parameters for Dispersion (Grimme-D2) Correction:
     -------------------------------------------------
       atom      VdW radius       C_6     

        Ni         2.952        374.666
        Mn         2.952        374.666
        P          3.222        271.980
        O          2.536         24.284
        H          1.892          4.857

     number of k points=     1  Gaussian smearing, width (Ry)=  0.0100
                       cart. coord. in units 2pi/alat
        k(    1) = (   0.0000000   0.0000000   0.0000000), wk =   1.0000000

     Dense  grid:  1979026 G-vectors     FFT dimensions: ( 128, 144, 450)

     Smooth grid:   500628 G-vectors     FFT dimensions: (  81,  90, 288)

     Estimated max dynamical RAM per process >     333.40 MB

     Estimated total dynamical RAM >      20.84 GB

     Check: negative core charge=   -0.000002
     Generating pointlists ...
     new r_m :   0.0883 (alat units)  1.5768 (a.u.) for type    1
     new r_m :   0.0884 (alat units)  1.5790 (a.u.) for type    2
     new r_m :   0.0672 (alat units)  1.1995 (a.u.) for type    3
     new r_m :   0.0448 (alat units)  0.7998 (a.u.) for type    4
     new r_m :   0.0448 (alat units)  0.7998 (a.u.) for type    5

     Initial potential from superposition of free atoms

     starting charge    1107.8886, renormalised to    1108.0000

     negative rho (up, down):  1.500E-03 4.687E-04
 
     Adding external electric field

     Computed dipole along edir(3) : 
        Dipole                1.6371 Ry au,          4.1612 Debye
        Dipole field          0.0010 Ry au, 
 
        Potential amp.       -0.1074 Ry
        Total length         54.7057 bohr
 
 
     Adding external electric field

     Computed dipole along edir(3) : 
        Dipole                1.6371 Ry au,          4.1612 Debye
        Dipole field          0.0010 Ry au, 
 
        Potential amp.       -0.1074 Ry
        Total length         54.7057 bohr
 
     Starting wfcs are  818 randomized atomic wfcs

     total cpu time spent up to now is       10.5 secs

     Self-consistent Calculation

     iteration #  1     ecut=    50.00 Ry     beta= 0.10
     Davidson diagonalization with overlap
     ethr =  1.00E-02,  avg # of iterations =  5.5

     negative rho (up, down):  4.532E-01 1.362E-06
 
     Adding external electric field

     Computed dipole along edir(3) : 
        Dipole               -3.2599 Ry au,         -8.2859 Debye
        Dipole field         -0.0020 Ry au, 
 
        Potential amp.        0.2138 Ry
        Total length         54.7057 bohr
 
 
     Adding external electric field

     Computed dipole along edir(3) : 
        Dipole               -3.2599 Ry au,         -8.2859 Debye
        Dipole field         -0.0020 Ry au, 
 
        Potential amp.        0.2138 Ry
        Total length         54.7057 bohr
 

     total cpu time spent up to now is       36.4 secs

     total energy              =   -7859.67751228 Ry
     estimated scf accuracy    <     712.66534983 Ry

     total magnetization       =   222.00 Bohr mag/cell
     absolute magnetization    =   319.84 Bohr mag/cell

     iteration #  2     ecut=    50.00 Ry     beta= 0.10
     Davidson diagonalization with overlap
     ethr =  1.00E-02,  avg # of iterations =  2.0

     negative rho (up, down):  4.125E-01 8.417E-07
 
     Adding external electric field

     Computed dipole along edir(3) : 
        Dipole               -2.5036 Ry au,         -6.3635 Debye
        Dipole field         -0.0015 Ry au, 
 
        Potential amp.        0.1642 Ry
        Total length         54.7057 bohr
 
 
     Adding external electric field

     Computed dipole along edir(3) : 
        Dipole               -2.5036 Ry au,         -6.3635 Debye
        Dipole field         -0.0015 Ry au, 
 
        Potential amp.        0.1642 Ry
        Total length         54.7057 bohr
 

     total cpu time spent up to now is       51.4 secs

     total energy              =   -7942.86556285 Ry
     estimated scf accuracy    <     148.01762277 Ry

     total magnetization       =   160.14 Bohr mag/cell
     absolute magnetization    =   209.51 Bohr mag/cell

     iteration #  3     ecut=    50.00 Ry     beta= 0.10
     Davidson diagonalization with overlap
     ethr =  1.00E-02,  avg # of iterations =  1.0

     negative rho (up, down):  3.572E-01 6.513E-07
 
     Adding external electric field

     Computed dipole along edir(3) : 
        Dipole               -1.9936 Ry au,         -5.0671 Debye
        Dipole field         -0.0012 Ry au, 
 
        Potential amp.        0.1308 Ry
        Total length         54.7057 bohr
 
 
     Adding external electric field

     Computed dipole along edir(3) : 
        Dipole               -1.9936 Ry au,         -5.0671 Debye
        Dipole field         -0.0012 Ry au, 
 
        Potential amp.        0.1308 Ry
        Total length         54.7057 bohr
 

     total cpu time spent up to now is       62.7 secs

     total energy              =   -7977.40822005 Ry
     estimated scf accuracy    <     103.10488678 Ry

     total magnetization       =   138.85 Bohr mag/cell
     absolute magnetization    =   189.76 Bohr mag/cell

     iteration #  4     ecut=    50.00 Ry     beta= 0.10
     Davidson diagonalization with overlap
     ethr =  9.31E-03,  avg # of iterations =  1.0

     negative rho (up, down):  2.923E-01 1.258E-07
 
     Adding external electric field

     Computed dipole along edir(3) : 
        Dipole               -2.1184 Ry au,         -5.3844 Debye
        Dipole field         -0.0013 Ry au, 
 
        Potential amp.        0.1389 Ry
        Total length         54.7057 bohr
 
 
     Adding external electric field

     Computed dipole along edir(3) : 
        Dipole               -2.1184 Ry au,         -5.3844 Debye
        Dipole field         -0.0013 Ry au, 
 
        Potential amp.        0.1389 Ry
        Total length         54.7057 bohr
 

     total cpu time spent up to now is       73.6 secs

     total energy              =   -8003.30770909 Ry
     estimated scf accuracy    <      81.88415654 Ry

     total magnetization       =   120.67 Bohr mag/cell
     absolute magnetization    =   174.18 Bohr mag/cell

     iteration #  5     ecut=    50.00 Ry     beta= 0.10
     Davidson diagonalization with overlap
     ethr =  7.39E-03,  avg # of iterations =  1.0

     negative rho (up, down):  3.607E-02 0.000E+00
 
     Adding external electric field

     Computed dipole along edir(3) : 
        Dipole               -1.5870 Ry au,         -4.0338 Debye
        Dipole field         -0.0010 Ry au, 
 
        Potential amp.        0.1041 Ry
        Total length         54.7057 bohr
 
 
     Adding external electric field

     Computed dipole along edir(3) : 
        Dipole               -1.5870 Ry au,         -4.0338 Debye
        Dipole field         -0.0010 Ry au, 
 
        Potential amp.        0.1041 Ry
        Total length         54.7057 bohr
 

     total cpu time spent up to now is       85.4 secs

     total energy              =   -8064.26685947 Ry
     estimated scf accuracy    <      67.59196421 Ry

     total magnetization       =   106.17 Bohr mag/cell
     absolute magnetization    =   159.87 Bohr mag/cell

     iteration #  6     ecut=    50.00 Ry     beta= 0.10
     Davidson diagonalization with overlap
     ethr =  6.10E-03,  avg # of iterations =  1.0

     negative rho (up, down):  8.421E-04 5.910E-04
 
     Adding external electric field

     Computed dipole along edir(3) : 
        Dipole               -1.1634 Ry au,         -2.9570 Debye
        Dipole field         -0.0007 Ry au, 
 
        Potential amp.        0.0763 Ry
        Total length         54.7057 bohr
 
 
     Adding external electric field

     Computed dipole along edir(3) : 
        Dipole               -1.1634 Ry au,         -2.9570 Debye
        Dipole field         -0.0007 Ry au, 
 
        Potential amp.        0.0763 Ry
        Total length         54.7057 bohr
 

     total cpu time spent up to now is       96.7 secs

     total energy              =   -8076.18839342 Ry
     estimated scf accuracy    <      15.14135822 Ry

     total magnetization       =   100.00 Bohr mag/cell
     absolute magnetization    =   132.15 Bohr mag/cell

     iteration #  7     ecut=    50.00 Ry     beta= 0.10
     Davidson diagonalization with overlap
     ethr =  1.37E-03,  avg # of iterations =  6.5

     negative rho (up, down):  8.266E-04 5.612E-04
 
     Adding external electric field

     Computed dipole along edir(3) : 
        Dipole               -1.1898 Ry au,         -3.0243 Debye
        Dipole field         -0.0007 Ry au, 
 
        Potential amp.        0.0780 Ry
        Total length         54.7057 bohr
 
 
     Adding external electric field

     Computed dipole along edir(3) : 
        Dipole               -1.1898 Ry au,         -3.0243 Debye
        Dipole field         -0.0007 Ry au, 
 
        Potential amp.        0.0780 Ry
        Total length         54.7057 bohr
 

     total cpu time spent up to now is      117.0 secs

     total energy              =   -8078.81242067 Ry
     estimated scf accuracy    <      36.18117936 Ry

     total magnetization       =    69.60 Bohr mag/cell
     absolute magnetization    =    87.34 Bohr mag/cell

     iteration #  8     ecut=    50.00 Ry     beta= 0.10
     Davidson diagonalization with overlap
     ethr =  1.37E-03,  avg # of iterations =  1.0

     negative rho (up, down):  1.132E-03 7.380E-04
 
     Adding external electric field

     Computed dipole along edir(3) : 
        Dipole               -1.0593 Ry au,         -2.6924 Debye
        Dipole field         -0.0006 Ry au, 
 
        Potential amp.        0.0695 Ry
        Total length         54.7057 bohr
 
 
     Adding external electric field

     Computed dipole along edir(3) : 
        Dipole               -1.0593 Ry au,         -2.6924 Debye
        Dipole field         -0.0006 Ry au, 
 
        Potential amp.        0.0695 Ry
        Total length         54.7057 bohr
 

     total cpu time spent up to now is      127.8 secs

     total energy              =   -8078.67729020 Ry
     estimated scf accuracy    <      37.49515333 Ry

     total magnetization       =    69.49 Bohr mag/cell
     absolute magnetization    =    86.89 Bohr mag/cell

     iteration #  9     ecut=    50.00 Ry     beta= 0.10
     Davidson diagonalization with overlap
     ethr =  1.37E-03,  avg # of iterations =  1.0

     negative rho (up, down):  3.385E-03 2.126E-03
 
     Adding external electric field

     Computed dipole along edir(3) : 
        Dipole               -0.8130 Ry au,         -2.0665 Debye
        Dipole field         -0.0005 Ry au, 
 
        Potential amp.        0.0533 Ry
        Total length         54.7057 bohr
 
 
     Adding external electric field

     Computed dipole along edir(3) : 
        Dipole               -0.8130 Ry au,         -2.0665 Debye
        Dipole field         -0.0005 Ry au, 
 
        Potential amp.        0.0533 Ry
        Total length         54.7057 bohr
 

     total cpu time spent up to now is      139.3 secs

     total energy              =   -8078.30134830 Ry
     estimated scf accuracy    <      32.62682520 Ry

     total magnetization       =    70.03 Bohr mag/cell
     absolute magnetization    =    86.84 Bohr mag/cell

     iteration # 10     ecut=    50.00 Ry     beta= 0.10
     Davidson diagonalization with overlap
     ethr =  1.37E-03,  avg # of iterations =  1.0

     negative rho (up, down):  2.362E-03 9.873E-04
 
     Adding external electric field

     Computed dipole along edir(3) : 
        Dipole               -0.8534 Ry au,         -2.1691 Debye
        Dipole field         -0.0005 Ry au, 
 
        Potential amp.        0.0560 Ry
        Total length         54.7057 bohr
 
 
     Adding external electric field

     Computed dipole along edir(3) : 
        Dipole               -0.8534 Ry au,         -2.1691 Debye
        Dipole field         -0.0005 Ry au, 
 
        Potential amp.        0.0560 Ry
        Total length         54.7057 bohr
 

     total cpu time spent up to now is      150.5 secs

     total energy              =   -8078.39174328 Ry
     estimated scf accuracy    <      19.86270127 Ry

     total magnetization       =    74.95 Bohr mag/cell
     absolute magnetization    =    90.26 Bohr mag/cell

     iteration # 11     ecut=    50.00 Ry     beta= 0.10
     Davidson diagonalization with overlap
     ethr =  1.37E-03,  avg # of iterations =  1.0

     negative rho (up, down):  1.443E-02 1.242E-02
 
     Adding external electric field

     Computed dipole along edir(3) : 
        Dipole               -0.6850 Ry au,         -1.7412 Debye
        Dipole field         -0.0004 Ry au, 
 
        Potential amp.        0.0449 Ry
        Total length         54.7057 bohr
 
 
     Adding external electric field

     Computed dipole along edir(3) : 
        Dipole               -0.6850 Ry au,         -1.7412 Debye
        Dipole field         -0.0004 Ry au, 
 
        Potential amp.        0.0449 Ry
        Total length         54.7057 bohr
 

     total cpu time spent up to now is      161.3 secs

     total energy              =   -8077.94824754 Ry
     estimated scf accuracy    <      21.44959356 Ry

     total magnetization       =    74.70 Bohr mag/cell
     absolute magnetization    =    90.20 Bohr mag/cell

     iteration # 12     ecut=    50.00 Ry     beta= 0.10
     Davidson diagonalization with overlap
     ethr =  1.37E-03,  avg # of iterations =  1.0

     negative rho (up, down):  9.171E-03 1.042E-02
 
     Adding external electric field

     Computed dipole along edir(3) : 
        Dipole               -0.7450 Ry au,         -1.8935 Debye
        Dipole field         -0.0004 Ry au, 
 
        Potential amp.        0.0489 Ry
        Total length         54.7057 bohr
 
 
     Adding external electric field

     Computed dipole along edir(3) : 
        Dipole               -0.7450 Ry au,         -1.8935 Debye
        Dipole field         -0.0004 Ry au, 
 
        Potential amp.        0.0489 Ry
        Total length         54.7057 bohr
 

     total cpu time spent up to now is      172.1 secs

     total energy              =   -8078.12117712 Ry
     estimated scf accuracy    <       7.57165972 Ry

     total magnetization       =    85.38 Bohr mag/cell
     absolute magnetization    =    98.72 Bohr mag/cell

     iteration # 13     ecut=    50.00 Ry     beta= 0.10
     Davidson diagonalization with overlap
     ethr =  6.83E-04,  avg # of iterations =  1.5

     negative rho (up, down):  1.628E-02 1.880E-02
 
     Adding external electric field

     Computed dipole along edir(3) : 
        Dipole               -0.8458 Ry au,         -2.1498 Debye
        Dipole field         -0.0005 Ry au, 
 
        Potential amp.        0.0555 Ry
        Total length         54.7057 bohr
 
 
     Adding external electric field

     Computed dipole along edir(3) : 
        Dipole               -0.8458 Ry au,         -2.1498 Debye
        Dipole field         -0.0005 Ry au, 
 
        Potential amp.        0.0555 Ry
        Total length         54.7057 bohr
 

     total cpu time spent up to now is      183.8 secs

     total energy              =   -8078.01166488 Ry
     estimated scf accuracy    <      12.65304182 Ry

     total magnetization       =    79.08 Bohr mag/cell
     absolute magnetization    =    92.82 Bohr mag/cell

     iteration # 14     ecut=    50.00 Ry     beta= 0.10
     Davidson diagonalization with overlap
     ethr =  6.83E-04,  avg # of iterations =  1.0

     negative rho (up, down):  4.255E-02 4.450E-02
 
     Adding external electric field

     Computed dipole along edir(3) : 
        Dipole               -0.8929 Ry au,         -2.2695 Debye
        Dipole field         -0.0005 Ry au, 
 
        Potential amp.        0.0586 Ry
        Total length         54.7057 bohr
 
 
     Adding external electric field

     Computed dipole along edir(3) : 
        Dipole               -0.8929 Ry au,         -2.2695 Debye
        Dipole field         -0.0005 Ry au, 
 
        Potential amp.        0.0586 Ry
        Total length         54.7057 bohr
 

     total cpu time spent up to now is      194.5 secs

     total energy              =   -8077.79968039 Ry
     estimated scf accuracy    <       7.26596130 Ry

     total magnetization       =    83.79 Bohr mag/cell
     absolute magnetization    =    96.43 Bohr mag/cell

     iteration # 15     ecut=    50.00 Ry     beta= 0.10
     Davidson diagonalization with overlap
     ethr =  6.56E-04,  avg # of iterations =  1.5

     negative rho (up, down):  3.352E-02 3.931E-02
 
     Adding external electric field

     Computed dipole along edir(3) : 
        Dipole               -0.9297 Ry au,         -2.3631 Debye
        Dipole field         -0.0006 Ry au, 
 
        Potential amp.        0.0610 Ry
        Total length         54.7057 bohr
 
 
     Adding external electric field

     Computed dipole along edir(3) : 
        Dipole               -0.9297 Ry au,         -2.3631 Debye
        Dipole field         -0.0006 Ry au, 
 
        Potential amp.        0.0610 Ry
        Total length         54.7057 bohr
 

     total cpu time spent up to now is      205.6 secs

     total energy              =   -8077.98024649 Ry
     estimated scf accuracy    <       1.44986022 Ry

     total magnetization       =    97.37 Bohr mag/cell
     absolute magnetization    =   107.31 Bohr mag/cell

     iteration # 16     ecut=    50.00 Ry     beta= 0.10
     Davidson diagonalization with overlap
     ethr =  1.31E-04,  avg # of iterations =  2.5

     negative rho (up, down):  2.748E-02 3.502E-02
 
     Adding external electric field

     Computed dipole along edir(3) : 
        Dipole               -1.1602 Ry au,         -2.9489 Debye
        Dipole field         -0.0007 Ry au, 
 
        Potential amp.        0.0761 Ry
        Total length         54.7057 bohr
 
 
     Adding external electric field

     Computed dipole along edir(3) : 
        Dipole               -1.1602 Ry au,         -2.9489 Debye
        Dipole field         -0.0007 Ry au, 
 
        Potential amp.        0.0761 Ry
        Total length         54.7057 bohr
 

     total cpu time spent up to now is      217.4 secs

     total energy              =   -8078.06191342 Ry
     estimated scf accuracy    <       1.27131495 Ry

     total magnetization       =    94.12 Bohr mag/cell
     absolute magnetization    =   103.60 Bohr mag/cell

     iteration # 17     ecut=    50.00 Ry     beta= 0.10
     Davidson diagonalization with overlap
     ethr =  1.15E-04,  avg # of iterations =  1.5

     negative rho (up, down):  2.921E-02 3.662E-02
 
     Adding external electric field

     Computed dipole along edir(3) : 
        Dipole               -1.1382 Ry au,         -2.8931 Debye
        Dipole field         -0.0007 Ry au, 
 
        Potential amp.        0.0747 Ry
        Total length         54.7057 bohr
 
 
     Adding external electric field

     Computed dipole along edir(3) : 
        Dipole               -1.1382 Ry au,         -2.8931 Debye
        Dipole field         -0.0007 Ry au, 
 
        Potential amp.        0.0747 Ry
        Total length         54.7057 bohr
 

     total cpu time spent up to now is      229.0 secs

     total energy              =   -8078.14983115 Ry
     estimated scf accuracy    <       2.50358742 Ry

     total magnetization       =    90.69 Bohr mag/cell
     absolute magnetization    =    98.81 Bohr mag/cell

     iteration # 18     ecut=    50.00 Ry     beta= 0.10
     Davidson diagonalization with overlap
     ethr =  1.15E-04,  avg # of iterations =  1.5

     negative rho (up, down):  2.471E-02 3.074E-02
 
     Adding external electric field

     Computed dipole along edir(3) : 
        Dipole               -1.1468 Ry au,         -2.9150 Debye
        Dipole field         -0.0007 Ry au, 
 
        Potential amp.        0.0752 Ry
        Total length         54.7057 bohr
 
 
     Adding external electric field

     Computed dipole along edir(3) : 
        Dipole               -1.1468 Ry au,         -2.9150 Debye
        Dipole field         -0.0007 Ry au, 
 
        Potential amp.        0.0752 Ry
        Total length         54.7057 bohr
 

     total cpu time spent up to now is      242.0 secs

     total energy              =   -8078.23869838 Ry
     estimated scf accuracy    <       0.82873915 Ry

     total magnetization       =    95.16 Bohr mag/cell
     absolute magnetization    =   101.41 Bohr mag/cell

     iteration # 19     ecut=    50.00 Ry     beta= 0.10
     Davidson diagonalization with overlap
     ethr =  7.48E-05,  avg # of iterations = 11.5

     negative rho (up, down):  1.583E-02 2.007E-02
 
     Adding external electric field

     Computed dipole along edir(3) : 
        Dipole               -1.2045 Ry au,         -3.0614 Debye
        Dipole field         -0.0007 Ry au, 
 
        Potential amp.        0.0790 Ry
        Total length         54.7057 bohr
 
 
     Adding external electric field

     Computed dipole along edir(3) : 
        Dipole               -1.2045 Ry au,         -3.0614 Debye
        Dipole field         -0.0007 Ry au, 
 
        Potential amp.        0.0790 Ry
        Total length         54.7057 bohr
 

     total cpu time spent up to now is      264.3 secs

     total energy              =   -8078.37162606 Ry
     estimated scf accuracy    <       0.62811248 Ry

     total magnetization       =    95.38 Bohr mag/cell
     absolute magnetization    =   101.01 Bohr mag/cell

     iteration # 20     ecut=    50.00 Ry     beta= 0.10
     Davidson diagonalization with overlap
     ethr =  5.67E-05,  avg # of iterations =  2.0

     negative rho (up, down):  8.045E-03 9.920E-03
 
     Adding external electric field

     Computed dipole along edir(3) : 
        Dipole               -1.2038 Ry au,         -3.0597 Debye
        Dipole field         -0.0007 Ry au, 
 
        Potential amp.        0.0790 Ry
        Total length         54.7057 bohr
 
 
     Adding external electric field

     Computed dipole along edir(3) : 
        Dipole               -1.2038 Ry au,         -3.0597 Debye
        Dipole field         -0.0007 Ry au, 
 
        Potential amp.        0.0790 Ry
        Total length         54.7057 bohr
 

     total cpu time spent up to now is      277.2 secs

     total energy              =   -8078.44487829 Ry
     estimated scf accuracy    <       0.51190403 Ry

     total magnetization       =    95.91 Bohr mag/cell
     absolute magnetization    =    99.70 Bohr mag/cell

     iteration # 21     ecut=    50.00 Ry     beta= 0.10
     Davidson diagonalization with overlap
     ethr =  4.62E-05,  avg # of iterations =  2.0

     negative rho (up, down):  5.326E-03 6.419E-03
 
     Adding external electric field

     Computed dipole along edir(3) : 
        Dipole               -1.1898 Ry au,         -3.0243 Debye
        Dipole field         -0.0007 Ry au, 
 
        Potential amp.        0.0780 Ry
        Total length         54.7057 bohr
 
 
     Adding external electric field

     Computed dipole along edir(3) : 
        Dipole               -1.1898 Ry au,         -3.0243 Debye
        Dipole field         -0.0007 Ry au, 
 
        Potential amp.        0.0780 Ry
        Total length         54.7057 bohr
 

     total cpu time spent up to now is      289.9 secs

     total energy              =   -8078.47724168 Ry
     estimated scf accuracy    <       0.13592674 Ry

     total magnetization       =    97.90 Bohr mag/cell
     absolute magnetization    =    99.85 Bohr mag/cell

     iteration # 22     ecut=    50.00 Ry     beta= 0.10
     Davidson diagonalization with overlap
     ethr =  1.23E-05,  avg # of iterations = 12.0

     negative rho (up, down):  2.728E-03 3.495E-03
 
     Adding external electric field

     Computed dipole along edir(3) : 
        Dipole               -1.1624 Ry au,         -2.9546 Debye
        Dipole field         -0.0007 Ry au, 
 
        Potential amp.        0.0762 Ry
        Total length         54.7057 bohr
 
 
     Adding external electric field

     Computed dipole along edir(3) : 
        Dipole               -1.1624 Ry au,         -2.9546 Debye
        Dipole field         -0.0007 Ry au, 
 
        Potential amp.        0.0762 Ry
        Total length         54.7057 bohr
 

     total cpu time spent up to now is      315.1 secs

     total energy              =   -8078.47759975 Ry
     estimated scf accuracy    <       0.13512898 Ry

     total magnetization       =    98.12 Bohr mag/cell
     absolute magnetization    =    99.71 Bohr mag/cell

     iteration # 23     ecut=    50.00 Ry     beta= 0.10
     Davidson diagonalization with overlap
     ethr =  1.22E-05,  avg # of iterations =  2.0

     negative rho (up, down):  1.356E-03 1.668E-03
 
     Adding external electric field

     Computed dipole along edir(3) : 
        Dipole               -1.1315 Ry au,         -2.8760 Debye
        Dipole field         -0.0007 Ry au, 
 
        Potential amp.        0.0742 Ry
        Total length         54.7057 bohr
 
 
     Adding external electric field

     Computed dipole along edir(3) : 
        Dipole               -1.1315 Ry au,         -2.8760 Debye
        Dipole field         -0.0007 Ry au, 
 
        Potential amp.        0.0742 Ry
        Total length         54.7057 bohr
 

     total cpu time spent up to now is      327.4 secs

     total energy              =   -8078.47947075 Ry
     estimated scf accuracy    <       0.06876915 Ry

     total magnetization       =    97.83 Bohr mag/cell
     absolute magnetization    =    99.23 Bohr mag/cell

     iteration # 24     ecut=    50.00 Ry     beta= 0.10
     Davidson diagonalization with overlap
     ethr =  6.21E-06,  avg # of iterations = 10.0

     negative rho (up, down):  4.366E-04 4.889E-04
 
     Adding external electric field

     Computed dipole along edir(3) : 
        Dipole               -1.0868 Ry au,         -2.7622 Debye
        Dipole field         -0.0007 Ry au, 
 
        Potential amp.        0.0713 Ry
        Total length         54.7057 bohr
 
 
     Adding external electric field

     Computed dipole along edir(3) : 
        Dipole               -1.0868 Ry au,         -2.7622 Debye
        Dipole field         -0.0007 Ry au, 
 
        Potential amp.        0.0713 Ry
        Total length         54.7057 bohr
 

     total cpu time spent up to now is      342.7 secs

     total energy              =   -8078.47822273 Ry
     estimated scf accuracy    <       0.06070918 Ry

     total magnetization       =    98.00 Bohr mag/cell
     absolute magnetization    =    99.32 Bohr mag/cell

     iteration # 25     ecut=    50.00 Ry     beta= 0.10
     Davidson diagonalization with overlap
     ethr =  5.48E-06,  avg # of iterations =  9.5

     negative rho (up, down):  3.093E-04 3.243E-04
 
     Adding external electric field

     Computed dipole along edir(3) : 
        Dipole               -1.0637 Ry au,         -2.7035 Debye
        Dipole field         -0.0006 Ry au, 
 
        Potential amp.        0.0698 Ry
        Total length         54.7057 bohr
 
 
     Adding external electric field

     Computed dipole along edir(3) : 
        Dipole               -1.0637 Ry au,         -2.7035 Debye
        Dipole field         -0.0006 Ry au, 
 
        Potential amp.        0.0698 Ry
        Total length         54.7057 bohr
 

     total cpu time spent up to now is      358.6 secs

     total energy              =   -8078.47795947 Ry
     estimated scf accuracy    <       0.05309599 Ry

     total magnetization       =    97.92 Bohr mag/cell
     absolute magnetization    =    99.24 Bohr mag/cell

     iteration # 26     ecut=    50.00 Ry     beta= 0.10
     Davidson diagonalization with overlap
     ethr =  4.79E-06,  avg # of iterations =  2.0

     negative rho (up, down):  1.506E-04 1.793E-04
 
     Adding external electric field

     Computed dipole along edir(3) : 
        Dipole               -1.0422 Ry au,         -2.6489 Debye
        Dipole field         -0.0006 Ry au, 
 
        Potential amp.        0.0684 Ry
        Total length         54.7057 bohr
 
 
     Adding external electric field

     Computed dipole along edir(3) : 
        Dipole               -1.0422 Ry au,         -2.6489 Debye
        Dipole field         -0.0006 Ry au, 
 
        Potential amp.        0.0684 Ry
        Total length         54.7057 bohr
 

     total cpu time spent up to now is      370.7 secs

     total energy              =   -8078.47838977 Ry
     estimated scf accuracy    <       0.06103389 Ry

     total magnetization       =    97.88 Bohr mag/cell
     absolute magnetization    =    99.24 Bohr mag/cell

     iteration # 27     ecut=    50.00 Ry     beta= 0.10
     Davidson diagonalization with overlap
     ethr =  4.79E-06,  avg # of iterations =  2.0

     negative rho (up, down):  1.748E-04 2.000E-04
 
     Adding external electric field

     Computed dipole along edir(3) : 
        Dipole               -1.0521 Ry au,         -2.6741 Debye
        Dipole field         -0.0006 Ry au, 
 
        Potential amp.        0.0690 Ry
        Total length         54.7057 bohr
 
 
     Adding external electric field

     Computed dipole along edir(3) : 
        Dipole               -1.0521 Ry au,         -2.6741 Debye
        Dipole field         -0.0006 Ry au, 
 
        Potential amp.        0.0690 Ry
        Total length         54.7057 bohr
 

     total cpu time spent up to now is      382.8 secs

     total energy              =   -8078.47847367 Ry
     estimated scf accuracy    <       0.06275165 Ry

     total magnetization       =    97.76 Bohr mag/cell
     absolute magnetization    =    99.11 Bohr mag/cell

     iteration # 28     ecut=    50.00 Ry     beta= 0.10
     Davidson diagonalization with overlap
     ethr =  4.79E-06,  avg # of iterations =  1.5

     negative rho (up, down):  2.137E-04 2.291E-04
 
     Adding external electric field

     Computed dipole along edir(3) : 
        Dipole               -0.9566 Ry au,         -2.4315 Debye
        Dipole field         -0.0006 Ry au, 
 
        Potential amp.        0.0627 Ry
        Total length         54.7057 bohr
 
 
     Adding external electric field

     Computed dipole along edir(3) : 
        Dipole               -0.9566 Ry au,         -2.4315 Debye
        Dipole field         -0.0006 Ry au, 
 
        Potential amp.        0.0627 Ry
        Total length         54.7057 bohr
 

     total cpu time spent up to now is      394.4 secs

     total energy              =   -8078.47750235 Ry
     estimated scf accuracy    <       0.05882370 Ry

     total magnetization       =    97.79 Bohr mag/cell
     absolute magnetization    =    99.13 Bohr mag/cell

     iteration # 29     ecut=    50.00 Ry     beta= 0.10
     Davidson diagonalization with overlap
     ethr =  4.79E-06,  avg # of iterations =  3.0

     negative rho (up, down):  1.187E-04 1.721E-04
 
     Adding external electric field

     Computed dipole along edir(3) : 
        Dipole               -1.0792 Ry au,         -2.7430 Debye
        Dipole field         -0.0006 Ry au, 
 
        Potential amp.        0.0708 Ry
        Total length         54.7057 bohr
 
 
     Adding external electric field

     Computed dipole along edir(3) : 
        Dipole               -1.0792 Ry au,         -2.7430 Debye
        Dipole field         -0.0006 Ry au, 
 
        Potential amp.        0.0708 Ry
        Total length         54.7057 bohr
 

     total cpu time spent up to now is      407.3 secs

     total energy              =   -8078.47845000 Ry
     estimated scf accuracy    <       0.08620019 Ry

     total magnetization       =    97.82 Bohr mag/cell
     absolute magnetization    =    99.23 Bohr mag/cell

     iteration # 30     ecut=    50.00 Ry     beta= 0.10
     Davidson diagonalization with overlap
     c_bands:  3 eigenvalues not converged
     ethr =  4.79E-06,  avg # of iterations = 11.0

     negative rho (up, down):  1.722E-04 2.938E-04
 
     Adding external electric field

     Computed dipole along edir(3) : 
        Dipole               -1.1074 Ry au,         -2.8147 Debye
        Dipole field         -0.0007 Ry au, 
 
        Potential amp.        0.0726 Ry
        Total length         54.7057 bohr
 
 
     Adding external electric field

     Computed dipole along edir(3) : 
        Dipole               -1.1074 Ry au,         -2.8147 Debye
        Dipole field         -0.0007 Ry au, 
 
        Potential amp.        0.0726 Ry
        Total length         54.7057 bohr
 

     total cpu time spent up to now is      423.9 secs

     total energy              =   -8078.47966628 Ry
     estimated scf accuracy    <       0.04986106 Ry

     total magnetization       =    97.54 Bohr mag/cell
     absolute magnetization    =    98.91 Bohr mag/cell

     iteration # 31     ecut=    50.00 Ry     beta= 0.10
     Davidson diagonalization with overlap
     ethr =  4.50E-06,  avg # of iterations =  3.0

     negative rho (up, down):  6.187E-05 7.023E-05
 
     Adding external electric field

     Computed dipole along edir(3) : 
        Dipole               -1.0104 Ry au,         -2.5682 Debye
        Dipole field         -0.0006 Ry au, 
 
        Potential amp.        0.0663 Ry
        Total length         54.7057 bohr
 
 
     Adding external electric field

     Computed dipole along edir(3) : 
        Dipole               -1.0104 Ry au,         -2.5682 Debye
        Dipole field         -0.0006 Ry au, 
 
        Potential amp.        0.0663 Ry
        Total length         54.7057 bohr
 

     total cpu time spent up to now is      436.4 secs

     total energy              =   -8078.47764690 Ry
     estimated scf accuracy    <       0.05343115 Ry

     total magnetization       =    97.61 Bohr mag/cell
     absolute magnetization    =    98.93 Bohr mag/cell

     iteration # 32     ecut=    50.00 Ry     beta= 0.10
     Davidson diagonalization with overlap
     ethr =  4.50E-06,  avg # of iterations =  2.0

     negative rho (up, down):  5.692E-04 6.937E-04
 
     Adding external electric field

     Computed dipole along edir(3) : 
        Dipole               -1.0218 Ry au,         -2.5972 Debye
        Dipole field         -0.0006 Ry au, 
 
        Potential amp.        0.0670 Ry
        Total length         54.7057 bohr
 
 
     Adding external electric field

     Computed dipole along edir(3) : 
        Dipole               -1.0218 Ry au,         -2.5972 Debye
        Dipole field         -0.0006 Ry au, 
 
        Potential amp.        0.0670 Ry
        Total length         54.7057 bohr
 

     total cpu time spent up to now is      448.7 secs

     total energy              =   -8078.47750018 Ry
     estimated scf accuracy    <       0.05902879 Ry

     total magnetization       =    97.66 Bohr mag/cell
     absolute magnetization    =    99.04 Bohr mag/cell

     iteration # 33     ecut=    50.00 Ry     beta= 0.10
     Davidson diagonalization with overlap
     ethr =  4.50E-06,  avg # of iterations =  1.5

     negative rho (up, down):  7.973E-04 9.139E-04
 
     Adding external electric field

     Computed dipole along edir(3) : 
        Dipole               -1.0385 Ry au,         -2.6395 Debye
        Dipole field         -0.0006 Ry au, 
 
        Potential amp.        0.0681 Ry
        Total length         54.7057 bohr
 
 
     Adding external electric field

     Computed dipole along edir(3) : 
        Dipole               -1.0385 Ry au,         -2.6395 Debye
        Dipole field         -0.0006 Ry au, 
 
        Potential amp.        0.0681 Ry
        Total length         54.7057 bohr
 

     total cpu time spent up to now is      460.0 secs

     total energy              =   -8078.47758593 Ry
     estimated scf accuracy    <       0.05446596 Ry

     total magnetization       =    97.66 Bohr mag/cell
     absolute magnetization    =    99.10 Bohr mag/cell

     iteration # 34     ecut=    50.00 Ry     beta= 0.10
     Davidson diagonalization with overlap
     ethr =  4.50E-06,  avg # of iterations =  1.5

     negative rho (up, down):  8.035E-04 9.447E-04
 
     Adding external electric field

     Computed dipole along edir(3) : 
        Dipole               -1.0820 Ry au,         -2.7501 Debye
        Dipole field         -0.0006 Ry au, 
 
        Potential amp.        0.0710 Ry
        Total length         54.7057 bohr
 
 
     Adding external electric field

     Computed dipole along edir(3) : 
        Dipole               -1.0820 Ry au,         -2.7501 Debye
        Dipole field         -0.0006 Ry au, 
 
        Potential amp.        0.0710 Ry
        Total length         54.7057 bohr
 

     total cpu time spent up to now is      471.4 secs

     total energy              =   -8078.47783091 Ry
     estimated scf accuracy    <       0.05101226 Ry

     total magnetization       =    97.67 Bohr mag/cell
     absolute magnetization    =    99.12 Bohr mag/cell

     iteration # 35     ecut=    50.00 Ry     beta= 0.10
     Davidson diagonalization with overlap
     ethr =  4.50E-06,  avg # of iterations =  1.5

     negative rho (up, down):  7.782E-04 1.004E-03
 
     Adding external electric field

     Computed dipole along edir(3) : 
        Dipole               -1.0869 Ry au,         -2.7627 Debye
        Dipole field         -0.0007 Ry au, 
 
        Potential amp.        0.0713 Ry
        Total length         54.7057 bohr
 
 
     Adding external electric field

     Computed dipole along edir(3) : 
        Dipole               -1.0869 Ry au,         -2.7627 Debye
        Dipole field         -0.0007 Ry au, 
 
        Potential amp.        0.0713 Ry
        Total length         54.7057 bohr
 

     total cpu time spent up to now is      483.0 secs

     total energy              =   -8078.47876443 Ry
     estimated scf accuracy    <       0.04618588 Ry

     total magnetization       =    97.64 Bohr mag/cell
     absolute magnetization    =    99.13 Bohr mag/cell

     iteration # 36     ecut=    50.00 Ry     beta= 0.10
     Davidson diagonalization with overlap
     ethr =  4.17E-06,  avg # of iterations =  1.0

     negative rho (up, down):  1.446E-03 1.645E-03
 
     Adding external electric field

     Computed dipole along edir(3) : 
        Dipole               -0.9917 Ry au,         -2.5206 Debye
        Dipole field         -0.0006 Ry au, 
 
        Potential amp.        0.0650 Ry
        Total length         54.7057 bohr
 
 
     Adding external electric field

     Computed dipole along edir(3) : 
        Dipole               -0.9917 Ry au,         -2.5206 Debye
        Dipole field         -0.0006 Ry au, 
 
        Potential amp.        0.0650 Ry
        Total length         54.7057 bohr
 

     total cpu time spent up to now is      493.9 secs

     total energy              =   -8078.47735327 Ry
     estimated scf accuracy    <       0.04374290 Ry

     total magnetization       =    97.59 Bohr mag/cell
     absolute magnetization    =    99.01 Bohr mag/cell

     iteration # 37     ecut=    50.00 Ry     beta= 0.10
     Davidson diagonalization with overlap
     ethr =  3.95E-06,  avg # of iterations =  1.5

     negative rho (up, down):  1.046E-03 1.261E-03
 
     Adding external electric field

     Computed dipole along edir(3) : 
        Dipole               -1.0629 Ry au,         -2.7016 Debye
        Dipole field         -0.0006 Ry au, 
 
        Potential amp.        0.0697 Ry
        Total length         54.7057 bohr
 
 
     Adding external electric field

     Computed dipole along edir(3) : 
        Dipole               -1.0629 Ry au,         -2.7016 Debye
        Dipole field         -0.0006 Ry au, 
 
        Potential amp.        0.0697 Ry
        Total length         54.7057 bohr
 

     total cpu time spent up to now is      506.2 secs

     total energy              =   -8078.47857351 Ry
     estimated scf accuracy    <       0.05231025 Ry

     total magnetization       =    97.72 Bohr mag/cell
     absolute magnetization    =    99.10 Bohr mag/cell

     iteration # 38     ecut=    50.00 Ry     beta= 0.10
     Davidson diagonalization with overlap
     ethr =  3.95E-06,  avg # of iterations =  2.0

     negative rho (up, down):  1.459E-03 1.740E-03
 
     Adding external electric field

     Computed dipole along edir(3) : 
        Dipole               -0.9942 Ry au,         -2.5270 Debye
        Dipole field         -0.0006 Ry au, 
 
        Potential amp.        0.0652 Ry
        Total length         54.7057 bohr
 
 
     Adding external electric field

     Computed dipole along edir(3) : 
        Dipole               -0.9942 Ry au,         -2.5270 Debye
        Dipole field         -0.0006 Ry au, 
 
        Potential amp.        0.0652 Ry
        Total length         54.7057 bohr
 

     total cpu time spent up to now is      518.5 secs

     total energy              =   -8078.47719672 Ry
     estimated scf accuracy    <       0.04822782 Ry

     total magnetization       =    97.69 Bohr mag/cell
     absolute magnetization    =    99.05 Bohr mag/cell

     iteration # 39     ecut=    50.00 Ry     beta= 0.10
     Davidson diagonalization with overlap
     ethr =  3.95E-06,  avg # of iterations =  1.0

     negative rho (up, down):  1.300E-03 1.637E-03
 
     Adding external electric field

     Computed dipole along edir(3) : 
        Dipole               -0.9883 Ry au,         -2.5121 Debye
        Dipole field         -0.0006 Ry au, 
 
        Potential amp.        0.0648 Ry
        Total length         54.7057 bohr
 
 
     Adding external electric field

     Computed dipole along edir(3) : 
        Dipole               -0.9883 Ry au,         -2.5121 Debye
        Dipole field         -0.0006 Ry au, 
 
        Potential amp.        0.0648 Ry
        Total length         54.7057 bohr
 

     total cpu time spent up to now is      530.2 secs

     total energy              =   -8078.47718123 Ry
     estimated scf accuracy    <       0.04330399 Ry

     total magnetization       =    97.57 Bohr mag/cell
     absolute magnetization    =    98.96 Bohr mag/cell

     iteration # 40     ecut=    50.00 Ry     beta= 0.10
     Davidson diagonalization with overlap
     ethr =  3.91E-06,  avg # of iterations =  1.5

     negative rho (up, down):  1.525E-03 1.745E-03
 
     Adding external electric field

     Computed dipole along edir(3) : 
        Dipole               -1.0098 Ry au,         -2.5667 Debye
        Dipole field         -0.0006 Ry au, 
 
        Potential amp.        0.0662 Ry
        Total length         54.7057 bohr
 
 
     Adding external electric field

     Computed dipole along edir(3) : 
        Dipole               -1.0098 Ry au,         -2.5667 Debye
        Dipole field         -0.0006 Ry au, 
 
        Potential amp.        0.0662 Ry
        Total length         54.7057 bohr
 

     total cpu time spent up to now is      541.7 secs

     total energy              =   -8078.47752275 Ry
     estimated scf accuracy    <       0.04427746 Ry

     total magnetization       =    97.50 Bohr mag/cell
     absolute magnetization    =    98.89 Bohr mag/cell

     iteration # 41     ecut=    50.00 Ry     beta= 0.10
     Davidson diagonalization with overlap
     ethr =  3.91E-06,  avg # of iterations =  1.0

     negative rho (up, down):  1.625E-03 1.809E-03
 
     Adding external electric field

     Computed dipole along edir(3) : 
        Dipole               -1.0180 Ry au,         -2.5874 Debye
        Dipole field         -0.0006 Ry au, 
 
        Potential amp.        0.0668 Ry
        Total length         54.7057 bohr
 
 
     Adding external electric field

     Computed dipole along edir(3) : 
        Dipole               -1.0180 Ry au,         -2.5874 Debye
        Dipole field         -0.0006 Ry au, 
 
        Potential amp.        0.0668 Ry
        Total length         54.7057 bohr
 

     total cpu time spent up to now is      552.6 secs

     total energy              =   -8078.47763983 Ry
     estimated scf accuracy    <       0.04263670 Ry

     total magnetization       =    97.59 Bohr mag/cell
     absolute magnetization    =    98.97 Bohr mag/cell

     iteration # 42     ecut=    50.00 Ry     beta= 0.10
     Davidson diagonalization with overlap
     ethr =  3.85E-06,  avg # of iterations =  1.5

     negative rho (up, down):  1.273E-03 1.490E-03
 
     Adding external electric field

     Computed dipole along edir(3) : 
        Dipole               -1.0226 Ry au,         -2.5991 Debye
        Dipole field         -0.0006 Ry au, 
 
        Potential amp.        0.0671 Ry
        Total length         54.7057 bohr
 
 
     Adding external electric field

     Computed dipole along edir(3) : 
        Dipole               -1.0226 Ry au,         -2.5991 Debye
        Dipole field         -0.0006 Ry au, 
 
        Potential amp.        0.0671 Ry
        Total length         54.7057 bohr
 

     total cpu time spent up to now is      564.3 secs

     total energy              =   -8078.47788700 Ry
     estimated scf accuracy    <       0.04290707 Ry

     total magnetization       =    97.61 Bohr mag/cell
     absolute magnetization    =    98.96 Bohr mag/cell

     iteration # 43     ecut=    50.00 Ry     beta= 0.10
     Davidson diagonalization with overlap
     ethr =  3.85E-06,  avg # of iterations =  1.0

     negative rho (up, down):  1.295E-03 1.449E-03
 
     Adding external electric field

     Computed dipole along edir(3) : 
        Dipole               -1.0340 Ry au,         -2.6281 Debye
        Dipole field         -0.0006 Ry au, 
 
        Potential amp.        0.0678 Ry
        Total length         54.7057 bohr
 
 
     Adding external electric field

     Computed dipole along edir(3) : 
        Dipole               -1.0340 Ry au,         -2.6281 Debye
        Dipole field         -0.0006 Ry au, 
 
        Potential amp.        0.0678 Ry
        Total length         54.7057 bohr
 

     total cpu time spent up to now is      574.8 secs

     total energy              =   -8078.47784642 Ry
     estimated scf accuracy    <       0.04495869 Ry

     total magnetization       =    97.61 Bohr mag/cell
     absolute magnetization    =    98.98 Bohr mag/cell

     iteration # 44     ecut=    50.00 Ry     beta= 0.10
     Davidson diagonalization with overlap
     ethr =  3.85E-06,  avg # of iterations =  1.5

     negative rho (up, down):  1.591E-03 1.732E-03
 
     Adding external electric field

     Computed dipole along edir(3) : 
        Dipole               -1.0062 Ry au,         -2.5574 Debye
        Dipole field         -0.0006 Ry au, 
 
        Potential amp.        0.0660 Ry
        Total length         54.7057 bohr
 
 
     Adding external electric field

     Computed dipole along edir(3) : 
        Dipole               -1.0062 Ry au,         -2.5574 Debye
        Dipole field         -0.0006 Ry au, 
 
        Potential amp.        0.0660 Ry
        Total length         54.7057 bohr
 

     total cpu time spent up to now is      586.1 secs

     total energy              =   -8078.47717609 Ry
     estimated scf accuracy    <       0.04479179 Ry

     total magnetization       =    97.62 Bohr mag/cell
     absolute magnetization    =    98.99 Bohr mag/cell

     iteration # 45     ecut=    50.00 Ry     beta= 0.10
     Davidson diagonalization with overlap
     ethr =  3.85E-06,  avg # of iterations =  1.0

     negative rho (up, down):  1.921E-03 2.003E-03
 
     Adding external electric field

     Computed dipole along edir(3) : 
        Dipole               -0.9563 Ry au,         -2.4306 Debye
        Dipole field         -0.0006 Ry au, 
 
        Potential amp.        0.0627 Ry
        Total length         54.7057 bohr
 
 
     Adding external electric field

     Computed dipole along edir(3) : 
        Dipole               -0.9563 Ry au,         -2.4306 Debye
        Dipole field         -0.0006 Ry au, 
 
        Potential amp.        0.0627 Ry
        Total length         54.7057 bohr
 

     total cpu time spent up to now is      597.0 secs

     total energy              =   -8078.47626055 Ry
     estimated scf accuracy    <       0.04274486 Ry

     total magnetization       =    97.62 Bohr mag/cell
     absolute magnetization    =    99.01 Bohr mag/cell

     iteration # 46     ecut=    50.00 Ry     beta= 0.10
     Davidson diagonalization with overlap
     ethr =  3.85E-06,  avg # of iterations =  1.5

     negative rho (up, down):  2.265E-03 2.254E-03
 
     Adding external electric field

     Computed dipole along edir(3) : 
        Dipole               -0.9569 Ry au,         -2.4321 Debye
        Dipole field         -0.0006 Ry au, 
 
        Potential amp.        0.0628 Ry
        Total length         54.7057 bohr
 
 
     Adding external electric field

     Computed dipole along edir(3) : 
        Dipole               -0.9569 Ry au,         -2.4321 Debye
        Dipole field         -0.0006 Ry au, 
 
        Potential amp.        0.0628 Ry
        Total length         54.7057 bohr
 

     total cpu time spent up to now is      608.8 secs

     total energy              =   -8078.47582316 Ry
     estimated scf accuracy    <       0.04140792 Ry

     total magnetization       =    97.62 Bohr mag/cell
     absolute magnetization    =    99.02 Bohr mag/cell

     iteration # 47     ecut=    50.00 Ry     beta= 0.10
     Davidson diagonalization with overlap
     ethr =  3.74E-06,  avg # of iterations =  1.0

     negative rho (up, down):  1.911E-03 1.897E-03
 
     Adding external electric field

     Computed dipole along edir(3) : 
        Dipole               -0.9536 Ry au,         -2.4238 Debye
        Dipole field         -0.0006 Ry au, 
 
        Potential amp.        0.0625 Ry
        Total length         54.7057 bohr
 
 
     Adding external electric field

     Computed dipole along edir(3) : 
        Dipole               -0.9536 Ry au,         -2.4238 Debye
        Dipole field         -0.0006 Ry au, 
 
        Potential amp.        0.0625 Ry
        Total length         54.7057 bohr
 

     total cpu time spent up to now is      619.1 secs

     total energy              =   -8078.47586673 Ry
     estimated scf accuracy    <       0.04246478 Ry

     total magnetization       =    97.67 Bohr mag/cell
     absolute magnetization    =    99.07 Bohr mag/cell

     iteration # 48     ecut=    50.00 Ry     beta= 0.10
     Davidson diagonalization with overlap
     ethr =  3.74E-06,  avg # of iterations =  1.5

     negative rho (up, down):  2.077E-03 2.160E-03
 
     Adding external electric field

     Computed dipole along edir(3) : 
        Dipole               -0.9590 Ry au,         -2.4375 Debye
        Dipole field         -0.0006 Ry au, 
 
        Potential amp.        0.0629 Ry
        Total length         54.7057 bohr
 
 
     Adding external electric field

     Computed dipole along edir(3) : 
        Dipole               -0.9590 Ry au,         -2.4375 Debye
        Dipole field         -0.0006 Ry au, 
 
        Potential amp.        0.0629 Ry
        Total length         54.7057 bohr
 

     total cpu time spent up to now is      629.9 secs

     total energy              =   -8078.47637148 Ry
     estimated scf accuracy    <       0.04266943 Ry

     total magnetization       =    97.64 Bohr mag/cell
     absolute magnetization    =    99.04 Bohr mag/cell

     iteration # 49     ecut=    50.00 Ry     beta= 0.10
     Davidson diagonalization with overlap
     ethr =  3.74E-06,  avg # of iterations =  1.0

     negative rho (up, down):  2.109E-03 2.234E-03
 
     Adding external electric field

     Computed dipole along edir(3) : 
        Dipole               -0.9437 Ry au,         -2.3987 Debye
        Dipole field         -0.0006 Ry au, 
 
        Potential amp.        0.0619 Ry
        Total length         54.7057 bohr
 
 
     Adding external electric field

     Computed dipole along edir(3) : 
        Dipole               -0.9437 Ry au,         -2.3987 Debye
        Dipole field         -0.0006 Ry au, 
 
        Potential amp.        0.0619 Ry
        Total length         54.7057 bohr
 

     total cpu time spent up to now is      640.1 secs

     total energy              =   -8078.47635127 Ry
     estimated scf accuracy    <       0.04273172 Ry

     total magnetization       =    97.65 Bohr mag/cell
     absolute magnetization    =    99.04 Bohr mag/cell

     iteration # 50     ecut=    50.00 Ry     beta= 0.10
     Davidson diagonalization with overlap
     ethr =  3.74E-06,  avg # of iterations =  1.0

     negative rho (up, down):  2.115E-03 2.270E-03
 
     Adding external electric field

     Computed dipole along edir(3) : 
        Dipole               -0.9558 Ry au,         -2.4294 Debye
        Dipole field         -0.0006 Ry au, 
 
        Potential amp.        0.0627 Ry
        Total length         54.7057 bohr
 
 
     Adding external electric field

     Computed dipole along edir(3) : 
        Dipole               -0.9558 Ry au,         -2.4294 Debye
        Dipole field         -0.0006 Ry au, 
 
        Potential amp.        0.0627 Ry
        Total length         54.7057 bohr
 

     total cpu time spent up to now is      650.3 secs

     total energy              =   -8078.47644524 Ry
     estimated scf accuracy    <       0.04315497 Ry

     total magnetization       =    97.62 Bohr mag/cell
     absolute magnetization    =    99.00 Bohr mag/cell

     iteration # 51     ecut=    50.00 Ry     beta= 0.10
     Davidson diagonalization with overlap
     ethr =  3.74E-06,  avg # of iterations =  1.0

     negative rho (up, down):  1.794E-03 1.965E-03
 
     Adding external electric field

     Computed dipole along edir(3) : 
        Dipole               -0.9491 Ry au,         -2.4124 Debye
        Dipole field         -0.0006 Ry au, 
 
        Potential amp.        0.0622 Ry
        Total length         54.7057 bohr
 
 
     Adding external electric field

     Computed dipole along edir(3) : 
        Dipole               -0.9491 Ry au,         -2.4124 Debye
        Dipole field         -0.0006 Ry au, 
 
        Potential amp.        0.0622 Ry
        Total length         54.7057 bohr
 

     total cpu time spent up to now is      660.9 secs

     total energy              =   -8078.47627043 Ry
     estimated scf accuracy    <       0.04143752 Ry

     total magnetization       =    97.64 Bohr mag/cell
     absolute magnetization    =    99.03 Bohr mag/cell

     iteration # 52     ecut=    50.00 Ry     beta= 0.10
     Davidson diagonalization with overlap
     ethr =  3.74E-06,  avg # of iterations =  1.0

     negative rho (up, down):  1.960E-03 2.141E-03
 
     Adding external electric field

     Computed dipole along edir(3) : 
        Dipole               -0.9469 Ry au,         -2.4068 Debye
        Dipole field         -0.0006 Ry au, 
 
        Potential amp.        0.0621 Ry
        Total length         54.7057 bohr
 
 
     Adding external electric field

     Computed dipole along edir(3) : 
        Dipole               -0.9469 Ry au,         -2.4068 Debye
        Dipole field         -0.0006 Ry au, 
 
        Potential amp.        0.0621 Ry
        Total length         54.7057 bohr
 

     total cpu time spent up to now is      671.3 secs

     total energy              =   -8078.47632856 Ry
     estimated scf accuracy    <       0.04161141 Ry

     total magnetization       =    97.63 Bohr mag/cell
     absolute magnetization    =    99.06 Bohr mag/cell

     iteration # 53     ecut=    50.00 Ry     beta= 0.10
     Davidson diagonalization with overlap
     ethr =  3.74E-06,  avg # of iterations =  1.0

     negative rho (up, down):  2.445E-03 2.624E-03
 
     Adding external electric field

     Computed dipole along edir(3) : 
        Dipole               -0.9423 Ry au,         -2.3952 Debye
        Dipole field         -0.0006 Ry au, 
 
        Potential amp.        0.0618 Ry
        Total length         54.7057 bohr
 
 
     Adding external electric field

     Computed dipole along edir(3) : 
        Dipole               -0.9423 Ry au,         -2.3952 Debye
        Dipole field         -0.0006 Ry au, 
 
        Potential amp.        0.0618 Ry
        Total length         54.7057 bohr
 

     total cpu time spent up to now is      681.7 secs

     total energy              =   -8078.47626904 Ry
     estimated scf accuracy    <       0.04081442 Ry

     total magnetization       =    97.65 Bohr mag/cell
     absolute magnetization    =    99.08 Bohr mag/cell

     iteration # 54     ecut=    50.00 Ry     beta= 0.10
     Davidson diagonalization with overlap
     ethr =  3.68E-06,  avg # of iterations =  1.5

     negative rho (up, down):  3.315E-03 3.284E-03
 
     Adding external electric field

     Computed dipole along edir(3) : 
        Dipole               -0.9228 Ry au,         -2.3456 Debye
        Dipole field         -0.0006 Ry au, 
 
        Potential amp.        0.0605 Ry
        Total length         54.7057 bohr
 
 
     Adding external electric field

     Computed dipole along edir(3) : 
        Dipole               -0.9228 Ry au,         -2.3456 Debye
        Dipole field         -0.0006 Ry au, 
 
        Potential amp.        0.0605 Ry
        Total length         54.7057 bohr
 

     total cpu time spent up to now is      693.0 secs

     total energy              =   -8078.47583782 Ry
     estimated scf accuracy    <       0.03846128 Ry

     total magnetization       =    97.70 Bohr mag/cell
     absolute magnetization    =    99.12 Bohr mag/cell

     iteration # 55     ecut=    50.00 Ry     beta= 0.10
     Davidson diagonalization with overlap
     ethr =  3.47E-06,  avg # of iterations =  1.0

     negative rho (up, down):  4.708E-03 4.564E-03
 
     Adding external electric field

     Computed dipole along edir(3) : 
        Dipole               -0.8473 Ry au,         -2.1536 Debye
        Dipole field         -0.0005 Ry au, 
 
        Potential amp.        0.0556 Ry
        Total length         54.7057 bohr
 
 
     Adding external electric field

     Computed dipole along edir(3) : 
        Dipole               -0.8473 Ry au,         -2.1536 Debye
        Dipole field         -0.0005 Ry au, 
 
        Potential amp.        0.0556 Ry
        Total length         54.7057 bohr
 

     total cpu time spent up to now is      704.2 secs

     total energy              =   -8078.47486357 Ry
     estimated scf accuracy    <       0.03578215 Ry

     total magnetization       =    97.74 Bohr mag/cell
     absolute magnetization    =    99.16 Bohr mag/cell

     iteration # 56     ecut=    50.00 Ry     beta= 0.10
     Davidson diagonalization with overlap
     ethr =  3.23E-06,  avg # of iterations =  2.0

     negative rho (up, down):  2.207E-03 2.301E-03
 
     Adding external electric field

     Computed dipole along edir(3) : 
        Dipole               -0.7792 Ry au,         -1.9804 Debye
        Dipole field         -0.0005 Ry au, 
 
        Potential amp.        0.0511 Ry
        Total length         54.7057 bohr
 
 
     Adding external electric field

     Computed dipole along edir(3) : 
        Dipole               -0.7792 Ry au,         -1.9804 Debye
        Dipole field         -0.0005 Ry au, 
 
        Potential amp.        0.0511 Ry
        Total length         54.7057 bohr
 

     total cpu time spent up to now is      716.6 secs

     total energy              =   -8078.47417633 Ry
     estimated scf accuracy    <       0.02952920 Ry

     total magnetization       =    97.74 Bohr mag/cell
     absolute magnetization    =    99.12 Bohr mag/cell

     iteration # 57     ecut=    50.00 Ry     beta= 0.10
     Davidson diagonalization with overlap
     ethr =  2.67E-06,  avg # of iterations =  2.0

     negative rho (up, down):  1.087E-03 1.278E-03
 
     Adding external electric field

     Computed dipole along edir(3) : 
        Dipole               -0.7143 Ry au,         -1.8156 Debye
        Dipole field         -0.0004 Ry au, 
 
        Potential amp.        0.0469 Ry
        Total length         54.7057 bohr
 
 
     Adding external electric field

     Computed dipole along edir(3) : 
        Dipole               -0.7143 Ry au,         -1.8156 Debye
        Dipole field         -0.0004 Ry au, 
 
        Potential amp.        0.0469 Ry
        Total length         54.7057 bohr
 

     total cpu time spent up to now is      728.7 secs

     total energy              =   -8078.47431179 Ry
     estimated scf accuracy    <       0.02101957 Ry

     total magnetization       =    97.73 Bohr mag/cell
     absolute magnetization    =    99.00 Bohr mag/cell

     iteration # 58     ecut=    50.00 Ry     beta= 0.10
     Davidson diagonalization with overlap
     ethr =  1.90E-06,  avg # of iterations =  3.0

     negative rho (up, down):  6.696E-04 9.244E-04
 
     Adding external electric field

[...]
     atom   99 type  4   force =     0.00065801   -0.00012033    0.00072767
     atom  100 type  4   force =     0.00029354    0.00105669   -0.00022313
     atom  101 type  4   force =    -0.00055275   -0.00117954   -0.00080168
     atom  102 type  4   force =     0.00133528   -0.00155713    0.00023266
     atom  103 type  4   force =     0.00036754    0.00028557    0.00030803
     atom  104 type  4   force =    -0.00012878   -0.00058750   -0.00022299
     atom  105 type  1   force =    -0.00073250    0.00205934   -0.00649644
     atom  106 type  1   force =     0.02818951    0.01367733    0.02203372
     atom  107 type  2   force =     0.00171485    0.00024491   -0.01031564
     atom  108 type  1   force =    -0.03103927    0.02295191    0.01681517
     atom  109 type  1   force =     0.00410480   -0.00289563   -0.00326879
     atom  110 type  1   force =    -0.00129368   -0.00644069   -0.00535450
     atom  111 type  1   force =    -0.00376098    0.00237409   -0.00572774
     atom  112 type  2   force =     0.03228354    0.01650532   -0.01034464
     atom  113 type  2   force =     0.00147280    0.00098764   -0.00998964
     atom  114 type  1   force =    -0.03188307    0.02423877    0.01773147
     atom  115 type  1   force =     0.00353959   -0.00481018   -0.00423546
     atom  116 type  1   force =    -0.00489239   -0.00806583   -0.00650116
     atom  117 type  3   force =    -0.02899423   -0.03570118   -0.06277990
     atom  118 type  3   force =     0.00317185    0.00034731   -0.00696827
     atom  119 type  3   force =     0.00073662   -0.00063129   -0.00911543
     atom  120 type  3   force =     0.02797443   -0.05775806   -0.08373756
     atom  121 type  4   force =    -0.00653241   -0.00322763    0.03051233
     atom  122 type  4   force =    -0.00144588   -0.00111907    0.00259900
     atom  123 type  4   force =     0.00157974   -0.00102047    0.00483176
     atom  124 type  4   force =     0.00355376    0.00313148    0.03403749
     atom  125 type  4   force =    -0.00226568   -0.00227723    0.03404590
     atom  126 type  4   force =    -0.00084199    0.00067498    0.00299879
     atom  127 type  4   force =     0.00217777    0.00309390    0.00429321
     atom  128 type  4   force =    -0.00315242   -0.00172803    0.02225091
     atom  129 type  4   force =    -0.01247592    0.03642381    0.00494538
     atom  130 type  4   force =    -0.00149297    0.00034116    0.00237081
     atom  131 type  4   force =    -0.01948162    0.00357143    0.00993286
     atom  132 type  4   force =    -0.00108909    0.00353589    0.00434467
     atom  133 type  4   force =    -0.00290109    0.00063848    0.00242091
     atom  134 type  4   force =     0.00146601   -0.00435472    0.00354540
     atom  135 type  4   force =     0.01377665    0.02361230   -0.00091631
     atom  136 type  4   force =     0.01322526   -0.00064729    0.00239418
     atom  137 type  3   force =    -0.03818986   -0.04126654   -0.06619059
     atom  138 type  3   force =     0.00647003   -0.00302507   -0.00138625
     atom  139 type  3   force =     0.00027460   -0.00158033   -0.00941562
     atom  140 type  3   force =     0.02905293   -0.05119377   -0.08330218
     atom  141 type  4   force =    -0.00103688    0.00273529    0.02936770
     atom  142 type  4   force =     0.00043592    0.00238876   -0.00628211
     atom  143 type  4   force =     0.00164450   -0.00085745    0.00425246
     atom  144 type  4   force =     0.00422374    0.00180915    0.03464812
     atom  145 type  4   force =     0.00897988    0.00383480    0.03121035
     atom  146 type  4   force =    -0.00030613    0.00054464    0.00172004
     atom  147 type  4   force =     0.00268294    0.00343086    0.00397530
     atom  148 type  4   force =    -0.00395014   -0.00138054    0.02218448
     atom  149 type  4   force =    -0.00995387    0.03020079    0.00424009
     atom  150 type  4   force =    -0.00191775    0.00042440    0.00281104
     atom  151 type  4   force =    -0.01857076    0.00504006    0.00989710
     atom  152 type  4   force =    -0.00082756    0.00343540    0.00434162
     atom  153 type  4   force =    -0.00131003    0.00026722    0.00298974
     atom  154 type  4   force =     0.00211843   -0.00255145    0.00284286
     atom  155 type  4   force =     0.01472986    0.02464033    0.00015062
     atom  156 type  4   force =     0.02239353   -0.00366834    0.00143379
     atom  157 type  4   force =    -0.00019585    0.00016509    0.00049343
     atom  158 type  5   force =    -0.00044862    0.00027144   -0.00005172

     Total force =     0.003372     Total SCF correction =     0.000135
     Energy error            =      2.2E-05 Ry
     Gradient error          =      8.7E-04 Ry/Bohr

     bfgs converged in  24 scf cycles and  23 bfgs steps
     (criteria: energy <  1.0E-04 Ry, force <  1.0E-03 Ry/Bohr)

     End of BFGS Geometry Optimization

     Final energy             =   -8078.5552035462 Ry

     File ./tmp/pwscf.bfgs deleted, as requested
Begin final coordinates

ATOMIC_POSITIONS (angstrom)
Ni               2.3788262630        7.8490273098       15.8700188575
Ni               4.6639833933        7.2834803519       13.0012659076
Mn              -0.0065654147        2.7643575776       16.0404705935
Ni               2.4335223329        2.1211538702       13.0111110587
Ni               9.4302501153       10.1219828905       14.4958856386
Ni               2.4025463048        5.0151108739       14.5479330469
Ni               7.0242297741        7.9125689696       16.2174724779
Mn               9.3206515933        7.2426544418       12.9776581036
Mn               4.7203886058        2.7442475727       16.0658281048
Ni               7.1262169124        2.1239012064       13.0082923636
Ni               4.7162882270       10.0973205418       14.5565828845
Ni               7.1070571144        5.0393611195       14.5789576354
P                2.0054477327        9.1406083771       13.0283980134
P                4.3804862167        6.0730855539       16.0362092041
P                2.6705129630        0.8959335219       15.9999105866
P                0.3800930479        3.9972035901       13.0960954630
O                1.2686660501        8.5046991183       14.3087330492
O                3.6610599469        6.6206119162       14.6654436348
O                3.4047819888        1.4727863024       14.6618614706
O                1.1144634539        3.3730881375       14.3826310492
O                1.4394430273        8.2936405489       11.8590506944
O                3.7863881358        6.9735552369       17.1164407112
O                3.2068215539        1.8096806829       17.1035357076
O                0.9384138946        3.1340068088       11.9399354697
O                0.9400061456        5.4489192428       13.0668359015
O                3.2272581571        9.6490403349       16.0228326505
O                3.5777730016        3.9328993051       13.1923492802
O                1.1229994298        0.9702664467       15.8852406025
O                1.2288197773        6.1294738174       15.8869726587
O                3.8473351330        4.5953059385       16.0573292224
O                1.4033567777        0.3709977927       13.0355991063
O                3.5413957406        9.0669637787       13.1474478749
P                6.6773480703        9.1150180333       13.0448364206
P                9.1272225001        6.1103568113       16.0453283658
P                7.4191472577        0.9150245640       15.9806591375
P                5.1167556384        4.0308612095       13.0934812784
O                5.9646754059        8.4332409881       14.3081606592
O                8.3805399225        6.6201470044       14.7046664121
O                8.1369863254        1.5111169285       14.6323929438
O                5.8510567782        3.3866813167       14.3686218784
O                6.1261994244        8.2902808236       11.8475482285
O                8.6001860340        7.0278262813       17.1394152728
O                7.9584338498        1.8511563314       17.0734516358
O                5.6789822868        3.1758468406       11.9280120179
O                5.6657815040        5.4871640636       13.0856195482
O                8.0249647865        9.6921385719       15.9659162357
O                8.2903679183        3.9405214086       13.1984113120
O                5.8766675917        0.9903814770       15.8718286823
O                5.9267915157        6.0843201232       15.9450231804
O                8.6175651792        4.6191868416       16.0991967600
O                6.0982628265        0.3537671612       13.0760717510
O                8.2206371575        9.0591605960       13.1343030228
Ni               2.2865932276        7.7185113740       10.1079392575    0   0   0
Ni               4.6227323024        7.1259782878        7.0640042782    0   0   0
Mn               0.0804473868        2.5789062059       10.1613020121    0   0   0
Ni               2.4168985750        1.9644574775        7.0841475609    0   0   0
Ni               9.4398858074        9.9355235468        8.5787441720    0   0   0
Ni               2.3526410507        4.8653024081        8.5902128070    0   0   0
Ni               6.9657525885        7.7091129798       10.0997874733    0   0   0
Mn               9.3143611083        7.0965945418        7.0137194507    0   0   0
Mn               4.8045666521        2.6032034357       10.1628320820    0   0   0
Ni               7.1167782512        1.9599956345        7.0792628603    0   0   0
Ni               4.7062796372        9.9416029950        8.5910379236    0   0   0
Ni               7.0564283985        4.8629777039        8.5799029064    0   0   0
P                2.0027943491        8.9729125273        7.1171786542    0   0   0
P                4.3264829709        5.9072233150       10.0622718687    0   0   0
P                2.6975864721        0.6842279838       10.0618768477    0   0   0
P                0.3600548718        3.8098064712        7.1433522946    0   0   0
O                1.2782399310        8.3313556485        8.4015115952    0   0   0
O                3.5801899233        6.5418743157        8.7780981808    0   0   0
O                3.4110096246        1.3409065578        8.7782800461    0   0   0
O                1.1145193192        3.1710799061        8.4034019657    0   0   0
O                1.4401034437        8.1327170307        5.9433336368    0   0   0
O                3.7742239617        6.7348726356       11.2476937640    0   0   0
O                3.2376292769        1.5444217644       11.2328131654    0   0   0
O                0.9344982929        2.9813971073        5.9719616593    0   0   0
O                0.8901473601        5.2731065912        7.1513881205    0   0   0
O                3.3125681011        9.4611400544       10.0571958355    0   0   0
O                3.5429527111        3.7631038396        7.2320949309    0   0   0
O                1.1604369075        0.7225831644        9.9613544840    0   0   0
O                1.1377598861        5.9454910082        9.9490547382    0   0   0
O                3.7796208059        4.4484532944       10.0392347111    0   0   0
O                1.4012333057        0.2043804807        7.1291638066    0   0   0
O                3.5415658549        8.9137683769        7.2064629609    0   0   0
P                6.6669951488        8.9683994847        7.1059492519    0   0   0
P                9.0462348336        5.8767477338       10.0366362681    0   0   0
P                7.4142576596        0.6712898237       10.0539918676    0   0   0
P                5.0801790915        3.8577847517        7.1343820182    0   0   0
O                5.9478651911        8.3028344013        8.3888049168    0   0   0
O                8.2965696935        6.5213144144        8.7757352159    0   0   0
O                8.1278450387        1.3207749553        8.7668774475    0   0   0
O                5.8335486583        3.2019020614        8.3911018344    0   0   0
O                6.1137410786        8.1091295162        5.9378996613    0   0   0
O                8.4671197812        6.7022746701       11.2062748158    0   0   0
O                7.9552460155        1.5275949478       11.2287293825    0   0   0
O                5.6639807711        3.0263983758        5.9666597727    0   0   0
O                5.6045809997        5.3254612392        7.1514967461    0   0   0
O                8.0182247949        9.4427540480       10.0468742363    0   0   0
O                8.2682212747        3.7409006891        7.2321369546    0   0   0
O                5.8794433210        0.7255188143        9.9568746669    0   0   0
O                5.8666840775        5.9447008142        9.9554812069    0   0   0
O                8.5123498573        4.4158645464       10.0225730984    0   0   0
O                6.0755523873        0.2015656283        7.1216053633    0   0   0
O                8.2047287207        8.9241247327        7.2088447974    0   0   0
Ni               2.2602644412        7.5397454508        4.1800395962    0   0   0
Ni               4.5964035161        6.9472123645        1.1361046169    0   0   0
Mn               0.0541186005        2.4001402826        4.2334023508    0   0   0
Ni               2.3905697887        1.7856915542        1.1562478996    0   0   0
Ni               9.4135570211        9.7567576235        2.6508445106    0   0   0
Ni               2.3263122643        4.6865364848        2.6623131457    0   0   0
Ni               6.9394238022        7.5303470565        4.1718878120    0   0   0
Mn               9.2880323220        6.9178286185        1.0858197893    0   0   0
Mn               4.7782378658        2.4244375125        4.2349324206    0   0   0
Ni               7.0904494649        1.7812297112        1.1513631990    0   0   0
Ni               4.6799508509        9.7628370717        2.6631382623    0   0   0
Ni               7.0300996122        4.6842117806        2.6520032451    0   0   0
P                1.9764655628        8.7941466040        1.1892789928    0   0   0
P                4.3001541846        5.7284573917        4.1343722074    0   0   0
P                2.6712576858        0.5054620606        4.1339771864    0   0   0
P                0.3337260855        3.6310405479        1.2154526333    0   0   0
O                1.2519111447        8.1525897252        2.4736119339    0   0   0
O                3.5538611370        6.3631083924        2.8501985194    0   0   0
O                3.3846808383        1.1621406345        2.8503803848    0   0   0
O                1.0881905329        2.9923139828        2.4755023044    0   0   0
O                1.4137746574        7.9539511074        0.0154339755    0   0   0
O                3.7478951754        6.5561067123        5.3197941026    0   0   0
O                3.2113004906        1.3656558411        5.3049135041    0   0   0
O                0.9081695066        2.8026311840        0.0440619979    0   0   0
O                0.8638185738        5.0943406679        1.2234884592    0   0   0
O                3.2862393148        9.2823741311        4.1292961742    0   0   0
O                3.5166239248        3.5843379163        1.3041952696    0   0   0
O                1.1341081212        0.5438172412        4.0334548227    0   0   0
O                1.1114310998        5.7667250849        4.0211550768    0   0   0
O                3.7532920196        4.2696873711        4.1113350498    0   0   0
O                1.3749045194        0.0256145574        1.2012641453    0   0   0
O                3.5152370686        8.7350024536        1.2785632995    0   0   0
P                6.6406663624        8.7896335614        1.1780495906    0   0   0
P                9.0199060473        5.6979818105        4.1087366067    0   0   0
P                7.3879288733        0.4925239004        4.1260922063    0   0   0
P                5.0538503052        3.6790188284        1.2064823569    0   0   0
O                5.9215364048        8.1240684780        2.4609052555    0   0   0
O                8.2702409072        6.3425484912        2.8478355546    0   0   0
O                8.1015162524        1.1420090320        2.8389777861    0   0   0
O                5.8072198720        3.0231361382        2.4632021730    0   0   0
O                6.0874122923        7.9303635929        0.0100000000    0   0   0
O                8.4407909948        6.5235087468        5.2783751545    0   0   0
O                7.9289172292        1.3488290245        5.3008297212    0   0   0
O                5.6376519848        2.8476324525        0.0387601113    0   0   0
O                5.5782522134        5.1466953159        1.2235970847    0   0   0
O                7.9918960086        9.2639881247        4.1189745750    0   0   0
O                8.2418924884        3.5621347659        1.3042372932    0   0   0
O                5.8531145347        0.5467528910        4.0289750056    0   0   0
O                5.8403552912        5.7659348909        4.0275815455    0   0   0
O                8.4860210710        4.2370986231        4.0946734371    0   0   0
O                6.0492236010        0.0227997050        1.1937057019    0   0   0
O                8.1783999343        8.7453588095        1.2809451361    0   0   0
O                5.9287228020        8.7308323067       17.4116455250
H                5.1383219662        8.1782471839       17.6328363914
End final coordinates



     Writing all to output data dir ./tmp/pwscf.save/
 
     init_run     :      7.70s CPU      8.35s WALL (       1 calls)
     electrons    :   7006.57s CPU   7433.91s WALL (      24 calls)
     update_pot   :      8.88s CPU     10.94s WALL (      23 calls)
     forces       :     92.51s CPU    107.32s WALL (      24 calls)
     force_london :      2.04s CPU      2.08s WALL (      24 calls)

     Called by init_run:
     wfcinit      :      4.51s CPU      4.71s WALL (       1 calls)
     potinit      :      0.62s CPU      0.81s WALL (       1 calls)
     hinit0       :      1.52s CPU      1.62s WALL (       1 calls)

     Called by electrons:
     c_bands      :   5481.23s CPU   5662.38s WALL (     548 calls)
     sum_band     :    922.09s CPU   1005.33s WALL (     548 calls)
     v_of_rho     :    167.96s CPU    242.25s WALL (     561 calls)
     newd         :    300.17s CPU    369.21s WALL (     561 calls)
     mix_rho      :    135.49s CPU    137.52s WALL (     548 calls)
     energy_londo :      1.85s CPU      1.92s WALL (      24 calls)

     Called by c_bands:
     init_us_2    :     12.80s CPU     13.06s WALL (    2242 calls)
     init_us_2:cp :     12.78s CPU     13.05s WALL (    2242 calls)
     regterg      :   5374.11s CPU   5553.30s WALL (    1099 calls)

     Called by *egterg:
     rdiaghg      :   1287.57s CPU   1367.00s WALL (    3765 calls)
     h_psi        :   2057.50s CPU   2104.65s WALL (    3835 calls)
     s_psi        :    314.64s CPU    315.53s WALL (    3835 calls)
     g_psi        :      2.47s CPU      2.52s WALL (    2734 calls)

     Called by h_psi:
     h_psi:calbec :    521.03s CPU    556.99s WALL (    3835 calls)
     vloc_psi     :   1207.57s CPU   1214.22s WALL (    3835 calls)
     add_vuspsi   :    324.83s CPU    329.27s WALL (    3835 calls)

     General routines
     calbec       :    806.07s CPU    862.14s WALL (    5123 calls)
     fft          :    241.55s CPU    328.95s WALL (   10444 calls)
     ffts         :     80.65s CPU     80.96s WALL (   64769 calls)
     fftw         :   1391.35s CPU   1398.65s WALL ( 1898384 calls)
     interpolate  :     11.02s CPU     11.50s WALL (    1122 calls)
 
     Parallel routines
 
     PWSCF        :      1h59m CPU      2h 7m WALL

 
   This run was terminated on:   8:16:38   9Nov2025            

=------------------------------------------------------------------------------=
   JOB DONE.
=------------------------------------------------------------------------------=
