
     Program PWSCF v.7.2 starts on 17Nov2025 at 18:27:32 

     This program is part of the open-source Quantum ESPRESSO suite
     for quantum simulation of materials; please cite
         "P. Giannozzi et al., J. Phys.:Condens. Matter 21 395502 (2009);
         "P. Giannozzi et al., J. Phys.:Condens. Matter 29 465901 (2017);
         "P. Giannozzi et al., J. Chem. Phys. 152 154105 (2020);
          URL http://www.quantum-espresso.org", 
     in publications or presentations arising from this work. More details at
     http://www.quantum-espresso.org/quote

     Parallel version (MPI), running on    64 processors

     MPI processes distributed on     4 nodes
     376931 MiB available memory on the printing compute node when the environment starts
 
     Reading input from ./H2_removed/PW.in

     Current dimensions of program PWSCF are:
     Max number of different atomic species (ntypx) = 10
     Max number of k-points (npk) =  40000
     Max angular momentum in pseudopotentials (lmaxx) =  4
     Presently no symmetry can be used with electric field

     Presently stress not available with electric field and gates

     file Ni.pbe-n-rrkjus_psl.1.0.0.UPF: wavefunction(s)  3D renormalized
     file Mn.pbe-spn-rrkjus_psl.0.3.1.UPF: wavefunction(s)  3D renormalized
     file O.pbe-rrkjus.UPF: wavefunction(s)  2S renormalized
     file H.pbe-rrkjus.UPF: wavefunction(s)  1S renormalized

     gamma-point specific algorithms are used
 
     R & G space division:  proc/nbgrp/npool/nimage =      64
     Subspace diagonalization in iterative solution of the eigenvalue problem:
     one sub-group per band group will be used
     custom distributed-memory algorithm (size of sub-group:  6*  6 procs)

 
     Parallelization info
     --------------------
     sticks:   dense  smooth     PW     G-vecs:    dense   smooth      PW
     Min         208      82     20                59912    15118    1876
     Max         210      84     22                59974    15196    1926
     Sum       13399    5355   1345              3836275   970529  121367
 
     Using Slab Decomposition
 


     bravais-lattice index     =            0
     lattice parameter (alat)  =      17.7004  a.u.
     unit-cell volume          =   20319.7251 (a.u.)^3
     number of atoms/cell      =          158
     number of atomic types    =            5
     number of electrons       =      1078.00
     number of Kohn-Sham states=          647
     kinetic-energy cutoff     =      50.0000  Ry
     charge density cutoff     =     500.0000  Ry
     scf convergence threshold =      1.0E-06
     mixing beta               =       0.1000
     number of iterations used =            8  local-TF  mixing
     energy convergence thresh.=      1.0E-04
     force convergence thresh. =      1.0E-03
     Exchange-correlation=  SLA  PW   PBE  PBE
                           (   1   4   3   4   0   0   0)
     nstep                     =         1000


     celldm(1)=  17.700384  celldm(2)=   0.000000  celldm(3)=   0.000000
     celldm(4)=   0.000000  celldm(5)=   0.000000  celldm(6)=   0.000000

     crystal axes: (cart. coord. in units of alat)
               a(1) = (   1.000000   0.000000   0.000000 )  
               a(2) = (   0.000000   1.075730   0.000000 )  
               a(3) = (   0.000000   0.000000   3.406172 )  

     reciprocal axes: (cart. coord. in units 2 pi/alat)
               b(1) = (  1.000000  0.000000  0.000000 )  
               b(2) = (  0.000000  0.929602  0.000000 )  
               b(3) = (  0.000000  0.000000  0.293585 )  


     PseudoPot. # 1 for Ni read from file:
     ~/PSEUDO/Ni.pbe-n-rrkjus_psl.1.0.0.UPF
     MD5 check sum: Not computed, couldn't open file
     Pseudo is Ultrasoft + core correction, Zval = 10.0
     Generated using "atomic" code by A. Dal Corso  v.5.1.2
     Using radial grid of 1195 points,  6 beta functions with: 
                l(1) =   0
                l(2) =   0
                l(3) =   1
                l(4) =   1
                l(5) =   2
                l(6) =   2
     Q(r) pseudized with 0 coefficients 


     PseudoPot. # 2 for Mn read from file:
     ~/PSEUDO/Mn.pbe-spn-rrkjus_psl.0.3.1.UPF
     MD5 check sum: Not computed, couldn't open file
     Pseudo is Ultrasoft + core correction, Zval = 15.0
     Generated using &quot;atomic&quot; code by A. Dal Corso  v.6.2.2
     Using radial grid of 1187 points,  6 beta functions with: 
                l(1) =   0
                l(2) =   0
                l(3) =   1
                l(4) =   1
                l(5) =   2
                l(6) =   2
     Q(r) pseudized with 0 coefficients 


     PseudoPot. # 3 for P  read from file:
     ~/PSEUDO/P.pbe-n-rrkjus_psl.1.0.0.UPF
     MD5 check sum: Not computed, couldn't open file
     Pseudo is Ultrasoft + core correction, Zval =  5.0
     Generated using "atomic" code by A. Dal Corso  v.5.1
     Using radial grid of 1147 points,  6 beta functions with: 
                l(1) =   0
                l(2) =   0
                l(3) =   1
                l(4) =   1
                l(5) =   2
                l(6) =   2
     Q(r) pseudized with 0 coefficients 


     PseudoPot. # 4 for O  read from file:
     ~/PSEUDO/O.pbe-rrkjus.UPF
     MD5 check sum: Not computed, couldn't open file
     Pseudo is Ultrasoft, Zval =  6.0
     Generated by new atomic code, or converted to UPF format
     Using radial grid of 1269 points,  4 beta functions with: 
                l(1) =   0
                l(2) =   0
                l(3) =   1
                l(4) =   1
     Q(r) pseudized with 0 coefficients 


     PseudoPot. # 5 for H  read from file:
     ~/PSEUDO/H.pbe-rrkjus.UPF
     MD5 check sum: Not computed, couldn't open file
     Pseudo is Ultrasoft, Zval =  1.0
     Generated by new atomic code, or converted to UPF format
     Using radial grid of 1061 points,  2 beta functions with: 
                l(1) =   0
                l(2) =   0
     Q(r) pseudized with 0 coefficients 


     atomic species   valence    mass     pseudopotential
     Ni               10.00    58.69300     Ni( 1.00)
     Mn               15.00    54.93800     Mn( 1.00)
     P                 5.00    30.97300     P ( 1.00)
     O                 6.00    15.99900     O ( 1.00)
     H                 1.00     1.00790     H ( 1.00)

     Starting magnetic structure 
     atomic species   magnetization
     Ni              1.000
     Mn              1.000
     P               1.000
     O               1.000
     H               0.000

     No symmetry found



   Cartesian axes

     site n.     atom                  positions (alat units)
         1        Mn     tau(   1) = (   0.2404744   0.8371250   0.1168501  )
         2        Ni     tau(   2) = (   0.4968126   0.7726670   0.4415546  )
         3        Ni     tau(   3) = (   0.0066150   0.2936743   0.1241053  )
         4        Ni     tau(   4) = (   0.2585722   0.2355858   0.4448848  )
         5        Ni     tau(   5) = (   0.9987350   1.0696411   0.2854926  )
         6        Ni     tau(   6) = (   0.2517397   0.5330511   0.2829322  )
         7        Ni     tau(   7) = (   0.7451645   0.8337543   0.1221751  )
         8        Ni     tau(   8) = (   0.9939181   0.7738804   0.4407595  )
         9        Ni     tau(   9) = (   0.5111533   0.2924088   0.1251865  )
        10        Ni     tau(  10) = (   0.7606326   0.2319267   0.4451372  )
        11        Ni     tau(  11) = (   0.5024065   1.0688133   0.2870502  )
        12        Ni     tau(  12) = (   0.7529977   0.5317900   0.2845227  )
        13        P      tau(  13) = (   0.2092944   0.9731097   0.4345035  )
        14        P      tau(  14) = (   0.4655727   0.6359535   0.1274635  )
        15        P      tau(  15) = (   0.2910699   0.1027363   0.1296098  )
        16        P      tau(  16) = (   0.0396216   0.4288395   0.4398838  )
        17        O      tau(  17) = (   0.1294378   0.9013260   0.3010618  )
        18        O      tau(  18) = (   0.3874505   0.7054774   0.2637003  )
        19        O      tau(  19) = (   0.3702540   0.1714799   0.2660028  )
        20        O      tau(  20) = (   0.1184398   0.3582958   0.3038353  )
        21        O      tau(  21) = (   0.1451572   0.8850881   0.5587578  )
        22        O      tau(  22) = (   0.4048762   0.7245585   0.0017492  )
        23        O      tau(  23) = (   0.3523506   0.1900579   0.0035744  )
        24        O      tau(  24) = (   0.1017610   0.3410484   0.5656572  )
        25        O      tau(  25) = (   0.0975396   0.5849288   0.4357922  )
        26        O      tau(  26) = (   0.3483552   1.0314945   0.1270322  )
        27        O      tau(  27) = (   0.3784305   0.4225118   0.4308928  )
        28        O      tau(  28) = (   0.1268237   0.1067944   0.1392744  )
        29        O      tau(  29) = (   0.1212267   0.6424170   0.1362896  )
        30        O      tau(  30) = (   0.4053315   0.4809387   0.1300622  )
        31        O      tau(  31) = (   0.1536621   0.0446918   0.4373386  )
        32        O      tau(  32) = (   0.3732349   0.9631717   0.4256642  )
        33        P      tau(  33) = (   0.7119823   0.9695974   0.4373010  )
        34        P      tau(  34) = (   0.9615208   0.6363392   0.1262932  )
        35        P      tau(  35) = (   0.7927710   0.0970060   0.1292164  )
        36        P      tau(  36) = (   0.5426404   0.4269675   0.4410738  )
        37        O      tau(  37) = (   0.6326879   0.8991182   0.3013240  )
        38        O      tau(  38) = (   0.8842163   0.7083206   0.2625155  )
        39        O      tau(  39) = (   0.8716178   0.1677751   0.2653504  )
        40        O      tau(  40) = (   0.6212010   0.3558666   0.3051085  )
        41        O      tau(  41) = (   0.6507714   0.8812342   0.5631722  )
        42        O      tau(  42) = (   0.9014054   0.7264458   0.0010676  )
        43        O      tau(  43) = (   0.8548963   0.1847909   0.0035471  )
        44        O      tau(  44) = (   0.6044469   0.3378706   0.5660366  )
        45        O      tau(  45) = (   0.6024424   0.5823140   0.4379016  )
        46        O      tau(  46) = (   0.8498940   1.0254482   0.1275156  )
        47        O      tau(  47) = (   0.8798395   0.4205825   0.4305771  )
        48        O      tau(  48) = (   0.6286921   0.1034636   0.1397346  )
        49        O      tau(  49) = (   0.6294973   0.6427753   0.1372553  )
        50        O      tau(  50) = (   0.9024339   0.4810312   0.1296418  )
        51        O      tau(  51) = (   0.6547812   0.0410987   0.4396636  )
        52        O      tau(  52) = (   0.8760507   0.9632605   0.4264507  )
        53        Mn     tau(  53) = (   0.2404744   0.8246335   0.7367378  )
        54        Ni     tau(  54) = (   0.4968126   0.7601755   1.0614423  )
        55        Ni     tau(  55) = (   0.0066150   0.2811828   0.7439929  )
        56        Ni     tau(  56) = (   0.2585722   0.2230943   1.0647725  )
        57        Ni     tau(  57) = (   0.9987350   1.0571496   0.9053803  )
        58        Ni     tau(  58) = (   0.2517397   0.5205596   0.9028199  )
        59        Ni     tau(  59) = (   0.7451645   0.8212628   0.7420628  )
        60        Ni     tau(  60) = (   0.9939181   0.7613889   1.0606471  )
        61        Ni     tau(  61) = (   0.5111533   0.2799173   0.7450742  )
        62        Ni     tau(  62) = (   0.7606326   0.2194352   1.0650249  )
        63        Ni     tau(  63) = (   0.5024065   1.0563218   0.9069379  )
        64        Ni     tau(  64) = (   0.7529977   0.5192985   0.9044104  )
        65        P      tau(  65) = (   0.2092944   0.9606182   1.0543912  )
        66        P      tau(  66) = (   0.4655727   0.6234620   0.7473512  )
        67        P      tau(  67) = (   0.2910699   0.0902448   0.7494974  )
        68        P      tau(  68) = (   0.0396216   0.4163480   1.0597715  )
        69        O      tau(  69) = (   0.1294378   0.8888345   0.9209495  )
        70        O      tau(  70) = (   0.3874505   0.6929859   0.8835880  )
        71        O      tau(  71) = (   0.3702540   0.1589885   0.8858904  )
        72        O      tau(  72) = (   0.1184398   0.3458043   0.9237230  )
        73        O      tau(  73) = (   0.1451572   0.8725966   1.1786454  )
        74        O      tau(  74) = (   0.4048762   0.7120670   0.6216369  )
        75        O      tau(  75) = (   0.3523506   0.1775664   0.6234620  )
        76        O      tau(  76) = (   0.1017610   0.3285569   1.1855448  )
        77        O      tau(  77) = (   0.0975396   0.5724373   1.0556799  )
        78        O      tau(  78) = (   0.3483552   1.0190030   0.7469198  )
        79        O      tau(  79) = (   0.3784305   0.4100203   1.0507804  )
        80        O      tau(  80) = (   0.1268237   0.0943029   0.7591620  )
        81        O      tau(  81) = (   0.1212267   0.6299255   0.7561772  )
        82        O      tau(  82) = (   0.4053315   0.4684472   0.7499499  )
        83        O      tau(  83) = (   0.1536621   0.0322003   1.0572263  )
        84        O      tau(  84) = (   0.3732349   0.9506802   1.0455518  )
        85        P      tau(  85) = (   0.7119823   0.9571059   1.0571887  )
        86        P      tau(  86) = (   0.9615208   0.6238477   0.7461808  )
        87        P      tau(  87) = (   0.7927710   0.0845145   0.7491041  )
        88        P      tau(  88) = (   0.5426404   0.4144760   1.0609615  )
        89        O      tau(  89) = (   0.6326879   0.8866267   0.9212117  )
        90        O      tau(  90) = (   0.8842163   0.6958291   0.8824032  )
        91        O      tau(  91) = (   0.8716178   0.1552836   0.8852381  )
        92        O      tau(  92) = (   0.6212010   0.3433751   0.9249961  )
        93        O      tau(  93) = (   0.6507714   0.8687427   1.1830599  )
        94        O      tau(  94) = (   0.9014054   0.7139543   0.6209553  )
        95        O      tau(  95) = (   0.8548963   0.1722994   0.6234348  )
        96        O      tau(  96) = (   0.6044469   0.3253792   1.1859242  )
        97        O      tau(  97) = (   0.6024424   0.5698225   1.0577892  )
        98        O      tau(  98) = (   0.8498940   1.0129567   0.7474033  )
        99        O      tau(  99) = (   0.8798395   0.4080910   1.0504647  )
       100        O      tau( 100) = (   0.6286921   0.0909721   0.7596222  )
       101        O      tau( 101) = (   0.6294973   0.6302838   0.7571429  )
       102        O      tau( 102) = (   0.9024339   0.4685397   0.7495295  )
       103        O      tau( 103) = (   0.6547812   0.0286072   1.0595512  )
       104        O      tau( 104) = (   0.8760507   0.9507690   1.0463383  )
       105        Mn     tau( 105) = (   0.2360286   0.8108680   1.3646161  )
       106        Ni     tau( 106) = (   0.5051009   0.7460090   1.6766411  )
       107        Ni     tau( 107) = (   0.0089790   0.2684271   1.3696766  )
       108        Ni     tau( 108) = (   0.2495073   0.2106909   1.6775379  )
       109        Ni     tau( 109) = (   1.0062708   1.0454541   1.5360213  )
       110        Ni     tau( 110) = (   0.2479374   0.5066192   1.5313526  )
       111        Ni     tau( 111) = (   0.7431191   0.8063067   1.3679731  )
       112        Ni     tau( 112) = (   1.0037361   0.7473717   1.6794531  )
       113        Ni     tau( 113) = (   0.5111982   0.2673840   1.3697685  )
       114        Ni     tau( 114) = (   0.7492858   0.2093025   1.6762228  )
       115        Ni     tau( 115) = (   0.5067624   1.0449100   1.5350937  )
       116        Ni     tau( 116) = (   0.7468996   0.5064891   1.5326880  )
       117        P      tau( 117) = (   0.2178085   0.9351494   1.6988919  )
       118        P      tau( 118) = (   0.4617675   0.6087542   1.3710415  )
       119        P      tau( 119) = (   0.2937841   0.0753654   1.3734690  )
       120        P      tau( 120) = (   0.0358358   0.3974846   1.6921367  )
       121        O      tau( 121) = (   0.1387046   0.8724786   1.5548501  )
       122        O      tau( 122) = (   0.3848328   0.6786745   1.5075778  )
       123        O      tau( 123) = (   0.3719786   0.1445085   1.5096958  )
       124        O      tau( 124) = (   0.1143830   0.3367378   1.5464250  )
       125        O      tau( 125) = (   0.1565018   0.8385659   1.8140191  )
       126        O      tau( 126) = (   0.4021914   0.6979810   1.2450697  )
       127        O      tau( 127) = (   0.3541903   0.1613047   1.2462775  )
       128        O      tau( 128) = (   0.0965843   0.3001647   1.8071006  )
       129        O      tau( 129) = (   0.0920909   0.5552049   1.6903764  )
       130        O      tau( 130) = (   0.3517959   0.9950709   1.3768008  )
       131        O      tau( 131) = (   0.3708645   0.3936667   1.6775497  )
       132        O      tau( 132) = (   0.1298869   0.0804419   1.3855205  )
       133        O      tau( 133) = (   0.1211744   0.6182229   1.3826112  )
       134        O      tau( 134) = (   0.4011388   0.4540384   1.3730398  )
       135        O      tau( 135) = (   0.1623848   0.0174198   1.6939947  )
       136        O      tau( 136) = (   0.3826239   0.9300962   1.6813543  )
       137        P      tau( 137) = (   0.7173585   0.9337504   1.6934912  )
       138        P      tau( 138) = (   0.9568020   0.6100811   1.3706653  )
       139        P      tau( 139) = (   0.7946857   0.0710275   1.3726349  )
       140        P      tau( 140) = (   0.5359521   0.3960821   1.6924427  )
       141        O      tau( 141) = (   0.6389077   0.8730151   1.5475921  )
       142        O      tau( 142) = (   0.8816089   0.6823382   1.5072497  )
       143        O      tau( 143) = (   0.8719477   0.1432616   1.5087040  )
       144        O      tau( 144) = (   0.6148901   0.3350334   1.5469233  )
       145        O      tau( 145) = (   0.6569608   0.8359464   1.8081011  )
       146        O      tau( 146) = (   0.8981277   0.6986446   1.2438436  )
       147        O      tau( 147) = (   0.8555890   0.1585226   1.2461352  )
       148        O      tau( 148) = (   0.5953980   0.2976882   1.8070016  )
       149        O      tau( 149) = (   0.5932906   0.5533667   1.6911355  )
       150        O      tau( 150) = (   0.8547734   0.9920557   1.3765172  )
       151        O      tau( 151) = (   0.8708257   0.3933606   1.6779445  )
       152        O      tau( 152) = (   0.6306651   0.0781130   1.3844263  )
       153        O      tau( 153) = (   0.6257121   0.6164374   1.3827303  )
       154        O      tau( 154) = (   0.8983890   0.4550611   1.3741949  )
       155        O      tau( 155) = (   0.6612130   0.0158887   1.6915759  )
       156        O      tau( 156) = (   0.8825535   0.9305716   1.6802158  )
       157        O      tau( 157) = (   0.8848649   0.1054392   1.8498605  )
       158        H      tau( 158) = (   0.9697738   0.1698990   1.8589530  )

     -------------------------------------------------
     Parameters for Dispersion (Grimme-D2) Correction:
     -------------------------------------------------
       atom      VdW radius       C_6     

        Ni         2.952        374.666
        Mn         2.952        374.666
        P          3.222        271.980
        O          2.536         24.284
        H          1.892          4.857

     number of k points=     1  Gaussian smearing, width (Ry)=  0.0100
                       cart. coord. in units 2pi/alat
        k(    1) = (   0.0000000   0.0000000   0.0000000), wk =   1.0000000

     Dense  grid:  1918138 G-vectors     FFT dimensions: ( 125, 135, 432)

     Smooth grid:   485265 G-vectors     FFT dimensions: (  80,  90, 288)

     Estimated max dynamical RAM per process >     320.12 MB

     Estimated total dynamical RAM >      20.01 GB
     Generating pointlists ...
     new r_m :   0.0866 (alat units)  1.5324 (a.u.) for type    1
     new r_m :   0.0869 (alat units)  1.5388 (a.u.) for type    2
     new r_m :   0.0650 (alat units)  1.1499 (a.u.) for type    3
     new r_m :   0.0441 (alat units)  0.7812 (a.u.) for type    4
     new r_m :   0.0441 (alat units)  0.7812 (a.u.) for type    5

     Initial potential from superposition of free atoms

     starting charge    1077.8900, renormalised to    1078.0000

     negative rho (up, down):  1.235E-03 4.560E-04
 
     Adding external electric field

     Computed dipole along edir(3) : 
        Dipole                1.6145 Ry au,          4.1038 Debye
        Dipole field          0.0010 Ry au, 
 
        Potential amp.       -0.1084 Ry
        Total length         54.2615 bohr
 
 
     Adding external electric field

     Computed dipole along edir(3) : 
        Dipole                1.6145 Ry au,          4.1038 Debye
        Dipole field          0.0010 Ry au, 
 
        Potential amp.       -0.1084 Ry
        Total length         54.2615 bohr
 
     Starting wfcs are  812 randomized atomic wfcs

     total cpu time spent up to now is       11.7 secs

     Self-consistent Calculation

     iteration #  1     ecut=    50.00 Ry     beta= 0.10
     Davidson diagonalization with overlap
     ethr =  1.00E-02,  avg # of iterations =  6.0

     negative rho (up, down):  3.460E-01 7.244E-06
 
     Adding external electric field

     Computed dipole along edir(3) : 
        Dipole               -3.2237 Ry au,         -8.1938 Debye
        Dipole field         -0.0020 Ry au, 
 
        Potential amp.        0.2164 Ry
        Total length         54.2615 bohr
 
 
     Adding external electric field

     Computed dipole along edir(3) : 
        Dipole               -3.2237 Ry au,         -8.1938 Debye
        Dipole field         -0.0020 Ry au, 
 
        Potential amp.        0.2164 Ry
        Total length         54.2615 bohr
 

     total cpu time spent up to now is       43.9 secs

     total energy              =   -7181.17121826 Ry
     estimated scf accuracy    <     756.25556596 Ry

     total magnetization       =   216.00 Bohr mag/cell
     absolute magnetization    =   296.56 Bohr mag/cell

     iteration #  2     ecut=    50.00 Ry     beta= 0.10
     Davidson diagonalization with overlap
     ethr =  1.00E-02,  avg # of iterations =  2.0

     negative rho (up, down):  3.170E-01 6.928E-06
 
     Adding external electric field

     Computed dipole along edir(3) : 
        Dipole               -2.4005 Ry au,         -6.1014 Debye
        Dipole field         -0.0015 Ry au, 
 
        Potential amp.        0.1611 Ry
        Total length         54.2615 bohr
 
 
     Adding external electric field

     Computed dipole along edir(3) : 
        Dipole               -2.4005 Ry au,         -6.1014 Debye
        Dipole field         -0.0015 Ry au, 
 
        Potential amp.        0.1611 Ry
        Total length         54.2615 bohr
 

     total cpu time spent up to now is       61.5 secs

     total energy              =   -7265.21749475 Ry
     estimated scf accuracy    <     152.84032989 Ry

     total magnetization       =   144.15 Bohr mag/cell
     absolute magnetization    =   196.44 Bohr mag/cell

     iteration #  3     ecut=    50.00 Ry     beta= 0.10
     Davidson diagonalization with overlap
     ethr =  1.00E-02,  avg # of iterations =  1.5

     negative rho (up, down):  2.744E-01 5.670E-06
 
     Adding external electric field

     Computed dipole along edir(3) : 
        Dipole               -1.9645 Ry au,         -4.9933 Debye
        Dipole field         -0.0012 Ry au, 
 
        Potential amp.        0.1318 Ry
        Total length         54.2615 bohr
 
 
     Adding external electric field

     Computed dipole along edir(3) : 
        Dipole               -1.9645 Ry au,         -4.9933 Debye
        Dipole field         -0.0012 Ry au, 
 
        Potential amp.        0.1318 Ry
        Total length         54.2615 bohr
 

     total cpu time spent up to now is       74.7 secs

     total energy              =   -7298.43381979 Ry
     estimated scf accuracy    <      97.40807099 Ry

     total magnetization       =   121.74 Bohr mag/cell
     absolute magnetization    =   176.29 Bohr mag/cell

     iteration #  4     ecut=    50.00 Ry     beta= 0.10
     Davidson diagonalization with overlap
     ethr =  9.04E-03,  avg # of iterations =  1.5

     negative rho (up, down):  2.008E-01 2.212E-06
 
     Adding external electric field

     Computed dipole along edir(3) : 
        Dipole               -1.9609 Ry au,         -4.9841 Debye
        Dipole field         -0.0012 Ry au, 
 
        Potential amp.        0.1316 Ry
        Total length         54.2615 bohr
 
 
     Adding external electric field

     Computed dipole along edir(3) : 
        Dipole               -1.9609 Ry au,         -4.9841 Debye
        Dipole field         -0.0012 Ry au, 
 
        Potential amp.        0.1316 Ry
        Total length         54.2615 bohr
 

     total cpu time spent up to now is       88.0 secs

     total energy              =   -7332.50296105 Ry
     estimated scf accuracy    <      76.26140990 Ry

     total magnetization       =   105.03 Bohr mag/cell
     absolute magnetization    =   161.19 Bohr mag/cell

     iteration #  5     ecut=    50.00 Ry     beta= 0.10
     Davidson diagonalization with overlap
     ethr =  7.07E-03,  avg # of iterations =  1.5

     negative rho (up, down):  2.755E-03 2.020E-07
 
     Adding external electric field

     Computed dipole along edir(3) : 
        Dipole               -1.3381 Ry au,         -3.4011 Debye
        Dipole field         -0.0008 Ry au, 
 
        Potential amp.        0.0898 Ry
        Total length         54.2615 bohr
 
 
     Adding external electric field

     Computed dipole along edir(3) : 
        Dipole               -1.3381 Ry au,         -3.4011 Debye
        Dipole field         -0.0008 Ry au, 
 
        Potential amp.        0.0898 Ry
        Total length         54.2615 bohr
 

     total cpu time spent up to now is      102.2 secs

     total energy              =   -7389.58521189 Ry
     estimated scf accuracy    <      57.62966984 Ry

     total magnetization       =    88.00 Bohr mag/cell
     absolute magnetization    =   143.63 Bohr mag/cell

     iteration #  6     ecut=    50.00 Ry     beta= 0.10
     Davidson diagonalization with overlap
     ethr =  5.35E-03,  avg # of iterations =  1.5

     negative rho (up, down):  7.420E-04 9.487E-05
 
     Adding external electric field

     Computed dipole along edir(3) : 
        Dipole               -1.0900 Ry au,         -2.7705 Debye
        Dipole field         -0.0007 Ry au, 
 
        Potential amp.        0.0732 Ry
        Total length         54.2615 bohr
 
 
     Adding external electric field

     Computed dipole along edir(3) : 
        Dipole               -1.0900 Ry au,         -2.7705 Debye
        Dipole field         -0.0007 Ry au, 
 
        Potential amp.        0.0732 Ry
        Total length         54.2615 bohr
 

     total cpu time spent up to now is      115.9 secs

     total energy              =   -7396.02878353 Ry
     estimated scf accuracy    <       9.14346696 Ry

     total magnetization       =    77.26 Bohr mag/cell
     absolute magnetization    =   107.64 Bohr mag/cell

     iteration #  7     ecut=    50.00 Ry     beta= 0.10
     Davidson diagonalization with overlap
     ethr =  8.48E-04,  avg # of iterations =  5.5

     negative rho (up, down):  7.053E-04 6.669E-05
 
     Adding external electric field

     Computed dipole along edir(3) : 
        Dipole               -1.1036 Ry au,         -2.8050 Debye
        Dipole field         -0.0007 Ry au, 
 
        Potential amp.        0.0741 Ry
        Total length         54.2615 bohr
 
 
     Adding external electric field

     Computed dipole along edir(3) : 
        Dipole               -1.1036 Ry au,         -2.8050 Debye
        Dipole field         -0.0007 Ry au, 
 
        Potential amp.        0.0741 Ry
        Total length         54.2615 bohr
 

     total cpu time spent up to now is      138.1 secs

     total energy              =   -7397.50097020 Ry
     estimated scf accuracy    <       9.26140106 Ry

     total magnetization       =    72.00 Bohr mag/cell
     absolute magnetization    =    89.73 Bohr mag/cell

     iteration #  8     ecut=    50.00 Ry     beta= 0.10
     Davidson diagonalization with overlap
     ethr =  8.48E-04,  avg # of iterations =  1.0

     negative rho (up, down):  2.658E-03 2.158E-03
 
     Adding external electric field

     Computed dipole along edir(3) : 
        Dipole               -0.9185 Ry au,         -2.3345 Debye
        Dipole field         -0.0006 Ry au, 
 
        Potential amp.        0.0616 Ry
        Total length         54.2615 bohr
 
 
     Adding external electric field

     Computed dipole along edir(3) : 
        Dipole               -0.9185 Ry au,         -2.3345 Debye
        Dipole field         -0.0006 Ry au, 
 
        Potential amp.        0.0616 Ry
        Total length         54.2615 bohr
 

     total cpu time spent up to now is      151.6 secs

     total energy              =   -7396.80688877 Ry
     estimated scf accuracy    <      10.31762026 Ry

     total magnetization       =    71.92 Bohr mag/cell
     absolute magnetization    =    89.63 Bohr mag/cell

     iteration #  9     ecut=    50.00 Ry     beta= 0.10
     Davidson diagonalization with overlap
     ethr =  8.48E-04,  avg # of iterations =  2.5

     negative rho (up, down):  2.016E-03 1.854E-03
 
     Adding external electric field

     Computed dipole along edir(3) : 
        Dipole               -1.0563 Ry au,         -2.6848 Debye
        Dipole field         -0.0007 Ry au, 
 
        Potential amp.        0.0709 Ry
        Total length         54.2615 bohr
 
 
     Adding external electric field

     Computed dipole along edir(3) : 
        Dipole               -1.0563 Ry au,         -2.6848 Debye
        Dipole field         -0.0007 Ry au, 
 
        Potential amp.        0.0709 Ry
        Total length         54.2615 bohr
 

     total cpu time spent up to now is      167.2 secs

     total energy              =   -7397.44873225 Ry
     estimated scf accuracy    <      10.59653855 Ry

     total magnetization       =    81.86 Bohr mag/cell
     absolute magnetization    =    93.58 Bohr mag/cell

     iteration # 10     ecut=    50.00 Ry     beta= 0.10
     Davidson diagonalization with overlap
     ethr =  8.48E-04,  avg # of iterations =  1.5

     negative rho (up, down):  1.716E-03 1.390E-03
 
     Adding external electric field

     Computed dipole along edir(3) : 
        Dipole               -1.0656 Ry au,         -2.7086 Debye
        Dipole field         -0.0007 Ry au, 
 
        Potential amp.        0.0715 Ry
        Total length         54.2615 bohr
 
 
     Adding external electric field

     Computed dipole along edir(3) : 
        Dipole               -1.0656 Ry au,         -2.7086 Debye
        Dipole field         -0.0007 Ry au, 
 
        Potential amp.        0.0715 Ry
        Total length         54.2615 bohr
 

     total cpu time spent up to now is      180.2 secs

     total energy              =   -7397.59181118 Ry
     estimated scf accuracy    <       1.42759567 Ry

     total magnetization       =    80.75 Bohr mag/cell
     absolute magnetization    =    92.00 Bohr mag/cell

     iteration # 11     ecut=    50.00 Ry     beta= 0.10
     Davidson diagonalization with overlap
     ethr =  1.32E-04,  avg # of iterations = 19.5

     negative rho (up, down):  9.571E-04 1.453E-03
 
     Adding external electric field

     Computed dipole along edir(3) : 
        Dipole               -1.0185 Ry au,         -2.5887 Debye
        Dipole field         -0.0006 Ry au, 
 
        Potential amp.        0.0684 Ry
        Total length         54.2615 bohr
 
 
     Adding external electric field

     Computed dipole along edir(3) : 
        Dipole               -1.0185 Ry au,         -2.5887 Debye
        Dipole field         -0.0006 Ry au, 
 
        Potential amp.        0.0684 Ry
        Total length         54.2615 bohr
 

     total cpu time spent up to now is      215.0 secs

     total energy              =   -7397.74521800 Ry
     estimated scf accuracy    <       1.18407956 Ry

     total magnetization       =    80.86 Bohr mag/cell
     absolute magnetization    =    91.29 Bohr mag/cell

     iteration # 12     ecut=    50.00 Ry     beta= 0.10
     Davidson diagonalization with overlap
     ethr =  1.10E-04,  avg # of iterations =  2.0

     negative rho (up, down):  1.109E-03 1.835E-03
 
     Adding external electric field

     Computed dipole along edir(3) : 
        Dipole               -1.0242 Ry au,         -2.6033 Debye
        Dipole field         -0.0006 Ry au, 
 
        Potential amp.        0.0687 Ry
        Total length         54.2615 bohr
 
 
     Adding external electric field

     Computed dipole along edir(3) : 
        Dipole               -1.0242 Ry au,         -2.6033 Debye
        Dipole field         -0.0006 Ry au, 
 
        Potential amp.        0.0687 Ry
        Total length         54.2615 bohr
 

     total cpu time spent up to now is      228.8 secs

     total energy              =   -7397.83089347 Ry
     estimated scf accuracy    <       1.66805432 Ry

     total magnetization       =    78.26 Bohr mag/cell
     absolute magnetization    =    85.45 Bohr mag/cell

     iteration # 13     ecut=    50.00 Ry     beta= 0.10
     Davidson diagonalization with overlap
     ethr =  1.10E-04,  avg # of iterations =  1.0

     negative rho (up, down):  1.173E-03 1.740E-03
 
     Adding external electric field

     Computed dipole along edir(3) : 
        Dipole               -1.0276 Ry au,         -2.6118 Debye
        Dipole field         -0.0006 Ry au, 
 
        Potential amp.        0.0690 Ry
        Total length         54.2615 bohr
 
 
     Adding external electric field

     Computed dipole along edir(3) : 
        Dipole               -1.0276 Ry au,         -2.6118 Debye
        Dipole field         -0.0006 Ry au, 
 
        Potential amp.        0.0690 Ry
        Total length         54.2615 bohr
 

     total cpu time spent up to now is      241.2 secs

     total energy              =   -7397.86221983 Ry
     estimated scf accuracy    <       0.94143039 Ry

     total magnetization       =    79.32 Bohr mag/cell
     absolute magnetization    =    85.55 Bohr mag/cell

     iteration # 14     ecut=    50.00 Ry     beta= 0.10
     Davidson diagonalization with overlap
     ethr =  8.73E-05,  avg # of iterations =  1.0

     negative rho (up, down):  8.684E-04 1.657E-03
 
     Adding external electric field

     Computed dipole along edir(3) : 
        Dipole               -1.0108 Ry au,         -2.5692 Debye
        Dipole field         -0.0006 Ry au, 
 
        Potential amp.        0.0678 Ry
        Total length         54.2615 bohr
 
 
     Adding external electric field

     Computed dipole along edir(3) : 
        Dipole               -1.0108 Ry au,         -2.5692 Debye
        Dipole field         -0.0006 Ry au, 
 
        Potential amp.        0.0678 Ry
        Total length         54.2615 bohr
 

     total cpu time spent up to now is      253.0 secs

     total energy              =   -7397.90420760 Ry
     estimated scf accuracy    <       0.42549817 Ry

     total magnetization       =    80.67 Bohr mag/cell
     absolute magnetization    =    86.29 Bohr mag/cell

     iteration # 15     ecut=    50.00 Ry     beta= 0.10
     Davidson diagonalization with overlap
     ethr =  3.95E-05,  avg # of iterations =  1.5

     negative rho (up, down):  5.692E-04 1.381E-03
 
     Adding external electric field

     Computed dipole along edir(3) : 
        Dipole               -0.9972 Ry au,         -2.5346 Debye
        Dipole field         -0.0006 Ry au, 
 
        Potential amp.        0.0669 Ry
        Total length         54.2615 bohr
 
 
     Adding external electric field

     Computed dipole along edir(3) : 
        Dipole               -0.9972 Ry au,         -2.5346 Debye
        Dipole field         -0.0006 Ry au, 
 
        Potential amp.        0.0669 Ry
        Total length         54.2615 bohr
 

     total cpu time spent up to now is      266.2 secs

     total energy              =   -7397.93503301 Ry
     estimated scf accuracy    <       0.29546204 Ry

     total magnetization       =    80.67 Bohr mag/cell
     absolute magnetization    =    84.73 Bohr mag/cell

     iteration # 16     ecut=    50.00 Ry     beta= 0.10
     Davidson diagonalization with overlap
     ethr =  2.74E-05,  avg # of iterations =  2.0

     negative rho (up, down):  5.313E-04 1.333E-03
 
     Adding external electric field

     Computed dipole along edir(3) : 
        Dipole               -0.9965 Ry au,         -2.5328 Debye
        Dipole field         -0.0006 Ry au, 
 
        Potential amp.        0.0669 Ry
        Total length         54.2615 bohr
 
 
     Adding external electric field

     Computed dipole along edir(3) : 
        Dipole               -0.9965 Ry au,         -2.5328 Debye
        Dipole field         -0.0006 Ry au, 
 
        Potential amp.        0.0669 Ry
        Total length         54.2615 bohr
 

     total cpu time spent up to now is      280.7 secs

     total energy              =   -7397.94519126 Ry
     estimated scf accuracy    <       0.45496912 Ry

     total magnetization       =    79.47 Bohr mag/cell
     absolute magnetization    =    82.51 Bohr mag/cell

     iteration # 17     ecut=    50.00 Ry     beta= 0.10
     Davidson diagonalization with overlap
     ethr =  2.74E-05,  avg # of iterations =  1.0

     negative rho (up, down):  5.798E-04 8.915E-04
 
     Adding external electric field

     Computed dipole along edir(3) : 
        Dipole               -0.9805 Ry au,         -2.4922 Debye
        Dipole field         -0.0006 Ry au, 
 
        Potential amp.        0.0658 Ry
        Total length         54.2615 bohr
 
 
     Adding external electric field

     Computed dipole along edir(3) : 
        Dipole               -0.9805 Ry au,         -2.4922 Debye
        Dipole field         -0.0006 Ry au, 
 
        Potential amp.        0.0658 Ry
        Total length         54.2615 bohr
 

     total cpu time spent up to now is      292.8 secs

     total energy              =   -7397.95879843 Ry
     estimated scf accuracy    <       0.63084830 Ry

     total magnetization       =    79.06 Bohr mag/cell
     absolute magnetization    =    82.09 Bohr mag/cell

     iteration # 18     ecut=    50.00 Ry     beta= 0.10
     Davidson diagonalization with overlap
     ethr =  2.74E-05,  avg # of iterations =  2.0

     negative rho (up, down):  4.504E-04 6.659E-04
 
     Adding external electric field

     Computed dipole along edir(3) : 
        Dipole               -0.9627 Ry au,         -2.4469 Debye
        Dipole field         -0.0006 Ry au, 
 
        Potential amp.        0.0646 Ry
        Total length         54.2615 bohr
 
 
     Adding external electric field

     Computed dipole along edir(3) : 
        Dipole               -0.9627 Ry au,         -2.4469 Debye
        Dipole field         -0.0006 Ry au, 
 
        Potential amp.        0.0646 Ry
        Total length         54.2615 bohr
 

     total cpu time spent up to now is      307.0 secs

     total energy              =   -7397.97546777 Ry
     estimated scf accuracy    <       0.07508228 Ry

     total magnetization       =    80.41 Bohr mag/cell
     absolute magnetization    =    82.26 Bohr mag/cell

     iteration # 19     ecut=    50.00 Ry     beta= 0.10
     Davidson diagonalization with overlap
     ethr =  6.96E-06,  avg # of iterations =  4.0

     negative rho (up, down):  1.581E-04 1.628E-04
 
     Adding external electric field

     Computed dipole along edir(3) : 
        Dipole               -0.9148 Ry au,         -2.3251 Debye
        Dipole field         -0.0006 Ry au, 
 
        Potential amp.        0.0614 Ry
        Total length         54.2615 bohr
 
 
     Adding external electric field

     Computed dipole along edir(3) : 
        Dipole               -0.9148 Ry au,         -2.3251 Debye
        Dipole field         -0.0006 Ry au, 
 
        Potential amp.        0.0614 Ry
        Total length         54.2615 bohr
 

     total cpu time spent up to now is      322.2 secs

     total energy              =   -7397.97824421 Ry
     estimated scf accuracy    <       0.04920728 Ry

     total magnetization       =    80.92 Bohr mag/cell
     absolute magnetization    =    82.69 Bohr mag/cell

     iteration # 20     ecut=    50.00 Ry     beta= 0.10
     Davidson diagonalization with overlap
     c_bands:  2 eigenvalues not converged
     ethr =  4.56E-06,  avg # of iterations = 21.0

     negative rho (up, down):  7.323E-05 7.712E-05
 
     Adding external electric field

     Computed dipole along edir(3) : 
        Dipole               -0.8881 Ry au,         -2.2574 Debye
        Dipole field         -0.0005 Ry au, 
 
        Potential amp.        0.0596 Ry
        Total length         54.2615 bohr
 
 
     Adding external electric field

     Computed dipole along edir(3) : 
        Dipole               -0.8881 Ry au,         -2.2574 Debye
        Dipole field         -0.0005 Ry au, 
 
        Potential amp.        0.0596 Ry
        Total length         54.2615 bohr
 

     total cpu time spent up to now is      357.1 secs

     total energy              =   -7397.97941976 Ry
     estimated scf accuracy    <       0.04729297 Ry

     total magnetization       =    80.68 Bohr mag/cell
     absolute magnetization    =    82.32 Bohr mag/cell

     iteration # 21     ecut=    50.00 Ry     beta= 0.10
     Davidson diagonalization with overlap
     ethr =  4.39E-06,  avg # of iterations =  2.0

     negative rho (up, down):  7.279E-05 2.217E-05
 
     Adding external electric field

     Computed dipole along edir(3) : 
        Dipole               -0.8788 Ry au,         -2.2336 Debye
        Dipole field         -0.0005 Ry au, 
 
        Potential amp.        0.0590 Ry
        Total length         54.2615 bohr
 
 
     Adding external electric field

     Computed dipole along edir(3) : 
        Dipole               -0.8788 Ry au,         -2.2336 Debye
        Dipole field         -0.0005 Ry au, 
 
        Potential amp.        0.0590 Ry
        Total length         54.2615 bohr
 

     total cpu time spent up to now is      370.7 secs

     total energy              =   -7397.97872968 Ry
     estimated scf accuracy    <       0.04821299 Ry

     total magnetization       =    80.77 Bohr mag/cell
     absolute magnetization    =    82.40 Bohr mag/cell

     iteration # 22     ecut=    50.00 Ry     beta= 0.10
     Davidson diagonalization with overlap
     ethr =  4.39E-06,  avg # of iterations =  2.0

     negative rho (up, down):  6.109E-05 2.031E-05
 
     Adding external electric field

     Computed dipole along edir(3) : 
        Dipole               -0.8802 Ry au,         -2.2371 Debye
        Dipole field         -0.0005 Ry au, 
 
        Potential amp.        0.0591 Ry
        Total length         54.2615 bohr
 
 
     Adding external electric field

     Computed dipole along edir(3) : 
        Dipole               -0.8802 Ry au,         -2.2371 Debye
        Dipole field         -0.0005 Ry au, 
 
        Potential amp.        0.0591 Ry
        Total length         54.2615 bohr
 

     total cpu time spent up to now is      383.6 secs

     total energy              =   -7397.97917718 Ry
     estimated scf accuracy    <       0.04617445 Ry

     total magnetization       =    80.80 Bohr mag/cell
     absolute magnetization    =    82.43 Bohr mag/cell

     iteration # 23     ecut=    50.00 Ry     beta= 0.10
     Davidson diagonalization with overlap
     ethr =  4.28E-06,  avg # of iterations =  1.0

     negative rho (up, down):  4.974E-05 1.292E-05
 
     Adding external electric field

     Computed dipole along edir(3) : 
        Dipole               -0.8719 Ry au,         -2.2161 Debye
        Dipole field         -0.0005 Ry au, 
 
        Potential amp.        0.0585 Ry
        Total length         54.2615 bohr
 
 
     Adding external electric field

     Computed dipole along edir(3) : 
        Dipole               -0.8719 Ry au,         -2.2161 Debye
        Dipole field         -0.0005 Ry au, 
 
        Potential amp.        0.0585 Ry
        Total length         54.2615 bohr
 

     total cpu time spent up to now is      396.0 secs

     total energy              =   -7397.97861113 Ry
     estimated scf accuracy    <       0.04396836 Ry

     total magnetization       =    80.79 Bohr mag/cell
     absolute magnetization    =    82.43 Bohr mag/cell

     iteration # 24     ecut=    50.00 Ry     beta= 0.10
     Davidson diagonalization with overlap
     ethr =  4.08E-06,  avg # of iterations =  2.0

     negative rho (up, down):  4.383E-05 1.755E-05
 
     Adding external electric field

     Computed dipole along edir(3) : 
        Dipole               -0.8366 Ry au,         -2.1263 Debye
        Dipole field         -0.0005 Ry au, 
 
        Potential amp.        0.0561 Ry
        Total length         54.2615 bohr
 
 
     Adding external electric field

     Computed dipole along edir(3) : 
        Dipole               -0.8366 Ry au,         -2.1263 Debye
        Dipole field         -0.0005 Ry au, 
 
        Potential amp.        0.0561 Ry
        Total length         54.2615 bohr
 

     total cpu time spent up to now is      408.3 secs

     total energy              =   -7397.97655307 Ry
     estimated scf accuracy    <       0.04197997 Ry

     total magnetization       =    80.82 Bohr mag/cell
     absolute magnetization    =    82.46 Bohr mag/cell

     iteration # 25     ecut=    50.00 Ry     beta= 0.10
     Davidson diagonalization with overlap
     ethr =  3.89E-06,  avg # of iterations =  2.0

     negative rho (up, down):  4.008E-05 2.037E-05
 
     Adding external electric field

     Computed dipole along edir(3) : 
        Dipole               -0.8376 Ry au,         -2.1290 Debye
        Dipole field         -0.0005 Ry au, 
 
        Potential amp.        0.0562 Ry
        Total length         54.2615 bohr
 
 
     Adding external electric field

     Computed dipole along edir(3) : 
        Dipole               -0.8376 Ry au,         -2.1290 Debye
        Dipole field         -0.0005 Ry au, 
 
        Potential amp.        0.0562 Ry
        Total length         54.2615 bohr
 

     total cpu time spent up to now is      421.8 secs

     total energy              =   -7397.97847017 Ry
     estimated scf accuracy    <       0.05520887 Ry

     total magnetization       =    80.41 Bohr mag/cell
     absolute magnetization    =    81.89 Bohr mag/cell

     iteration # 26     ecut=    50.00 Ry     beta= 0.10
     Davidson diagonalization with overlap
     ethr =  3.89E-06,  avg # of iterations =  1.0

     negative rho (up, down):  3.125E-05 1.825E-05
 
     Adding external electric field

     Computed dipole along edir(3) : 
        Dipole               -0.8395 Ry au,         -2.1338 Debye
        Dipole field         -0.0005 Ry au, 
 
        Potential amp.        0.0563 Ry
        Total length         54.2615 bohr
 
 
     Adding external electric field

     Computed dipole along edir(3) : 
        Dipole               -0.8395 Ry au,         -2.1338 Debye
        Dipole field         -0.0005 Ry au, 
 
        Potential amp.        0.0563 Ry
        Total length         54.2615 bohr
 

     total cpu time spent up to now is      432.9 secs

     total energy              =   -7397.97856498 Ry
     estimated scf accuracy    <       0.06876636 Ry

     total magnetization       =    80.32 Bohr mag/cell
     absolute magnetization    =    81.82 Bohr mag/cell

     iteration # 27     ecut=    50.00 Ry     beta= 0.10
     Davidson diagonalization with overlap
     ethr =  3.89E-06,  avg # of iterations =  2.0

     negative rho (up, down):  4.856E-05 3.361E-05
 
     Adding external electric field

     Computed dipole along edir(3) : 
        Dipole               -0.8573 Ry au,         -2.1789 Debye
        Dipole field         -0.0005 Ry au, 
 
        Potential amp.        0.0575 Ry
        Total length         54.2615 bohr
 
 
     Adding external electric field

     Computed dipole along edir(3) : 
        Dipole               -0.8573 Ry au,         -2.1789 Debye
        Dipole field         -0.0005 Ry au, 
 
        Potential amp.        0.0575 Ry
        Total length         54.2615 bohr
 

     total cpu time spent up to now is      446.0 secs

     total energy              =   -7397.97858235 Ry
     estimated scf accuracy    <       0.05718450 Ry

     total magnetization       =    80.41 Bohr mag/cell
     absolute magnetization    =    81.92 Bohr mag/cell

     iteration # 28     ecut=    50.00 Ry     beta= 0.10
     Davidson diagonalization with overlap
     ethr =  3.89E-06,  avg # of iterations =  1.0

     negative rho (up, down):  8.456E-05 5.208E-05
 
     Adding external electric field

     Computed dipole along edir(3) : 
        Dipole               -0.8736 Ry au,         -2.2205 Debye
        Dipole field         -0.0005 Ry au, 
 
        Potential amp.        0.0586 Ry
        Total length         54.2615 bohr
 
 
     Adding external electric field

     Computed dipole along edir(3) : 
        Dipole               -0.8736 Ry au,         -2.2205 Debye
        Dipole field         -0.0005 Ry au, 
 
        Potential amp.        0.0586 Ry
        Total length         54.2615 bohr
 

     total cpu time spent up to now is      457.4 secs

     total energy              =   -7397.97820420 Ry
     estimated scf accuracy    <       0.05082650 Ry

     total magnetization       =    80.40 Bohr mag/cell
     absolute magnetization    =    81.99 Bohr mag/cell

     iteration # 29     ecut=    50.00 Ry     beta= 0.10
     Davidson diagonalization with overlap
     ethr =  3.89E-06,  avg # of iterations =  1.0

     negative rho (up, down):  6.708E-05 3.846E-05
 
     Adding external electric field

     Computed dipole along edir(3) : 
        Dipole               -0.8718 Ry au,         -2.2160 Debye
        Dipole field         -0.0005 Ry au, 
 
        Potential amp.        0.0585 Ry
        Total length         54.2615 bohr
 
 
     Adding external electric field

     Computed dipole along edir(3) : 
        Dipole               -0.8718 Ry au,         -2.2160 Debye
        Dipole field         -0.0005 Ry au, 
 
        Potential amp.        0.0585 Ry
        Total length         54.2615 bohr
 

     total cpu time spent up to now is      469.7 secs

     total energy              =   -7397.97845687 Ry
     estimated scf accuracy    <       0.03295406 Ry

     total magnetization       =    80.51 Bohr mag/cell
     absolute magnetization    =    82.15 Bohr mag/cell

     iteration # 30     ecut=    50.00 Ry     beta= 0.10
     Davidson diagonalization with overlap
     ethr =  3.06E-06,  avg # of iterations =  1.0

     negative rho (up, down):  5.080E-05 3.116E-05
 
     Adding external electric field

     Computed dipole along edir(3) : 
        Dipole               -0.8720 Ry au,         -2.2164 Debye
        Dipole field         -0.0005 Ry au, 
 
        Potential amp.        0.0585 Ry
        Total length         54.2615 bohr
 
 
     Adding external electric field

     Computed dipole along edir(3) : 
        Dipole               -0.8720 Ry au,         -2.2164 Debye
        Dipole field         -0.0005 Ry au, 
 
        Potential amp.        0.0585 Ry
        Total length         54.2615 bohr
 

     total cpu time spent up to now is      481.5 secs

     total energy              =   -7397.97866456 Ry
     estimated scf accuracy    <       0.03788124 Ry

     total magnetization       =    80.42 Bohr mag/cell
     absolute magnetization    =    82.06 Bohr mag/cell

     iteration # 31     ecut=    50.00 Ry     beta= 0.10
     Davidson diagonalization with overlap
     ethr =  3.06E-06,  avg # of iterations =  1.0

     negative rho (up, down):  5.429E-05 4.205E-05
 
     Adding external electric field

     Computed dipole along edir(3) : 
        Dipole               -0.8744 Ry au,         -2.2224 Debye
        Dipole field         -0.0005 Ry au, 
 
        Potential amp.        0.0587 Ry
        Total length         54.2615 bohr
 
 
     Adding external electric field

     Computed dipole along edir(3) : 
        Dipole               -0.8744 Ry au,         -2.2224 Debye
        Dipole field         -0.0005 Ry au, 
 
        Potential amp.        0.0587 Ry
        Total length         54.2615 bohr
 

     total cpu time spent up to now is      492.7 secs

     total energy              =   -7397.97878813 Ry
     estimated scf accuracy    <       0.04094948 Ry

     total magnetization       =    80.39 Bohr mag/cell
     absolute magnetization    =    82.05 Bohr mag/cell

     iteration # 32     ecut=    50.00 Ry     beta= 0.10
     Davidson diagonalization with overlap
     ethr =  3.06E-06,  avg # of iterations =  1.0

     negative rho (up, down):  1.342E-04 1.671E-04
 
     Adding external electric field

     Computed dipole along edir(3) : 
        Dipole               -0.8745 Ry au,         -2.2229 Debye
        Dipole field         -0.0005 Ry au, 
 
        Potential amp.        0.0587 Ry
        Total length         54.2615 bohr
 
 
     Adding external electric field

     Computed dipole along edir(3) : 
        Dipole               -0.8745 Ry au,         -2.2229 Debye
        Dipole field         -0.0005 Ry au, 
 
        Potential amp.        0.0587 Ry
        Total length         54.2615 bohr
 

     total cpu time spent up to now is      504.0 secs

     total energy              =   -7397.97752189 Ry
     estimated scf accuracy    <       0.03811692 Ry

     total magnetization       =    80.40 Bohr mag/cell
     absolute magnetization    =    82.07 Bohr mag/cell

     iteration # 33     ecut=    50.00 Ry     beta= 0.10
     Davidson diagonalization with overlap
     ethr =  3.06E-06,  avg # of iterations =  2.0

     negative rho (up, down):  2.151E-04 2.666E-04
 
     Adding external electric field

     Computed dipole along edir(3) : 
        Dipole               -0.8740 Ry au,         -2.2216 Debye
        Dipole field         -0.0005 Ry au, 
 
        Potential amp.        0.0587 Ry
        Total length         54.2615 bohr
 
 
     Adding external electric field

     Computed dipole along edir(3) : 
        Dipole               -0.8740 Ry au,         -2.2216 Debye
        Dipole field         -0.0005 Ry au, 
 
        Potential amp.        0.0587 Ry
        Total length         54.2615 bohr
 

     total cpu time spent up to now is      516.6 secs

     total energy              =   -7397.97780257 Ry
     estimated scf accuracy    <       0.02494560 Ry

     total magnetization       =    80.57 Bohr mag/cell
     absolute magnetization    =    82.14 Bohr mag/cell

     iteration # 34     ecut=    50.00 Ry     beta= 0.10
     Davidson diagonalization with overlap
     ethr =  2.31E-06,  avg # of iterations =  1.0

     negative rho (up, down):  1.210E-04 1.523E-04
 
     Adding external electric field

     Computed dipole along edir(3) : 
        Dipole               -0.8706 Ry au,         -2.2128 Debye
        Dipole field         -0.0005 Ry au, 
 
        Potential amp.        0.0584 Ry
        Total length         54.2615 bohr
 
 
     Adding external electric field

     Computed dipole along edir(3) : 
        Dipole               -0.8706 Ry au,         -2.2128 Debye
        Dipole field         -0.0005 Ry au, 
 
        Potential amp.        0.0584 Ry
        Total length         54.2615 bohr
 

     total cpu time spent up to now is      529.0 secs

     total energy              =   -7397.97826712 Ry
     estimated scf accuracy    <       0.02455578 Ry

     total magnetization       =    80.51 Bohr mag/cell
     absolute magnetization    =    82.04 Bohr mag/cell

     iteration # 35     ecut=    50.00 Ry     beta= 0.10
     Davidson diagonalization with overlap
     ethr =  2.28E-06,  avg # of iterations =  1.5

     negative rho (up, down):  1.708E-04 2.571E-04
 
     Adding external electric field

     Computed dipole along edir(3) : 
        Dipole               -0.8772 Ry au,         -2.2297 Debye
        Dipole field         -0.0005 Ry au, 
 
        Potential amp.        0.0589 Ry
        Total length         54.2615 bohr
 
 
     Adding external electric field

     Computed dipole along edir(3) : 
        Dipole               -0.8772 Ry au,         -2.2297 Debye
        Dipole field         -0.0005 Ry au, 
 
        Potential amp.        0.0589 Ry
        Total length         54.2615 bohr
 

     total cpu time spent up to now is      541.7 secs

     total energy              =   -7397.97734693 Ry
     estimated scf accuracy    <       0.02937176 Ry

     total magnetization       =    80.59 Bohr mag/cell
     absolute magnetization    =    82.13 Bohr mag/cell

     iteration # 36     ecut=    50.00 Ry     beta= 0.10
     Davidson diagonalization with overlap
     ethr =  2.28E-06,  avg # of iterations =  2.0

     negative rho (up, down):  7.040E-04 7.229E-04
 
     Adding external electric field

     Computed dipole along edir(3) : 
        Dipole               -0.8643 Ry au,         -2.1969 Debye
        Dipole field         -0.0005 Ry au, 
 
        Potential amp.        0.0580 Ry
        Total length         54.2615 bohr
 
 
     Adding external electric field

     Computed dipole along edir(3) : 
        Dipole               -0.8643 Ry au,         -2.1969 Debye
        Dipole field         -0.0005 Ry au, 
 
        Potential amp.        0.0580 Ry
        Total length         54.2615 bohr
 

     total cpu time spent up to now is      554.8 secs

     total energy              =   -7397.97757336 Ry
     estimated scf accuracy    <       0.02554054 Ry

     total magnetization       =    80.52 Bohr mag/cell
     absolute magnetization    =    82.10 Bohr mag/cell

     iteration # 37     ecut=    50.00 Ry     beta= 0.10
     Davidson diagonalization with overlap
     ethr =  2.28E-06,  avg # of iterations =  2.0

     negative rho (up, down):  6.437E-04 6.583E-04
 
     Adding external electric field

     Computed dipole along edir(3) : 
        Dipole               -0.8668 Ry au,         -2.2032 Debye
        Dipole field         -0.0005 Ry au, 
 
        Potential amp.        0.0582 Ry
        Total length         54.2615 bohr
 
 
     Adding external electric field

     Computed dipole along edir(3) : 
        Dipole               -0.8668 Ry au,         -2.2032 Debye
        Dipole field         -0.0005 Ry au, 
 
        Potential amp.        0.0582 Ry
        Total length         54.2615 bohr
 

     total cpu time spent up to now is      568.7 secs

     total energy              =   -7397.97792401 Ry
     estimated scf accuracy    <       0.02392339 Ry

     total magnetization       =    80.54 Bohr mag/cell
     absolute magnetization    =    82.03 Bohr mag/cell

     iteration # 38     ecut=    50.00 Ry     beta= 0.10
     Davidson diagonalization with overlap
     ethr =  2.22E-06,  avg # of iterations =  1.0

     negative rho (up, down):  5.992E-04 5.950E-04
 
     Adding external electric field

     Computed dipole along edir(3) : 
        Dipole               -0.8718 Ry au,         -2.2160 Debye
        Dipole field         -0.0005 Ry au, 
 
        Potential amp.        0.0585 Ry
        Total length         54.2615 bohr
 
 
     Adding external electric field

     Computed dipole along edir(3) : 
        Dipole               -0.8718 Ry au,         -2.2160 Debye
        Dipole field         -0.0005 Ry au, 
 
        Potential amp.        0.0585 Ry
        Total length         54.2615 bohr
 

     total cpu time spent up to now is      581.7 secs

     total energy              =   -7397.97800749 Ry
     estimated scf accuracy    <       0.02367240 Ry

     total magnetization       =    80.54 Bohr mag/cell
     absolute magnetization    =    82.04 Bohr mag/cell

     iteration # 39     ecut=    50.00 Ry     beta= 0.10
     Davidson diagonalization with overlap
     ethr =  2.20E-06,  avg # of iterations =  1.0

     negative rho (up, down):  9.033E-04 9.720E-04
 
     Adding external electric field

     Computed dipole along edir(3) : 
        Dipole               -0.8642 Ry au,         -2.1965 Debye
        Dipole field         -0.0005 Ry au, 
 
        Potential amp.        0.0580 Ry
        Total length         54.2615 bohr
 
 
     Adding external electric field

     Computed dipole along edir(3) : 
        Dipole               -0.8642 Ry au,         -2.1965 Debye
        Dipole field         -0.0005 Ry au, 
 
        Potential amp.        0.0580 Ry
        Total length         54.2615 bohr
 

     total cpu time spent up to now is      595.1 secs

     total energy              =   -7397.97785760 Ry
     estimated scf accuracy    <       0.02479377 Ry

     total magnetization       =    80.56 Bohr mag/cell
     absolute magnetization    =    82.07 Bohr mag/cell

     iteration # 40     ecut=    50.00 Ry     beta= 0.10
     Davidson diagonalization with overlap
     ethr =  2.20E-06,  avg # of iterations =  2.0

     negative rho (up, down):  1.043E-03 1.061E-03
 
     Adding external electric field

     Computed dipole along edir(3) : 
        Dipole               -0.8585 Ry au,         -2.1821 Debye
        Dipole field         -0.0005 Ry au, 
 
        Potential amp.        0.0576 Ry
        Total length         54.2615 bohr
 
 
     Adding external electric field

     Computed dipole along edir(3) : 
        Dipole               -0.8585 Ry au,         -2.1821 Debye
        Dipole field         -0.0005 Ry au, 
 
        Potential amp.        0.0576 Ry
        Total length         54.2615 bohr
 

     total cpu time spent up to now is      609.5 secs

     total energy              =   -7397.97749886 Ry
     estimated scf accuracy    <       0.02333726 Ry

     total magnetization       =    80.53 Bohr mag/cell
     absolute magnetization    =    82.06 Bohr mag/cell

     iteration # 41     ecut=    50.00 Ry     beta= 0.10
     Davidson diagonalization with overlap
     ethr =  2.16E-06,  avg # of iterations =  1.0

     negative rho (up, down):  4.340E-04 4.081E-04
 
     Adding external electric field

     Computed dipole along edir(3) : 
        Dipole               -0.8606 Ry au,         -2.1873 Debye
        Dipole field         -0.0005 Ry au, 
 
        Potential amp.        0.0578 Ry
        Total length         54.2615 bohr
 
 
     Adding external electric field

     Computed dipole along edir(3) : 
        Dipole               -0.8606 Ry au,         -2.1873 Debye
        Dipole field         -0.0005 Ry au, 
 
        Potential amp.        0.0578 Ry
        Total length         54.2615 bohr
 

     total cpu time spent up to now is      621.8 secs

     total energy              =   -7397.97817091 Ry
     estimated scf accuracy    <       0.02319024 Ry

     total magnetization       =    80.53 Bohr mag/cell
     absolute magnetization    =    82.00 Bohr mag/cell

     iteration # 42     ecut=    50.00 Ry     beta= 0.10
     Davidson diagonalization with overlap
     ethr =  2.15E-06,  avg # of iterations =  1.0

     negative rho (up, down):  2.242E-03 2.542E-03
 
     Adding external electric field

     Computed dipole along edir(3) : 
        Dipole               -0.8599 Ry au,         -2.1856 Debye
        Dipole field         -0.0005 Ry au, 
 
        Potential amp.        0.0577 Ry
        Total length         54.2615 bohr
 
 
     Adding external electric field

     Computed dipole along edir(3) : 
        Dipole               -0.8599 Ry au,         -2.1856 Debye
        Dipole field         -0.0005 Ry au, 
 
        Potential amp.        0.0577 Ry
        Total length         54.2615 bohr
 

     total cpu time spent up to now is      633.5 secs

     total energy              =   -7397.97645991 Ry
     estimated scf accuracy    <       0.02458429 Ry

     total magnetization       =    80.52 Bohr mag/cell
     absolute magnetization    =    82.05 Bohr mag/cell

     iteration # 43     ecut=    50.00 Ry     beta= 0.10
     Davidson diagonalization with overlap
     ethr =  2.15E-06,  avg # of iterations =  1.5

     negative rho (up, down):  5.167E-04 5.348E-04
 
     Adding external electric field

     Computed dipole along edir(3) : 
        Dipole               -0.8543 Ry au,         -2.1713 Debye
        Dipole field         -0.0005 Ry au, 
 
        Potential amp.        0.0573 Ry
        Total length         54.2615 bohr
 
 
     Adding external electric field

     Computed dipole along edir(3) : 
        Dipole               -0.8543 Ry au,         -2.1713 Debye
        Dipole field         -0.0005 Ry au, 
 
        Potential amp.        0.0573 Ry
        Total length         54.2615 bohr
 

     total cpu time spent up to now is      645.3 secs

     total energy              =   -7397.97780598 Ry
     estimated scf accuracy    <       0.02580217 Ry

     total magnetization       =    80.46 Bohr mag/cell
     absolute magnetization    =    81.92 Bohr mag/cell

     iteration # 44     ecut=    50.00 Ry     beta= 0.10
     Davidson diagonalization with overlap
     ethr =  2.15E-06,  avg # of iterations =  2.0

     negative rho (up, down):  1.353E-03 1.389E-03
 
     Adding external electric field

     Computed dipole along edir(3) : 
        Dipole               -0.8591 Ry au,         -2.1835 Debye
        Dipole field         -0.0005 Ry au, 
 
        Potential amp.        0.0577 Ry
        Total length         54.2615 bohr
 
 
     Adding external electric field

     Computed dipole along edir(3) : 
        Dipole               -0.8591 Ry au,         -2.1835 Debye
        Dipole field         -0.0005 Ry au, 
 
        Potential amp.        0.0577 Ry
        Total length         54.2615 bohr
 

     total cpu time spent up to now is      657.9 secs

     total energy              =   -7397.97728157 Ry
     estimated scf accuracy    <       0.02313157 Ry

     total magnetization       =    80.54 Bohr mag/cell
     absolute magnetization    =    81.99 Bohr mag/cell

     iteration # 45     ecut=    50.00 Ry     beta= 0.10
     Davidson diagonalization with overlap
     ethr =  2.15E-06,  avg # of iterations =  1.5

     negative rho (up, down):  2.065E-03 2.105E-03
 
     Adding external electric field

     Computed dipole along edir(3) : 
        Dipole               -0.8508 Ry au,         -2.1624 Debye
        Dipole field         -0.0005 Ry au, 
 
        Potential amp.        0.0571 Ry
        Total length         54.2615 bohr
 
 
     Adding external electric field

     Computed dipole along edir(3) : 
        Dipole               -0.8508 Ry au,         -2.1624 Debye
        Dipole field         -0.0005 Ry au, 
 
        Potential amp.        0.0571 Ry
        Total length         54.2615 bohr
 

     total cpu time spent up to now is      670.2 secs

     total energy              =   -7397.97681918 Ry
     estimated scf accuracy    <       0.02130424 Ry

     total magnetization       =    80.56 Bohr mag/cell
     absolute magnetization    =    82.03 Bohr mag/cell

     iteration # 46     ecut=    50.00 Ry     beta= 0.10
     Davidson diagonalization with overlap
     ethr =  1.98E-06,  avg # of iterations =  1.0

     negative rho (up, down):  3.297E-03 3.312E-03
 
     Adding external electric field

     Computed dipole along edir(3) : 
        Dipole               -0.8194 Ry au,         -2.0826 Debye
        Dipole field         -0.0005 Ry au, 
 
        Potential amp.        0.0550 Ry
        Total length         54.2615 bohr
 
 
     Adding external electric field

     Computed dipole along edir(3) : 
        Dipole               -0.8194 Ry au,         -2.0826 Debye
        Dipole field         -0.0005 Ry au, 
 
        Potential amp.        0.0550 Ry
        Total length         54.2615 bohr
 

     total cpu time spent up to now is      682.1 secs

     total energy              =   -7397.97629316 Ry
     estimated scf accuracy    <       0.02008935 Ry

     total magnetization       =    80.59 Bohr mag/cell
     absolute magnetization    =    82.07 Bohr mag/cell

     iteration # 47     ecut=    50.00 Ry     beta= 0.10
     Davidson diagonalization with overlap
     ethr =  1.86E-06,  avg # of iterations =  2.0

     negative rho (up, down):  4.759E-03 4.713E-03
 
     Adding external electric field

     Computed dipole along edir(3) : 
        Dipole               -0.7943 Ry au,         -2.0188 Debye
        Dipole field         -0.0005 Ry au, 
 
        Potential amp.        0.0533 Ry
        Total length         54.2615 bohr
 
 
     Adding external electric field

     Computed dipole along edir(3) : 
        Dipole               -0.7943 Ry au,         -2.0188 Debye
        Dipole field         -0.0005 Ry au, 
 
        Potential amp.        0.0533 Ry
        Total length         54.2615 bohr
 

     total cpu time spent up to now is      695.0 secs

     total energy              =   -7397.97561880 Ry
     estimated scf accuracy    <       0.01935092 Ry

     total magnetization       =    80.61 Bohr mag/cell
     absolute magnetization    =    82.09 Bohr mag/cell

     iteration # 48     ecut=    50.00 Ry     beta= 0.10
     Davidson diagonalization with overlap
     ethr =  1.80E-06,  avg # of iterations =  1.5

     negative rho (up, down):  4.563E-03 4.466E-03
 
     Adding external electric field

     Computed dipole along edir(3) : 
        Dipole               -0.7918 Ry au,         -2.0126 Debye
        Dipole field         -0.0005 Ry au, 
 
        Potential amp.        0.0531 Ry
        Total length         54.2615 bohr
 
 
     Adding external electric field

     Computed dipole along edir(3) : 
        Dipole               -0.7918 Ry au,         -2.0126 Debye
        Dipole field         -0.0005 Ry au, 
 
        Potential amp.        0.0531 Ry
        Total length         54.2615 bohr
 

     total cpu time spent up to now is      707.8 secs

     total energy              =   -7397.97552754 Ry
     estimated scf accuracy    <       0.01888574 Ry

     total magnetization       =    80.62 Bohr mag/cell
     absolute magnetization    =    82.07 Bohr mag/cell

     iteration # 49     ecut=    50.00 Ry     beta= 0.10
     Davidson diagonalization with overlap
     ethr =  1.75E-06,  avg # of iterations =  1.5

     negative rho (up, down):  4.828E-03 4.883E-03
 
     Adding external electric field

     Computed dipole along edir(3) : 
        Dipole               -0.7935 Ry au,         -2.0168 Debye
        Dipole field         -0.0005 Ry au, 
 
        Potential amp.        0.0533 Ry
        Total length         54.2615 bohr
 
 
     Adding external electric field

     Computed dipole along edir(3) : 
        Dipole               -0.7935 Ry au,         -2.0168 Debye
        Dipole field         -0.0005 Ry au, 
 
        Potential amp.        0.0533 Ry
        Total length         54.2615 bohr
 

     total cpu time spent up to now is      721.1 secs

     total energy              =   -7397.97595755 Ry
     estimated scf accuracy    <       0.01925215 Ry

     total magnetization       =    80.63 Bohr mag/cell
     absolute magnetization    =    82.06 Bohr mag/cell

     iteration # 50     ecut=    50.00 Ry     beta= 0.10
     Davidson diagonalization with overlap
     ethr =  1.75E-06,  avg # of iterations =  1.5

     negative rho (up, down):  4.432E-03 4.519E-03
 
     Adding external electric field

     Computed dipole along edir(3) : 
        Dipole               -0.8019 Ry au,         -2.0382 Debye
        Dipole field         -0.0005 Ry au, 
 
        Potential amp.        0.0538 Ry
        Total length         54.2615 bohr
 
 
     Adding external electric field

     Computed dipole along edir(3) : 
        Dipole               -0.8019 Ry au,         -2.0382 Debye
        Dipole field         -0.0005 Ry au, 
 
        Potential amp.        0.0538 Ry
        Total length         54.2615 bohr
 

     total cpu time spent up to now is      733.8 secs

     total energy              =   -7397.97621530 Ry
     estimated scf accuracy    <       0.01872936 Ry

     total magnetization       =    80.59 Bohr mag/cell
     absolute magnetization    =    82.04 Bohr mag/cell

     iteration # 51     ecut=    50.00 Ry     beta= 0.10
     Davidson diagonalization with overlap
     ethr =  1.74E-06,  avg # of iterations =  1.0

     negative rho (up, down):  3.574E-03 3.501E-03
 
     Adding external electric field

     Computed dipole along edir(3) : 
        Dipole               -0.7826 Ry au,         -1.9891 Debye
        Dipole field         -0.0005 Ry au, 
 
        Potential amp.        0.0525 Ry
        Total length         54.2615 bohr
 
 
     Adding external electric field

     Computed dipole along edir(3) : 
        Dipole               -0.7826 Ry au,         -1.9891 Debye
        Dipole field         -0.0005 Ry au, 
 
        Potential amp.        0.0525 Ry
        Total length         54.2615 bohr
 

     total cpu time spent up to now is      745.5 secs

     total energy              =   -7397.97640744 Ry
     estimated scf accuracy    <       0.01852996 Ry

     total magnetization       =    80.59 Bohr mag/cell
     absolute magnetization    =    82.05 Bohr mag/cell

     iteration # 52     ecut=    50.00 Ry     beta= 0.10
     Davidson diagonalization with overlap
     ethr =  1.72E-06,  avg # of iterations =  1.5

     negative rho (up, down):  4.414E-03 4.384E-03
 
     Adding external electric field

     Computed dipole along edir(3) : 
        Dipole               -0.7679 Ry au,         -1.9519 Debye
        Dipole field         -0.0005 Ry au, 
 
        Potential amp.        0.0515 Ry
        Total length         54.2615 bohr
 
 
     Adding external electric field

     Computed dipole along edir(3) : 
        Dipole               -0.7679 Ry au,         -1.9519 Debye
        Dipole field         -0.0005 Ry au, 
 
        Potential amp.        0.0515 Ry
        Total length         54.2615 bohr
 

     total cpu time spent up to now is      758.1 secs

     total energy              =   -7397.97603115 Ry
     estimated scf accuracy    <       0.01961197 Ry

     total magnetization       =    80.57 Bohr mag/cell
     absolute magnetization    =    82.08 Bohr mag/cell

     iteration # 53     ecut=    50.00 Ry     beta= 0.10
     Davidson diagonalization with overlap
     ethr =  1.72E-06,  avg # of iterations =  2.0

     negative rho (up, down):  5.254E-03 5.305E-03
 
     Adding external electric field

     Computed dipole along edir(3) : 
        Dipole               -0.7808 Ry au,         -1.9845 Debye
        Dipole field         -0.0005 Ry au, 
 
        Potential amp.        0.0524 Ry
        Total length         54.2615 bohr
 
 
     Adding external electric field

     Computed dipole along edir(3) : 
        Dipole               -0.7808 Ry au,         -1.9845 Debye
        Dipole field         -0.0005 Ry au, 
 
        Potential amp.        0.0524 Ry
        Total length         54.2615 bohr
 

     total cpu time spent up to now is      771.0 secs

     total energy              =   -7397.97591498 Ry
     estimated scf accuracy    <       0.01990311 Ry

     total magnetization       =    80.55 Bohr mag/cell
     absolute magnetization    =    82.08 Bohr mag/cell

     iteration # 54     ecut=    50.00 Ry     beta= 0.10
     Davidson diagonalization with overlap
     ethr =  1.72E-06,  avg # of iterations =  1.5

     negative rho (up, down):  6.907E-03 6.765E-03
 
     Adding external electric field

     Computed dipole along edir(3) : 
        Dipole               -0.7216 Ry au,         -1.8340 Debye
        Dipole field         -0.0004 Ry au, 
 
        Potential amp.        0.0484 Ry
        Total length         54.2615 bohr
 
 
     Adding external electric field

     Computed dipole along edir(3) : 
        Dipole               -0.7216 Ry au,         -1.8340 Debye
        Dipole field         -0.0004 Ry au, 
 
        Potential amp.        0.0484 Ry
        Total length         54.2615 bohr
 

     total cpu time spent up to now is      783.2 secs

     total energy              =   -7397.97473999 Ry
     estimated scf accuracy    <       0.01934500 Ry

     total magnetization       =    80.56 Bohr mag/cell
     absolute magnetization    =    82.10 Bohr mag/cell

     iteration # 55     ecut=    50.00 Ry     beta= 0.10
     Davidson diagonalization with overlap
     ethr =  1.72E-06,  avg # of iterations =  2.0

     negative rho (up, down):  4.546E-03 4.401E-03
 
     Adding external electric field

     Computed dipole along edir(3) : 
        Dipole               -0.6890 Ry au,         -1.7512 Debye
        Dipole field         -0.0004 Ry au, 
 
        Potential amp.        0.0462 Ry
        Total length         54.2615 bohr
 
 
     Adding external electric field

     Computed dipole along edir(3) : 
        Dipole               -0.6890 Ry au,         -1.7512 Debye
        Dipole field         -0.0004 Ry au, 
 
        Potential amp.        0.0462 Ry
        Total length         54.2615 bohr
 

     total cpu time spent up to now is      797.4 secs

     total energy              =   -7397.97541540 Ry
     estimated scf accuracy    <       0.01659266 Ry

     total magnetization       =    80.58 Bohr mag/cell
     absolute magnetization    =    82.02 Bohr mag/cell

     iteration # 56     ecut=    50.00 Ry     beta= 0.10
     Davidson diagonalization with overlap
     ethr =  1.54E-06,  avg # of iterations =  2.0

     negative rho (up, down):  7.054E-03 6.823E-03
 
     Adding external electric field

     Computed dipole along edir(3) : 
        Dipole               -0.7431 Ry au,         -1.8888 Debye
        Dipole field         -0.0005 Ry au, 
 
        Potential amp.        0.0499 Ry
        Total length         54.2615 bohr
 
 
     Adding external electric field

     Computed dipole along edir(3) : 
        Dipole               -0.7431 Ry au,         -1.8888 Debye
        Dipole field         -0.0005 Ry au, 
 
        Potential amp.        0.0499 Ry
        Total length         54.2615 bohr
 

     total cpu time spent up to now is      811.2 secs

     total energy              =   -7397.97475212 Ry
     estimated scf accuracy    <       0.01790068 Ry

     total magnetization       =    80.61 Bohr mag/cell
     absolute magnetization    =    82.04 Bohr mag/cell

     iteration # 57     ecut=    50.00 Ry     beta= 0.10
     Davidson diagonalization with overlap
     ethr =  1.54E-06,  avg # of iterations =  2.0

     negative rho (up, down):  6.127E-03 5.763E-03
 
     Adding external electric field

     Computed dipole along edir(3) : 
        Dipole               -0.6798 Ry au,         -1.7279 Debye
        Dipole field         -0.0004 Ry au, 
 
        Potential amp.        0.0456 Ry
        Total length         54.2615 bohr
 
 
     Adding external electric field

     Computed dipole along edir(3) : 
        Dipole               -0.6798 Ry au,         -1.7279 Debye
        Dipole field         -0.0004 Ry au, 
 
        Potential amp.        0.0456 Ry
        Total length         54.2615 bohr
 

     total cpu time spent up to now is      824.5 secs

     total energy              =   -7397.97460478 Ry
     estimated scf accuracy    <       0.01637375 Ry

     total magnetization       =    80.57 Bohr mag/cell
     absolute magnetization    =    82.00 Bohr mag/cell

     iteration # 58     ecut=    50.00 Ry     beta= 0.10
     Davidson diagonalization with overlap
     ethr =  1.52E-06,  avg # of iterations =  2.0

     negative rho (up, down):  6.993E-03 7.132E-03
 
     Adding external electric field

     Computed dipole along edir(3) : 
[...]
     atom   99 type  4   force =    -0.06724453   -0.00067930   -0.00575696
     atom  100 type  4   force =    -0.00031524    0.00282200    0.00286297
     atom  101 type  4   force =    -0.00133357    0.00009508    0.00142897
     atom  102 type  4   force =    -0.00678526    0.00562899    0.00158809
     atom  103 type  4   force =    -0.03980925    0.13537455   -0.00470791
     atom  104 type  4   force =    -0.00546604   -0.01020815    0.00525790
     atom  105 type  2   force =     0.00003641    0.00025654   -0.00009708
     atom  106 type  1   force =     0.00000056   -0.00039105   -0.00006624
     atom  107 type  1   force =    -0.00045869   -0.00066667   -0.00023169
     atom  108 type  1   force =    -0.00029403   -0.00056945    0.00014155
     atom  109 type  1   force =     0.00014243   -0.00024742   -0.00036612
     atom  110 type  1   force =    -0.00018227   -0.00014599    0.00023694
     atom  111 type  1   force =     0.00000039    0.00024762    0.00004543
     atom  112 type  1   force =     0.00006662   -0.00045271    0.00011064
     atom  113 type  1   force =    -0.00032356   -0.00050262   -0.00081076
     atom  114 type  1   force =     0.00058143   -0.00064973    0.00059823
     atom  115 type  1   force =     0.00019125    0.00013534    0.00007567
     atom  116 type  1   force =     0.00015501   -0.00004278   -0.00030106
     atom  117 type  3   force =     0.00041517    0.00038361   -0.00064082
     atom  118 type  3   force =    -0.00041906   -0.00023749   -0.00019119
     atom  119 type  3   force =    -0.00007338    0.00002786    0.00039330
     atom  120 type  3   force =     0.00049978   -0.00003991    0.00014662
     atom  121 type  4   force =     0.00002590   -0.00012590    0.00018752
     atom  122 type  4   force =    -0.00009986    0.00004877   -0.00020426
     atom  123 type  4   force =     0.00022338    0.00006634    0.00015209
     atom  124 type  4   force =     0.00029362   -0.00038781   -0.00017594
     atom  125 type  4   force =    -0.00018972   -0.00028592    0.00034613
     atom  126 type  4   force =     0.00016324   -0.00039931   -0.00007861
     atom  127 type  4   force =    -0.00003114    0.00018117    0.00031300
     atom  128 type  4   force =    -0.00034509    0.00010240   -0.00046864
     atom  129 type  4   force =    -0.00066002    0.00073471   -0.00034768
     atom  130 type  4   force =     0.00019702    0.00019355    0.00016157
     atom  131 type  4   force =     0.00000017   -0.00090202    0.00044438
     atom  132 type  4   force =     0.00002955   -0.00011779   -0.00023855
     atom  133 type  4   force =    -0.00015895   -0.00020117   -0.00020195
     atom  134 type  4   force =     0.00004297   -0.00022595   -0.00003313
     atom  135 type  4   force =    -0.00013767   -0.00034747    0.00001592
     atom  136 type  4   force =    -0.00008456   -0.00010460   -0.00005313
     atom  137 type  3   force =    -0.00054890   -0.00027855   -0.00020712
     atom  138 type  3   force =     0.00013017    0.00002325   -0.00009368
     atom  139 type  3   force =    -0.00003444   -0.00032514   -0.00025746
     atom  140 type  3   force =    -0.00001291   -0.00014142   -0.00044677
     atom  141 type  4   force =     0.00085748    0.00046105    0.00062372
     atom  142 type  4   force =    -0.00021174    0.00012626   -0.00005479
     atom  143 type  4   force =     0.00001963   -0.00025310    0.00011723
     atom  144 type  4   force =     0.00008896    0.00072847   -0.00068926
     atom  145 type  4   force =    -0.00000766   -0.00015198    0.00015784
     atom  146 type  4   force =     0.00014861   -0.00024663    0.00023776
     atom  147 type  4   force =     0.00012372    0.00011295   -0.00019606
     atom  148 type  4   force =    -0.00054272    0.00014887    0.00031021
     atom  149 type  4   force =     0.00042229   -0.00016282   -0.00001988
     atom  150 type  4   force =     0.00019176   -0.00014257   -0.00003218
     atom  151 type  4   force =     0.00002190   -0.00001479   -0.00032863
     atom  152 type  4   force =     0.00029638   -0.00036573    0.00027470
     atom  153 type  4   force =     0.00019156    0.00002125   -0.00006900
     atom  154 type  4   force =    -0.00039993   -0.00042833   -0.00008456
     atom  155 type  4   force =     0.00063543    0.00081023   -0.00000198
     atom  156 type  4   force =    -0.00068267   -0.00000106   -0.00008694
     atom  157 type  4   force =    -0.00030954   -0.00000090   -0.00016900
     atom  158 type  5   force =    -0.00009228    0.00094935    0.00047420

     Total force =     0.004189     Total SCF correction =     0.000265
     Energy error            =      2.9E-05 Ry
     Gradient error          =      9.5E-04 Ry/Bohr

     bfgs converged in  21 scf cycles and  20 bfgs steps
     (criteria: energy <  1.0E-04 Ry, force <  1.0E-03 Ry/Bohr)

     End of BFGS Geometry Optimization

     Final energy             =   -7398.0361807804 Ry

     File ./tmp/pwscf.bfgs deleted, as requested
Begin final coordinates

ATOMIC_POSITIONS (angstrom)
Mn               2.2524368768        7.8410485731        1.0944930079    0   0   0
Ni               4.6534647676        7.2372933759        4.1358828713    0   0   0
Ni               0.0619603813        2.7507417195        1.1624492917    0   0   0
Ni               2.4219525798        2.2066470848        4.1670761125    0   0   0
Ni               9.3547912696       10.0189430711        2.6741067324    0   0   0
Ni               2.3579554440        4.9928972857        2.6501243588    0   0   0
Ni               6.9796879716        7.8094759467        1.1443701289    0   0   0
Ni               9.3096730862        7.2486592073        4.1284351004    0   0   0
Ni               4.7877892837        2.7388876079        1.1725773000    0   0   0
Ni               7.1245715506        2.1723741671        4.1694399165    0   0   0
Ni               4.7058610954       10.0111896155        2.6886960440    0   0   0
Ni               7.0530582306        4.9810850236        2.6650220320    0   0   0
P                1.9603854589        9.1147683914        4.0698380325    0   0   0
P                4.3608513788        5.9567469616        1.1939050591    0   0   0
P                2.7263470654        0.9622942144        1.2140079036    0   0   0
P                0.3711210654        4.0167855221        4.1202335978    0   0   0
O                1.2123972175        8.4423962275        2.8199377132    0   0   0
O                3.6291095674        6.6079529628        2.4699859713    0   0   0
O                3.4680363025        1.6061908509        2.4915522427    0   0   0
O                1.1093829690        3.3560280086        2.8459161781    0   0   0
O                1.3596349964        8.2903015831        5.2336828554    0   0   0
O                3.7923299398        6.7866788753        0.0163844299    0   0   0
O                3.3003412998        1.7802036414        0.0334799257    0   0   0
O                0.9531584297        3.1944778255        5.2983072187    0   0   0
O                0.9136186619        5.4788170066        4.0819089326    0   0   0
O                3.2629172638        9.6616373640        1.1898645376    0   0   0
O                3.5446225228        3.9575161178        4.0360174891    0   0   0
O                1.1879123926        1.0003050009        1.3045328856    0   0   0
O                1.1354873087        6.0172885221        1.2765753734    0   0   0
O                3.7965946052        4.5047793739        1.2182459258    0   0   0
O                1.4392974591        0.4186119975        4.0963933990    0   0   0
O                3.4959570534        9.0216820656        3.9870432133    0   0   0
P                6.6688818178        9.0818697660        4.0960414028    0   0   0
P                9.0062189322        5.9603600909        1.1829425170    0   0   0
P                7.4256001189        0.9086202570        1.2103239064    0   0   0
P                5.0827169838        3.9992509557        4.1313794687    0   0   0
O                5.9261601580        8.4217167502        2.8223938553    0   0   0
O                8.2821359139        6.6345837355        2.4588881476    0   0   0
O                8.1641303211        1.5714890624        2.4854417826    0   0   0
O                5.8185662143        3.3332742464        2.8578411459    0   0   0
O                6.0955409502        8.2542035613        5.2750312498    0   0   0
O                8.4431397248        6.8043561646        0.0100000000    0   0   0
O                8.0075057281        1.7308700581        0.0332247514    0   0   0
O                5.6616365268        3.1647127013        5.3018609112    0   0   0
O                5.6428606763        5.4543254211        4.1016661790    0   0   0
O                7.9606510584        9.6050043719        1.1943929801    0   0   0
O                8.2411397074        3.9394448823        4.0330602016    0   0   0
O                5.8887324813        0.9691066170        1.3088433286    0   0   0
O                5.8962744512        6.0206445220        1.2856208262    0   0   0
O                8.4527730620        4.5056460963        1.2143080338    0   0   0
O                6.1330998669        0.3849570199        4.1181705140    0   0   0
O                8.2056512655        9.0225139588        3.9944100718    0   0   0
Mn               2.2524368768        7.7240452976        6.9007574686    0   0   0
Ni               4.6534647676        7.1202901005        9.9421473320    0   0   0
Ni               0.0619603813        2.6337384440        6.9687137523    0   0   0
Ni               2.4219525798        2.0896438093        9.9733405731    0   0   0
Ni               9.3547912696        9.9019397956        8.4803711930    0   0   0
Ni               2.3579554440        4.8758940102        8.4563888194    0   0   0
Ni               6.9796879716        7.6924726712        6.9506345895    0   0   0
Ni               9.3096730862        7.1316559318        9.9346995611    0   0   0
Ni               4.7877892837        2.6218843324        6.9788417607    0   0   0
Ni               7.1245715506        2.0553708916        9.9757043771    0   0   0
Ni               4.7058610954        9.8941863400        8.4949605046    0   0   0
Ni               7.0530582306        4.8640817481        8.4712864926    0   0   0
P                1.9603854589        8.9977651159        9.8761024931    0   0   0
P                4.3608513788        5.8397436861        7.0001695197    0   0   0
P                2.7263470654        0.8452909389        7.0202723643    0   0   0
P                0.3711210654        3.8997822466        9.9264980585    0   0   0
O                1.2123972175        8.3253929520        8.6262021738    0   0   0
O                3.6291095674        6.4909496873        8.2762504319    0   0   0
O                3.4680363025        1.4891875754        8.2978167034    0   0   0
O                1.1093829690        3.2390247331        8.6521806387    0   0   0
O                1.3596349964        8.1732983076       11.0399473161    0   0   0
O                3.7923299398        6.6696755998        5.8226488906    0   0   0
O                3.3003412998        1.6632003659        5.8397443863    0   0   0
O                0.9531584297        3.0774745500       11.1045716794    0   0   0
O                0.9136186619        5.3618137311        9.8881733933    0   0   0
O                3.2629172638        9.5446340885        6.9961289982    0   0   0
O                3.5446225228        3.8405128423        9.8422819497    0   0   0
O                1.1879123926        0.8833017255        7.1107973462    0   0   0
O                1.1354873087        5.9002852466        7.0828398340    0   0   0
O                3.7965946052        4.3877760984        7.0245103864    0   0   0
O                1.4392974591        0.3016087220        9.9026578597    0   0   0
O                3.4959570534        8.9046787901        9.7933076739    0   0   0
P                6.6688818178        8.9648664905        9.9023058635    0   0   0
P                9.0062189322        5.8433568154        6.9892069777    0   0   0
P                7.4256001189        0.7916169815        7.0165883671    0   0   0
P                5.0827169838        3.8822476802        9.9376439293    0   0   0
O                5.9261601580        8.3047134747        8.6286583160    0   0   0
O                8.2821359139        6.5175804600        8.2651526082    0   0   0
O                8.1641303211        1.4544857869        8.2917062433    0   0   0
O                5.8185662143        3.2162709709        8.6641056065    0   0   0
O                6.0955409502        8.1372002858       11.0812957104    0   0   0
O                8.4431397248        6.6873528892        5.8162644607    0   0   0
O                8.0075057281        1.6138667826        5.8394892121    0   0   0
O                5.6616365268        3.0477094258       11.1081253719    0   0   0
O                5.6428606763        5.3373221456        9.9079306396    0   0   0
O                7.9606510584        9.4880010964        7.0006574408    0   0   0
O                8.2411397074        3.8224416068        9.8393246623    0   0   0
O                5.8887324813        0.8521033415        7.1151077892    0   0   0
O                5.8962744512        5.9036412465        7.0918852869    0   0   0
O                8.4527730620        4.3886428208        7.0205724944    0   0   0
O                6.1330998669        0.2679537444        9.9244349747    0   0   0
O                8.2056512655        8.9055106833        9.8006745325    0   0   0
Mn               2.2014318266        7.5904247262       12.7859377605
Ni               4.7300023361        6.9603489617       15.6917107736
Ni               0.0803701422        2.5080550906       12.8370833957
Ni               2.3649092830        1.9746529181       15.7006038189
Ni               9.3963561232        9.8021179367       14.4116671955
Ni               2.3441341556        4.7404303099       14.3266892210
Ni               6.9555264887        7.5417599327       12.8156969837
Ni               9.3966931947        7.0065006175       15.7192473020
Ni               4.7863307512        2.4999355698       12.8279417841
Ni               7.1349581854        1.8755687348       15.9674169487
Ni               4.7397219683        9.7664021830       14.3584285526
Ni               7.0187309295        4.7115249951       14.3609342968
P                2.0329214743        8.7618113862       15.9116276403
P                4.3322302440        5.6948972616       12.8285813225
P                2.7371205252        0.6970654017       12.8589989043
P                0.3752257651        3.7596017996       15.8512235019
O                1.2827310747        8.1811933874       14.5595344777
O                3.6078179133        6.3480547311       14.1085789583
O                3.4810851264        1.3387504704       14.1291628810
O                1.0841776789        3.1531029391       14.4935394342
O                1.4444573945        7.8616321657       16.9856203410
O                3.7669870991        6.5416093974       11.6582323362
O                3.3095041637        1.4931373190       11.6658980381
O                0.9779313416        2.8757839056       16.9446116240
O                0.9151063500        5.2293265759       15.8127400908
O                3.2732136565        9.3054575272       12.8939377936
O                3.4988064907        3.6729850957       15.6865220544
O                1.2035036496        0.7509390988       12.9840283613
O                1.1403904368        5.7978860343       12.9384537693
O                3.7549673719        4.2487409098       12.8418691852
O                1.5311941780        0.1718801349       15.8700939557
O                3.5723346791        8.6886944683       15.7371776996
P                6.6979380952        8.7128733830       15.8538485451
P                8.9653602994        5.7130515760       12.8339819625
P                7.4266165348        0.6779365732       12.8790921293
P                5.0505062017        3.6845615924       15.8042431674
O                5.9561606288        8.1336265275       14.4816659125
O                8.2615348357        6.3782221378       14.1157211184
O                8.1423871942        1.3640188228       14.1466484777
O                5.7765407865        3.1179458928       14.4672330992
O                6.1486481846        7.7790824390       16.9214441094
O                8.4106953994        6.5423900918       11.6484475856
O                8.0023430917        1.4876587925       11.6858945615
O                5.5875734412        2.7762833016       16.9052057946
O                5.5769817814        5.1644780687       15.8208224087
O                7.9867290839        9.3003963598       12.9168882998
O                8.1995927737        3.7170539942       15.7541739128
O                5.8876382827        0.7241740238       12.9566912544
O                5.8666339208        5.7522768917       12.9366307723
O                8.4306383739        4.2576210893       12.8725149022
O                6.1303988701        0.0937490900       15.8061125342
O                8.2405495954        8.6787815570       15.7026924490
O                8.2091955546        1.1020016167       17.2158239998
H                9.0079191848        1.6511204597       17.4249807103
End final coordinates



     Writing all to output data dir ./tmp/pwscf.save/
 
     init_run     :      8.60s CPU      9.42s WALL (       1 calls)
     electrons    :   6798.32s CPU   7112.67s WALL (      21 calls)
     update_pot   :      8.87s CPU      9.10s WALL (      20 calls)
     forces       :     84.77s CPU     91.38s WALL (      21 calls)
     force_london :      2.08s CPU      2.08s WALL (      21 calls)

     Called by init_run:
     wfcinit      :      5.04s CPU      5.26s WALL (       1 calls)
     potinit      :      0.61s CPU      0.84s WALL (       1 calls)
     hinit0       :      1.34s CPU      1.45s WALL (       1 calls)

     Called by electrons:
     c_bands      :   5230.64s CPU   5375.27s WALL (     524 calls)
     sum_band     :    939.63s CPU   1022.11s WALL (     524 calls)
     v_of_rho     :    207.50s CPU    212.94s WALL (     533 calls)
     newd         :    286.16s CPU    348.95s WALL (     533 calls)
     mix_rho      :    137.00s CPU    137.93s WALL (     524 calls)
     energy_londo :      1.99s CPU      1.99s WALL (      21 calls)

     Called by c_bands:
     init_us_2    :     19.06s CPU     19.33s WALL (    2140 calls)
     init_us_2:cp :     19.04s CPU     19.32s WALL (    2140 calls)
     regterg      :   5103.12s CPU   5246.42s WALL (    1051 calls)

     Called by *egterg:
     rdiaghg      :   1291.84s CPU   1361.50s WALL (    3487 calls)
     h_psi        :   2114.35s CPU   2154.96s WALL (    3553 calls)
     s_psi        :    434.13s CPU    434.45s WALL (    3553 calls)
     g_psi        :      2.99s CPU      3.02s WALL (    2500 calls)

     Called by h_psi:
     h_psi:calbec :    539.38s CPU    574.24s WALL (    3553 calls)
     vloc_psi     :   1130.12s CPU   1135.35s WALL (    3553 calls)
     add_vuspsi   :    438.96s CPU    439.39s WALL (    3553 calls)

     General routines
     calbec       :    826.27s CPU    880.43s WALL (    4769 calls)
     fft          :    221.87s CPU    228.80s WALL (    9899 calls)
     ffts         :     84.31s CPU     84.56s WALL (   61983 calls)
     fftw         :   1277.63s CPU   1283.23s WALL ( 1758670 calls)
     interpolate  :      8.09s CPU      8.56s WALL (    1066 calls)
 
     Parallel routines
 
     PWSCF        :      1h55m CPU      2h 1m WALL

 
   This run was terminated on:  20:29:10  17Nov2025            

=------------------------------------------------------------------------------=
   JOB DONE.
=------------------------------------------------------------------------------=
