
     Program PWSCF v.7.2 starts on 10Nov2025 at  3:46:32 

     This program is part of the open-source Quantum ESPRESSO suite
     for quantum simulation of materials; please cite
         "P. Giannozzi et al., J. Phys.:Condens. Matter 21 395502 (2009);
         "P. Giannozzi et al., J. Phys.:Condens. Matter 29 465901 (2017);
         "P. Giannozzi et al., J. Chem. Phys. 152 154105 (2020);
          URL http://www.quantum-espresso.org", 
     in publications or presentations arising from this work. More details at
     http://www.quantum-espresso.org/quote

     Parallel version (MPI), running on    64 processors

     MPI processes distributed on     4 nodes
     464652 MiB available memory on the printing compute node when the environment starts
 
     Reading input from ./H2_removed/PW.in

     Current dimensions of program PWSCF are:
     Max number of different atomic species (ntypx) = 10
     Max number of k-points (npk) =  40000
     Max angular momentum in pseudopotentials (lmaxx) =  4
     Presently no symmetry can be used with electric field

     Presently stress not available with electric field and gates

     file Ni.pbe-n-rrkjus_psl.1.0.0.UPF: wavefunction(s)  3D renormalized
     file Mn.pbe-spn-rrkjus_psl.0.3.1.UPF: wavefunction(s)  3D renormalized
     file O.pbe-rrkjus.UPF: wavefunction(s)  2S renormalized
     file H.pbe-rrkjus.UPF: wavefunction(s)  1S renormalized

     gamma-point specific algorithms are used
 
     R & G space division:  proc/nbgrp/npool/nimage =      64
     Subspace diagonalization in iterative solution of the eigenvalue problem:
     one sub-group per band group will be used
     custom distributed-memory algorithm (size of sub-group:  7*  7 procs)

 
     Parallelization info
     --------------------
     sticks:   dense  smooth     PW     G-vecs:    dense   smooth      PW
     Min         207      82     20                60552    15302    1896
     Max         210      84     22                60574    15336    1950
     Sum       13325    5345   1333              3876045   980655  122653
 
     Using Slab Decomposition
 


     bravais-lattice index     =            0
     lattice parameter (alat)  =      17.4067  a.u.
     unit-cell volume          =   20529.8182 (a.u.)^3
     number of atoms/cell      =          158
     number of atomic types    =            5
     number of electrons       =      1093.00
     number of Kohn-Sham states=          656
     kinetic-energy cutoff     =      50.0000  Ry
     charge density cutoff     =     500.0000  Ry
     scf convergence threshold =      1.0E-06
     mixing beta               =       0.1000
     number of iterations used =            8  local-TF  mixing
     energy convergence thresh.=      1.0E-04
     force convergence thresh. =      1.0E-03
     Exchange-correlation=  SLA  PW   PBE  PBE
                           (   1   4   3   4   0   0   0)
     nstep                     =         1000


     celldm(1)=  17.406729  celldm(2)=   0.000000  celldm(3)=   0.000000
     celldm(4)=   0.000000  celldm(5)=   0.000000  celldm(6)=   0.000000

     crystal axes: (cart. coord. in units of alat)
               a(1) = (   1.000000   0.000000   0.000000 )  
               a(2) = (  -0.001404   1.105696   0.000000 )  
               a(3) = (   0.000000   0.000000   3.520448 )  

     reciprocal axes: (cart. coord. in units 2 pi/alat)
               b(1) = (  1.000000  0.001270  0.000000 )  
               b(2) = (  0.000000  0.904408  0.000000 )  
               b(3) = (  0.000000  0.000000  0.284055 )  


     PseudoPot. # 1 for Ni read from file:
     ~/PSEUDO/Ni.pbe-n-rrkjus_psl.1.0.0.UPF
     MD5 check sum: Not computed, couldn't open file
     Pseudo is Ultrasoft + core correction, Zval = 10.0
     Generated using "atomic" code by A. Dal Corso  v.5.1.2
     Using radial grid of 1195 points,  6 beta functions with: 
                l(1) =   0
                l(2) =   0
                l(3) =   1
                l(4) =   1
                l(5) =   2
                l(6) =   2
     Q(r) pseudized with 0 coefficients 


     PseudoPot. # 2 for Mn read from file:
     ~/PSEUDO/Mn.pbe-spn-rrkjus_psl.0.3.1.UPF
     MD5 check sum: Not computed, couldn't open file
     Pseudo is Ultrasoft + core correction, Zval = 15.0
     Generated using &quot;atomic&quot; code by A. Dal Corso  v.6.2.2
     Using radial grid of 1187 points,  6 beta functions with: 
                l(1) =   0
                l(2) =   0
                l(3) =   1
                l(4) =   1
                l(5) =   2
                l(6) =   2
     Q(r) pseudized with 0 coefficients 


     PseudoPot. # 3 for P  read from file:
     ~/PSEUDO/P.pbe-n-rrkjus_psl.1.0.0.UPF
     MD5 check sum: Not computed, couldn't open file
     Pseudo is Ultrasoft + core correction, Zval =  5.0
     Generated using "atomic" code by A. Dal Corso  v.5.1
     Using radial grid of 1147 points,  6 beta functions with: 
                l(1) =   0
                l(2) =   0
                l(3) =   1
                l(4) =   1
                l(5) =   2
                l(6) =   2
     Q(r) pseudized with 0 coefficients 


     PseudoPot. # 4 for O  read from file:
     ~/PSEUDO/O.pbe-rrkjus.UPF
     MD5 check sum: Not computed, couldn't open file
     Pseudo is Ultrasoft, Zval =  6.0
     Generated by new atomic code, or converted to UPF format
     Using radial grid of 1269 points,  4 beta functions with: 
                l(1) =   0
                l(2) =   0
                l(3) =   1
                l(4) =   1
     Q(r) pseudized with 0 coefficients 


     PseudoPot. # 5 for H  read from file:
     ~/PSEUDO/H.pbe-rrkjus.UPF
     MD5 check sum: Not computed, couldn't open file
     Pseudo is Ultrasoft, Zval =  1.0
     Generated by new atomic code, or converted to UPF format
     Using radial grid of 1061 points,  2 beta functions with: 
                l(1) =   0
                l(2) =   0
     Q(r) pseudized with 0 coefficients 


     atomic species   valence    mass     pseudopotential
     Ni               10.00    58.69300     Ni( 1.00)
     Mn               15.00    54.93800     Mn( 1.00)
     P                 5.00    30.97300     P ( 1.00)
     O                 6.00    15.99900     O ( 1.00)
     H                 1.00     1.00790     H ( 1.00)

     Starting magnetic structure 
     atomic species   magnetization
     Ni              1.000
     Mn              1.000
     P               1.000
     O               1.000
     H               0.000

     No symmetry found



   Cartesian axes

     site n.     atom                  positions (alat units)
         1        Ni     tau(   1) = (   0.2421002   0.8609138   0.1302181  )
         2        Mn     tau(   2) = (   0.4924481   0.7886602   0.4655392  )
         3        Ni     tau(   3) = (   0.0052341   0.3031820   0.1284544  )
         4        Ni     tau(   4) = (   0.2570603   0.2374878   0.4617901  )
         5        Ni     tau(   5) = (   0.4976584   1.1048203   0.2964410  )
         6        Ni     tau(   6) = (   0.2495781   0.5440308   0.2953805  )
         7        P      tau(   7) = (   0.2083492   0.9982113   0.4588145  )
         8        P      tau(   8) = (   0.4584476   0.6559264   0.1347090  )
         9        P      tau(   9) = (   0.2889394   0.1031966   0.1319347  )
        10        P      tau(  10) = (   0.0400379   0.4338094   0.4586283  )
        11        O      tau(  11) = (   0.1314218   0.9248062   0.3189972  )
        12        O      tau(  12) = (   0.3797244   0.7272031   0.2742874  )
        13        O      tau(  13) = (   0.3662315   0.1762062   0.2720888  )
        14        O      tau(  14) = (   0.1171240   0.3646150   0.3169340  )
        15        O      tau(  15) = (   0.1510364   0.9068326   0.5881934  )
        16        O      tau(  16) = (   0.3981989   0.7453439   0.0053495  )
        17        O      tau(  17) = (   0.3490561   0.1888693   0.0010856  )
        18        O      tau(  18) = (   0.0982395   0.3475583   0.5894443  )
        19        O      tau(  19) = (   0.0992163   0.5918099   0.4542505  )
        20        O      tau(  20) = (   0.3467441   1.0504690   0.1405000  )
        21        O      tau(  21) = (   0.3739183   0.4303319   0.4477971  )
        22        O      tau(  22) = (   0.1230967   0.1088895   0.1422960  )
        23        O      tau(  23) = (   0.1242901   0.6635968   0.1442928  )
        24        O      tau(  24) = (   0.4011802   0.4971632   0.1376281  )
        25        O      tau(  25) = (   0.1484006   0.0497464   0.4550965  )
        26        O      tau(  26) = (   0.3736100   0.9942556   0.4492158  )
        27        Ni     tau(  27) = (   0.2413539   0.8509941   0.7820408  )
        28        Mn     tau(  28) = (   0.4917018   0.7787406   1.1173619  )
        29        Ni     tau(  29) = (   0.0044877   0.2932623   0.7802771  )
        30        Ni     tau(  30) = (   0.2563139   0.2275682   1.1136128  )
        31        Ni     tau(  31) = (   0.4969120   1.0949007   0.9482637  )
        32        Ni     tau(  32) = (   0.2488318   0.5341111   0.9472032  )
        33        P      tau(  33) = (   0.2076029   0.9882917   1.1106372  )
        34        P      tau(  34) = (   0.4577012   0.6460068   0.7865316  )
        35        P      tau(  35) = (   0.2881931   0.0932770   0.7837574  )
        36        P      tau(  36) = (   0.0392916   0.4238898   1.1104509  )
        37        O      tau(  37) = (   0.1306755   0.9148866   0.9708199  )
        38        O      tau(  38) = (   0.3789780   0.7172835   0.9261101  )
        39        O      tau(  39) = (   0.3654852   0.1662865   0.9239115  )
        40        O      tau(  40) = (   0.1163776   0.3546954   0.9687567  )
        41        O      tau(  41) = (   0.1502901   0.8969129   1.2400160  )
        42        O      tau(  42) = (   0.3974525   0.7354243   0.6571722  )
        43        O      tau(  43) = (   0.3483097   0.1789497   0.6529083  )
        44        O      tau(  44) = (   0.0974932   0.3376387   1.2412670  )
        45        O      tau(  45) = (   0.0984699   0.5818903   1.1060732  )
        46        O      tau(  46) = (   0.3459978   1.0405493   0.7923226  )
        47        O      tau(  47) = (   0.3731719   0.4204123   1.0996198  )
        48        O      tau(  48) = (   0.1223503   0.0989699   0.7941187  )
        49        O      tau(  49) = (   0.1235438   0.6536772   0.7961155  )
        50        O      tau(  50) = (   0.4004339   0.4872435   0.7894508  )
        51        O      tau(  51) = (   0.1476543   0.0398268   1.1069192  )
        52        O      tau(  52) = (   0.3728637   0.9843360   1.1010385  )
        53        Ni     tau(  53) = (   0.2406075   0.8410745   1.4338634  )
        54        Mn     tau(  54) = (   0.4909555   0.7688210   1.7691846  )
        55        Ni     tau(  55) = (   0.0037414   0.2833427   1.4320998  )
        56        Ni     tau(  56) = (   0.2555676   0.2176485   1.7654355  )
        57        Ni     tau(  57) = (   0.4961657   1.0849810   1.6000864  )
        58        Ni     tau(  58) = (   0.2480854   0.5241915   1.5990259  )
        59        P      tau(  59) = (   0.2068565   0.9783721   1.7624599  )
        60        P      tau(  60) = (   0.4569549   0.6360871   1.4383543  )
        61        P      tau(  61) = (   0.2874467   0.0833574   1.4355801  )
        62        P      tau(  62) = (   0.0385452   0.4139702   1.7622736  )
        63        O      tau(  63) = (   0.1299291   0.9049669   1.6226426  )
        64        O      tau(  64) = (   0.3782317   0.7073639   1.5779328  )
        65        O      tau(  65) = (   0.3647389   0.1563669   1.5757342  )
        66        O      tau(  66) = (   0.1156313   0.3447757   1.6205794  )
        67        O      tau(  67) = (   0.1495437   0.8869933   1.8918387  )
        68        O      tau(  68) = (   0.3967062   0.7255047   1.3089949  )
        69        O      tau(  69) = (   0.3475634   0.1690300   1.3047310  )
        70        O      tau(  70) = (   0.0967469   0.3277190   1.8930896  )
        71        O      tau(  71) = (   0.0977236   0.5719706   1.7578958  )
        72        O      tau(  72) = (   0.3452514   1.0306297   1.4441453  )
        73        O      tau(  73) = (   0.3724256   0.4104926   1.7514424  )
        74        O      tau(  74) = (   0.1216040   0.0890503   1.4459413  )
        75        O      tau(  75) = (   0.1227974   0.6437575   1.4479382  )
        76        O      tau(  76) = (   0.3996875   0.4773239   1.4412734  )
        77        O      tau(  77) = (   0.1469079   0.0299071   1.7587419  )
        78        O      tau(  78) = (   0.3721173   0.9744163   1.7528612  )
        79        Ni     tau(  79) = (   0.7421002   0.8609138   0.1302181  )
        80        Mn     tau(  80) = (   0.9924481   0.7886602   0.4655392  )
        81        Ni     tau(  81) = (   0.5052341   0.3031820   0.1284544  )
        82        Ni     tau(  82) = (   0.7570603   0.2374878   0.4617901  )
        83        Ni     tau(  83) = (   0.9976584   1.1048203   0.2964410  )
        84        Ni     tau(  84) = (   0.7495781   0.5440308   0.2953805  )
        85        P      tau(  85) = (   0.7083492   0.9982113   0.4588145  )
        86        P      tau(  86) = (   0.9584476   0.6559264   0.1347090  )
        87        P      tau(  87) = (   0.7889394   0.1031966   0.1319347  )
        88        P      tau(  88) = (   0.5400379   0.4338094   0.4586283  )
        89        O      tau(  89) = (   0.6314218   0.9248062   0.3189972  )
        90        O      tau(  90) = (   0.8797244   0.7272031   0.2742874  )
        91        O      tau(  91) = (   0.8662315   0.1762062   0.2720888  )
        92        O      tau(  92) = (   0.6171240   0.3646150   0.3169340  )
        93        O      tau(  93) = (   0.6510364   0.9068326   0.5881934  )
        94        O      tau(  94) = (   0.8981989   0.7453439   0.0053495  )
        95        O      tau(  95) = (   0.8490561   0.1888693   0.0010856  )
        96        O      tau(  96) = (   0.5982395   0.3475583   0.5894443  )
        97        O      tau(  97) = (   0.5992163   0.5918099   0.4542505  )
        98        O      tau(  98) = (   0.8467441   1.0504690   0.1405000  )
        99        O      tau(  99) = (   0.8739183   0.4303319   0.4477971  )
       100        O      tau( 100) = (   0.6230967   0.1088895   0.1422960  )
       101        O      tau( 101) = (   0.6242901   0.6635968   0.1442928  )
       102        O      tau( 102) = (   0.9011802   0.4971632   0.1376281  )
       103        O      tau( 103) = (   0.6484006   0.0497464   0.4550965  )
       104        O      tau( 104) = (   0.8736100   0.9942556   0.4492158  )
       105        Ni     tau( 105) = (   0.7413539   0.8509941   0.7820408  )
       106        Mn     tau( 106) = (   0.9917018   0.7787406   1.1173619  )
       107        Ni     tau( 107) = (   0.5044877   0.2932623   0.7802771  )
       108        Ni     tau( 108) = (   0.7563139   0.2275682   1.1136128  )
       109        Ni     tau( 109) = (   0.9969120   1.0949007   0.9482637  )
       110        Ni     tau( 110) = (   0.7488318   0.5341111   0.9472032  )
       111        P      tau( 111) = (   0.7076029   0.9882917   1.1106372  )
       112        P      tau( 112) = (   0.9577012   0.6460068   0.7865316  )
       113        P      tau( 113) = (   0.7881931   0.0932770   0.7837574  )
       114        P      tau( 114) = (   0.5392916   0.4238898   1.1104509  )
       115        O      tau( 115) = (   0.6306755   0.9148866   0.9708199  )
       116        O      tau( 116) = (   0.8789780   0.7172835   0.9261101  )
       117        O      tau( 117) = (   0.8654852   0.1662865   0.9239115  )
       118        O      tau( 118) = (   0.6163776   0.3546954   0.9687567  )
       119        O      tau( 119) = (   0.6502901   0.8969129   1.2400160  )
       120        O      tau( 120) = (   0.8974525   0.7354243   0.6571722  )
       121        O      tau( 121) = (   0.8483097   0.1789497   0.6529083  )
       122        O      tau( 122) = (   0.5974932   0.3376387   1.2412670  )
       123        O      tau( 123) = (   0.5984699   0.5818903   1.1060732  )
       124        O      tau( 124) = (   0.8459978   1.0405493   0.7923226  )
       125        O      tau( 125) = (   0.8731719   0.4204123   1.0996198  )
       126        O      tau( 126) = (   0.6223503   0.0989699   0.7941187  )
       127        O      tau( 127) = (   0.6235438   0.6536772   0.7961155  )
       128        O      tau( 128) = (   0.9004339   0.4872435   0.7894508  )
       129        O      tau( 129) = (   0.6476543   0.0398268   1.1069192  )
       130        O      tau( 130) = (   0.8728637   0.9843360   1.1010385  )
       131        Ni     tau( 131) = (   0.7406075   0.8410745   1.4338634  )
       132        Mn     tau( 132) = (   0.9909555   0.7688210   1.7691846  )
       133        Ni     tau( 133) = (   0.5037414   0.2833427   1.4320998  )
       134        Ni     tau( 134) = (   0.7555676   0.2176485   1.7654355  )
       135        Ni     tau( 135) = (   0.9961657   1.0849810   1.6000864  )
       136        Ni     tau( 136) = (   0.7480854   0.5241915   1.5990259  )
       137        P      tau( 137) = (   0.7068565   0.9783721   1.7624599  )
       138        P      tau( 138) = (   0.9569549   0.6360871   1.4383543  )
       139        P      tau( 139) = (   0.7874467   0.0833574   1.4355801  )
       140        P      tau( 140) = (   0.5385452   0.4139702   1.7622736  )
       141        O      tau( 141) = (   0.6299291   0.9049669   1.6226426  )
       142        O      tau( 142) = (   0.8782317   0.7073639   1.5779328  )
       143        O      tau( 143) = (   0.8647389   0.1563669   1.5757342  )
       144        O      tau( 144) = (   0.6156313   0.3447757   1.6205794  )
       145        O      tau( 145) = (   0.6495437   0.8869933   1.8918387  )
       146        O      tau( 146) = (   0.8967062   0.7255047   1.3089949  )
       147        O      tau( 147) = (   0.8475634   0.1690300   1.3047310  )
       148        O      tau( 148) = (   0.5967469   0.3277190   1.8930896  )
       149        O      tau( 149) = (   0.5977236   0.5719706   1.7578958  )
       150        O      tau( 150) = (   0.8452514   1.0306297   1.4441453  )
       151        O      tau( 151) = (   0.8724256   0.4104926   1.7514424  )
       152        O      tau( 152) = (   0.6216040   0.0890503   1.4459413  )
       153        O      tau( 153) = (   0.6227974   0.6437575   1.4479382  )
       154        O      tau( 154) = (   0.8996875   0.4773239   1.4412734  )
       155        O      tau( 155) = (   0.6469079   0.0299071   1.7587419  )
       156        O      tau( 156) = (   0.8721173   0.9744163   1.7528612  )
       157        O      tau( 157) = (   0.8997928   0.1072180   1.8810680  )
       158        H      tau( 158) = (   0.9861341   0.1727653   1.8903139  )

     -------------------------------------------------
     Parameters for Dispersion (Grimme-D2) Correction:
     -------------------------------------------------
       atom      VdW radius       C_6     

        Ni         2.952        374.666
        Mn         2.952        374.666
        P          3.222        271.980
        O          2.536         24.284
        H          1.892          4.857

     number of k points=     1  Gaussian smearing, width (Ry)=  0.0100
                       cart. coord. in units 2pi/alat
        k(    1) = (   0.0000000   0.0000000   0.0000000), wk =   1.0000000

     Dense  grid:  1938023 G-vectors     FFT dimensions: ( 125, 144, 450)

     Smooth grid:   490328 G-vectors     FFT dimensions: (  80,  90, 288)

     Estimated max dynamical RAM per process >     326.29 MB

     Estimated total dynamical RAM >      20.39 GB

     Check: negative core charge=   -0.000001
     Generating pointlists ...
     new r_m :   0.0888 (alat units)  1.5461 (a.u.) for type    1
     new r_m :   0.0909 (alat units)  1.5826 (a.u.) for type    2
     new r_m :   0.0683 (alat units)  1.1890 (a.u.) for type    3
     new r_m :   0.0449 (alat units)  0.7812 (a.u.) for type    4
     new r_m :   0.0449 (alat units)  0.7812 (a.u.) for type    5

     Initial potential from superposition of free atoms

     starting charge    1092.8893, renormalised to    1093.0000

     negative rho (up, down):  1.430E-03 4.525E-04
 
     Adding external electric field

     Computed dipole along edir(3) : 
        Dipole                1.5621 Ry au,          3.9705 Debye
        Dipole field          0.0010 Ry au, 
 
        Potential amp.       -0.1055 Ry
        Total length         55.1515 bohr
 
 
     Adding external electric field

     Computed dipole along edir(3) : 
        Dipole                1.5621 Ry au,          3.9705 Debye
        Dipole field          0.0010 Ry au, 
 
        Potential amp.       -0.1055 Ry
        Total length         55.1515 bohr
 
     Starting wfcs are  815 randomized atomic wfcs

     total cpu time spent up to now is       11.3 secs

     Self-consistent Calculation

     iteration #  1     ecut=    50.00 Ry     beta= 0.10
     Davidson diagonalization with overlap
     ethr =  1.00E-02,  avg # of iterations =  6.0

     negative rho (up, down):  3.428E-01 1.263E-07
 
     Adding external electric field

     Computed dipole along edir(3) : 
        Dipole               -3.5084 Ry au,         -8.9174 Debye
        Dipole field         -0.0021 Ry au, 
 
        Potential amp.        0.2369 Ry
        Total length         55.1515 bohr
 
 
     Adding external electric field

     Computed dipole along edir(3) : 
        Dipole               -3.5084 Ry au,         -8.9174 Debye
        Dipole field         -0.0021 Ry au, 
 
        Potential amp.        0.2369 Ry
        Total length         55.1515 bohr
 

     total cpu time spent up to now is       38.7 secs

     total energy              =   -7518.66085243 Ry
     estimated scf accuracy    <     743.37860395 Ry

     total magnetization       =   219.00 Bohr mag/cell
     absolute magnetization    =   305.50 Bohr mag/cell

     iteration #  2     ecut=    50.00 Ry     beta= 0.10
     Davidson diagonalization with overlap
     ethr =  1.00E-02,  avg # of iterations =  2.0

     negative rho (up, down):  3.230E-01 9.260E-08
 
     Adding external electric field

     Computed dipole along edir(3) : 
        Dipole               -2.4736 Ry au,         -6.2873 Debye
        Dipole field         -0.0015 Ry au, 
 
        Potential amp.        0.1670 Ry
        Total length         55.1515 bohr
 
 
     Adding external electric field

     Computed dipole along edir(3) : 
        Dipole               -2.4736 Ry au,         -6.2873 Debye
        Dipole field         -0.0015 Ry au, 
 
        Potential amp.        0.1670 Ry
        Total length         55.1515 bohr
 

     total cpu time spent up to now is       54.6 secs

     total energy              =   -7602.10607180 Ry
     estimated scf accuracy    <     177.56468123 Ry

     total magnetization       =   157.90 Bohr mag/cell
     absolute magnetization    =   206.92 Bohr mag/cell

     iteration #  3     ecut=    50.00 Ry     beta= 0.10
     Davidson diagonalization with overlap
     ethr =  1.00E-02,  avg # of iterations =  1.5

     negative rho (up, down):  2.851E-01 7.143E-08
 
     Adding external electric field

     Computed dipole along edir(3) : 
        Dipole               -2.1405 Ry au,         -5.4407 Debye
        Dipole field         -0.0013 Ry au, 
 
        Potential amp.        0.1445 Ry
        Total length         55.1515 bohr
 
 
     Adding external electric field

     Computed dipole along edir(3) : 
        Dipole               -2.1405 Ry au,         -5.4407 Debye
        Dipole field         -0.0013 Ry au, 
 
        Potential amp.        0.1445 Ry
        Total length         55.1515 bohr
 

     total cpu time spent up to now is       67.4 secs

     total energy              =   -7632.98286242 Ry
     estimated scf accuracy    <      99.91495178 Ry

     total magnetization       =   134.03 Bohr mag/cell
     absolute magnetization    =   185.47 Bohr mag/cell

     iteration #  4     ecut=    50.00 Ry     beta= 0.10
     Davidson diagonalization with overlap
     ethr =  9.14E-03,  avg # of iterations =  1.5

     negative rho (up, down):  2.160E-01 1.054E-08
 
     Adding external electric field

     Computed dipole along edir(3) : 
        Dipole               -2.0486 Ry au,         -5.2071 Debye
        Dipole field         -0.0013 Ry au, 
 
        Potential amp.        0.1383 Ry
        Total length         55.1515 bohr
 
 
     Adding external electric field

     Computed dipole along edir(3) : 
        Dipole               -2.0486 Ry au,         -5.2071 Debye
        Dipole field         -0.0013 Ry au, 
 
        Potential amp.        0.1383 Ry
        Total length         55.1515 bohr
 

     total cpu time spent up to now is       80.3 secs

     total energy              =   -7666.69263236 Ry
     estimated scf accuracy    <      81.38308961 Ry

     total magnetization       =   117.60 Bohr mag/cell
     absolute magnetization    =   170.60 Bohr mag/cell

     iteration #  5     ecut=    50.00 Ry     beta= 0.10
     Davidson diagonalization with overlap
     ethr =  7.45E-03,  avg # of iterations =  1.0

     negative rho (up, down):  9.069E-03 2.814E-07
 
     Adding external electric field

     Computed dipole along edir(3) : 
        Dipole               -1.6353 Ry au,         -4.1564 Debye
        Dipole field         -0.0010 Ry au, 
 
        Potential amp.        0.1104 Ry
        Total length         55.1515 bohr
 
 
     Adding external electric field

     Computed dipole along edir(3) : 
        Dipole               -1.6353 Ry au,         -4.1564 Debye
        Dipole field         -0.0010 Ry au, 
 
        Potential amp.        0.1104 Ry
        Total length         55.1515 bohr
 

     total cpu time spent up to now is       92.1 secs

     total energy              =   -7726.50697683 Ry
     estimated scf accuracy    <      63.73218815 Ry

     total magnetization       =    97.03 Bohr mag/cell
     absolute magnetization    =   151.74 Bohr mag/cell

     iteration #  6     ecut=    50.00 Ry     beta= 0.10
     Davidson diagonalization with overlap
     ethr =  5.83E-03,  avg # of iterations =  1.0

     negative rho (up, down):  1.907E-04 2.930E-04
 
     Adding external electric field

     Computed dipole along edir(3) : 
        Dipole               -1.2271 Ry au,         -3.1189 Debye
        Dipole field         -0.0008 Ry au, 
 
        Potential amp.        0.0828 Ry
        Total length         55.1515 bohr
 
 
     Adding external electric field

     Computed dipole along edir(3) : 
        Dipole               -1.2271 Ry au,         -3.1189 Debye
        Dipole field         -0.0008 Ry au, 
 
        Potential amp.        0.0828 Ry
        Total length         55.1515 bohr
 

     total cpu time spent up to now is      104.0 secs

     total energy              =   -7736.08500937 Ry
     estimated scf accuracy    <      11.11393654 Ry

     total magnetization       =    91.00 Bohr mag/cell
     absolute magnetization    =   122.13 Bohr mag/cell

     iteration #  7     ecut=    50.00 Ry     beta= 0.10
     Davidson diagonalization with overlap
     ethr =  1.02E-03,  avg # of iterations =  8.5

     negative rho (up, down):  1.766E-04 2.815E-04
 
     Adding external electric field

     Computed dipole along edir(3) : 
        Dipole               -1.2133 Ry au,         -3.0838 Debye
        Dipole field         -0.0007 Ry au, 
 
        Potential amp.        0.0819 Ry
        Total length         55.1515 bohr
 
 
     Adding external electric field

     Computed dipole along edir(3) : 
        Dipole               -1.2133 Ry au,         -3.0838 Debye
        Dipole field         -0.0007 Ry au, 
 
        Potential amp.        0.0819 Ry
        Total length         55.1515 bohr
 

     total cpu time spent up to now is      126.7 secs

     total energy              =   -7738.33120564 Ry
     estimated scf accuracy    <      27.11287131 Ry

     total magnetization       =    69.60 Bohr mag/cell
     absolute magnetization    =    86.85 Bohr mag/cell

     iteration #  8     ecut=    50.00 Ry     beta= 0.10
     Davidson diagonalization with overlap
     ethr =  1.02E-03,  avg # of iterations =  1.0

     negative rho (up, down):  1.223E-04 2.097E-04
 
     Adding external electric field

     Computed dipole along edir(3) : 
        Dipole               -1.1615 Ry au,         -2.9523 Debye
        Dipole field         -0.0007 Ry au, 
 
        Potential amp.        0.0784 Ry
        Total length         55.1515 bohr
 
 
     Adding external electric field

     Computed dipole along edir(3) : 
        Dipole               -1.1615 Ry au,         -2.9523 Debye
        Dipole field         -0.0007 Ry au, 
 
        Potential amp.        0.0784 Ry
        Total length         55.1515 bohr
 

     total cpu time spent up to now is      139.1 secs

     total energy              =   -7738.15438635 Ry
     estimated scf accuracy    <      25.25561368 Ry

     total magnetization       =    70.13 Bohr mag/cell
     absolute magnetization    =    86.93 Bohr mag/cell

     iteration #  9     ecut=    50.00 Ry     beta= 0.10
     Davidson diagonalization with overlap
     ethr =  1.02E-03,  avg # of iterations =  1.0

     negative rho (up, down):  6.456E-04 4.813E-04
 
     Adding external electric field

     Computed dipole along edir(3) : 
        Dipole               -1.1044 Ry au,         -2.8071 Debye
        Dipole field         -0.0007 Ry au, 
 
        Potential amp.        0.0746 Ry
        Total length         55.1515 bohr
 
 
     Adding external electric field

     Computed dipole along edir(3) : 
        Dipole               -1.1044 Ry au,         -2.8071 Debye
        Dipole field         -0.0007 Ry au, 
 
        Potential amp.        0.0746 Ry
        Total length         55.1515 bohr
 

     total cpu time spent up to now is      151.2 secs

     total energy              =   -7737.46743552 Ry
     estimated scf accuracy    <      19.92904908 Ry

     total magnetization       =    71.00 Bohr mag/cell
     absolute magnetization    =    86.87 Bohr mag/cell

     iteration # 10     ecut=    50.00 Ry     beta= 0.10
     Davidson diagonalization with overlap
     ethr =  1.02E-03,  avg # of iterations =  1.0

     negative rho (up, down):  1.030E-03 7.705E-04
 
     Adding external electric field

     Computed dipole along edir(3) : 
        Dipole               -1.1227 Ry au,         -2.8536 Debye
        Dipole field         -0.0007 Ry au, 
 
        Potential amp.        0.0758 Ry
        Total length         55.1515 bohr
 
 
     Adding external electric field

     Computed dipole along edir(3) : 
        Dipole               -1.1227 Ry au,         -2.8536 Debye
        Dipole field         -0.0007 Ry au, 
 
        Potential amp.        0.0758 Ry
        Total length         55.1515 bohr
 

     total cpu time spent up to now is      162.9 secs

     total energy              =   -7737.85220117 Ry
     estimated scf accuracy    <       2.37645157 Ry

     total magnetization       =    85.86 Bohr mag/cell
     absolute magnetization    =    96.66 Bohr mag/cell

     iteration # 11     ecut=    50.00 Ry     beta= 0.10
     Davidson diagonalization with overlap
     ethr =  2.17E-04,  avg # of iterations =  2.0

     negative rho (up, down):  3.051E-04 3.496E-04
 
     Adding external electric field

     Computed dipole along edir(3) : 
        Dipole               -1.1163 Ry au,         -2.8373 Debye
        Dipole field         -0.0007 Ry au, 
 
        Potential amp.        0.0754 Ry
        Total length         55.1515 bohr
 
 
     Adding external electric field

     Computed dipole along edir(3) : 
        Dipole               -1.1163 Ry au,         -2.8373 Debye
        Dipole field         -0.0007 Ry au, 
 
        Potential amp.        0.0754 Ry
        Total length         55.1515 bohr
 

     total cpu time spent up to now is      175.4 secs

     total energy              =   -7737.82484599 Ry
     estimated scf accuracy    <       1.48951004 Ry

     total magnetization       =    88.41 Bohr mag/cell
     absolute magnetization    =    98.12 Bohr mag/cell

     iteration # 12     ecut=    50.00 Ry     beta= 0.10
     Davidson diagonalization with overlap
     ethr =  1.36E-04,  avg # of iterations =  2.5

     negative rho (up, down):  1.305E-04 2.305E-04
 
     Adding external electric field

     Computed dipole along edir(3) : 
        Dipole               -1.1283 Ry au,         -2.8678 Debye
        Dipole field         -0.0007 Ry au, 
 
        Potential amp.        0.0762 Ry
        Total length         55.1515 bohr
 
 
     Adding external electric field

     Computed dipole along edir(3) : 
        Dipole               -1.1283 Ry au,         -2.8678 Debye
        Dipole field         -0.0007 Ry au, 
 
        Potential amp.        0.0762 Ry
        Total length         55.1515 bohr
 

     total cpu time spent up to now is      187.4 secs

     total energy              =   -7737.88954252 Ry
     estimated scf accuracy    <       2.98636889 Ry

     total magnetization       =    82.84 Bohr mag/cell
     absolute magnetization    =    92.71 Bohr mag/cell

     iteration # 13     ecut=    50.00 Ry     beta= 0.10
     Davidson diagonalization with overlap
     ethr =  1.36E-04,  avg # of iterations =  1.5

     negative rho (up, down):  1.960E-04 3.659E-04
 
     Adding external electric field

     Computed dipole along edir(3) : 
        Dipole               -1.1150 Ry au,         -2.8341 Debye
        Dipole field         -0.0007 Ry au, 
 
        Potential amp.        0.0753 Ry
        Total length         55.1515 bohr
 
 
     Adding external electric field

     Computed dipole along edir(3) : 
        Dipole               -1.1150 Ry au,         -2.8341 Debye
        Dipole field         -0.0007 Ry au, 
 
        Potential amp.        0.0753 Ry
        Total length         55.1515 bohr
 

     total cpu time spent up to now is      199.0 secs

     total energy              =   -7737.89325295 Ry
     estimated scf accuracy    <       3.64775097 Ry

     total magnetization       =    81.00 Bohr mag/cell
     absolute magnetization    =    90.54 Bohr mag/cell

     iteration # 14     ecut=    50.00 Ry     beta= 0.10
     Davidson diagonalization with overlap
     ethr =  1.36E-04,  avg # of iterations =  1.5

     negative rho (up, down):  6.042E-04 1.052E-03
 
     Adding external electric field

     Computed dipole along edir(3) : 
        Dipole               -1.0621 Ry au,         -2.6996 Debye
        Dipole field         -0.0007 Ry au, 
 
        Potential amp.        0.0717 Ry
        Total length         55.1515 bohr
 
 
     Adding external electric field

     Computed dipole along edir(3) : 
        Dipole               -1.0621 Ry au,         -2.6996 Debye
        Dipole field         -0.0007 Ry au, 
 
        Potential amp.        0.0717 Ry
        Total length         55.1515 bohr
 

     total cpu time spent up to now is      210.9 secs

     total energy              =   -7737.99247056 Ry
     estimated scf accuracy    <       1.68481739 Ry

     total magnetization       =    83.61 Bohr mag/cell
     absolute magnetization    =    92.00 Bohr mag/cell

     iteration # 15     ecut=    50.00 Ry     beta= 0.10
     Davidson diagonalization with overlap
     ethr =  1.36E-04,  avg # of iterations =  2.0

     negative rho (up, down):  5.469E-04 1.252E-03
 
     Adding external electric field

     Computed dipole along edir(3) : 
        Dipole               -1.0152 Ry au,         -2.5804 Debye
        Dipole field         -0.0006 Ry au, 
 
        Potential amp.        0.0685 Ry
        Total length         55.1515 bohr
 
 
     Adding external electric field

     Computed dipole along edir(3) : 
        Dipole               -1.0152 Ry au,         -2.5804 Debye
        Dipole field         -0.0006 Ry au, 
 
        Potential amp.        0.0685 Ry
        Total length         55.1515 bohr
 

     total cpu time spent up to now is      223.9 secs

     total energy              =   -7738.06385012 Ry
     estimated scf accuracy    <       0.93399933 Ry

     total magnetization       =    89.95 Bohr mag/cell
     absolute magnetization    =    94.80 Bohr mag/cell

     iteration # 16     ecut=    50.00 Ry     beta= 0.10
     Davidson diagonalization with overlap
     ethr =  8.55E-05,  avg # of iterations =  2.0

     negative rho (up, down):  2.593E-04 1.053E-03
 
     Adding external electric field

     Computed dipole along edir(3) : 
        Dipole               -0.9183 Ry au,         -2.3341 Debye
        Dipole field         -0.0006 Ry au, 
 
        Potential amp.        0.0620 Ry
        Total length         55.1515 bohr
 
 
     Adding external electric field

     Computed dipole along edir(3) : 
        Dipole               -0.9183 Ry au,         -2.3341 Debye
        Dipole field         -0.0006 Ry au, 
 
        Potential amp.        0.0620 Ry
        Total length         55.1515 bohr
 

     total cpu time spent up to now is      236.8 secs

     total energy              =   -7738.04158132 Ry
     estimated scf accuracy    <       0.69002980 Ry

     total magnetization       =    89.75 Bohr mag/cell
     absolute magnetization    =    94.28 Bohr mag/cell

     iteration # 17     ecut=    50.00 Ry     beta= 0.10
     Davidson diagonalization with overlap
     ethr =  6.31E-05,  avg # of iterations =  1.5

     negative rho (up, down):  3.684E-07 4.057E-04
 
     Adding external electric field

     Computed dipole along edir(3) : 
        Dipole               -0.7951 Ry au,         -2.0210 Debye
        Dipole field         -0.0005 Ry au, 
 
        Potential amp.        0.0537 Ry
        Total length         55.1515 bohr
 
 
     Adding external electric field

     Computed dipole along edir(3) : 
        Dipole               -0.7951 Ry au,         -2.0210 Debye
        Dipole field         -0.0005 Ry au, 
 
        Potential amp.        0.0537 Ry
        Total length         55.1515 bohr
 

     total cpu time spent up to now is      248.7 secs

     total energy              =   -7738.13708547 Ry
     estimated scf accuracy    <       0.63913683 Ry

     total magnetization       =    89.04 Bohr mag/cell
     absolute magnetization    =    93.08 Bohr mag/cell

     iteration # 18     ecut=    50.00 Ry     beta= 0.10
     Davidson diagonalization with overlap
     ethr =  5.85E-05,  avg # of iterations = 12.0

     negative rho (up, down):  4.667E-07 3.935E-04
 
     Adding external electric field

     Computed dipole along edir(3) : 
        Dipole               -0.8391 Ry au,         -2.1328 Debye
        Dipole field         -0.0005 Ry au, 
 
        Potential amp.        0.0567 Ry
        Total length         55.1515 bohr
 
 
     Adding external electric field

     Computed dipole along edir(3) : 
        Dipole               -0.8391 Ry au,         -2.1328 Debye
        Dipole field         -0.0005 Ry au, 
 
        Potential amp.        0.0567 Ry
        Total length         55.1515 bohr
 

     total cpu time spent up to now is      273.2 secs

     total energy              =   -7738.15012071 Ry
     estimated scf accuracy    <       0.43226973 Ry

     total magnetization       =    88.60 Bohr mag/cell
     absolute magnetization    =    91.20 Bohr mag/cell

     iteration # 19     ecut=    50.00 Ry     beta= 0.10
     Davidson diagonalization with overlap
     ethr =  3.95E-05,  avg # of iterations =  1.0

     negative rho (up, down):  2.240E-06 2.388E-04
 
     Adding external electric field

     Computed dipole along edir(3) : 
        Dipole               -0.7938 Ry au,         -2.0175 Debye
        Dipole field         -0.0005 Ry au, 
 
        Potential amp.        0.0536 Ry
        Total length         55.1515 bohr
 
 
     Adding external electric field

     Computed dipole along edir(3) : 
        Dipole               -0.7938 Ry au,         -2.0175 Debye
        Dipole field         -0.0005 Ry au, 
 
        Potential amp.        0.0536 Ry
        Total length         55.1515 bohr
 

     total cpu time spent up to now is      284.7 secs

     total energy              =   -7738.19049918 Ry
     estimated scf accuracy    <       0.32303141 Ry

     total magnetization       =    88.74 Bohr mag/cell
     absolute magnetization    =    91.36 Bohr mag/cell

     iteration # 20     ecut=    50.00 Ry     beta= 0.10
     Davidson diagonalization with overlap
     ethr =  2.96E-05,  avg # of iterations =  2.0

     negative rho (up, down):  1.348E-04 2.640E-04
 
     Adding external electric field

     Computed dipole along edir(3) : 
        Dipole               -0.6909 Ry au,         -1.7560 Debye
        Dipole field         -0.0004 Ry au, 
 
        Potential amp.        0.0466 Ry
        Total length         55.1515 bohr
 
 
     Adding external electric field

     Computed dipole along edir(3) : 
        Dipole               -0.6909 Ry au,         -1.7560 Debye
        Dipole field         -0.0004 Ry au, 
 
        Potential amp.        0.0466 Ry
        Total length         55.1515 bohr
 

     total cpu time spent up to now is      297.2 secs

     total energy              =   -7738.22447881 Ry
     estimated scf accuracy    <       0.15368768 Ry

     total magnetization       =    87.82 Bohr mag/cell
     absolute magnetization    =    90.12 Bohr mag/cell

     iteration # 21     ecut=    50.00 Ry     beta= 0.10
     Davidson diagonalization with overlap
     ethr =  1.41E-05,  avg # of iterations = 12.0

     negative rho (up, down):  1.356E-04 2.800E-04
 
     Adding external electric field

     Computed dipole along edir(3) : 
        Dipole               -0.6549 Ry au,         -1.6647 Debye
        Dipole field         -0.0004 Ry au, 
 
        Potential amp.        0.0442 Ry
        Total length         55.1515 bohr
 
 
     Adding external electric field

     Computed dipole along edir(3) : 
        Dipole               -0.6549 Ry au,         -1.6647 Debye
        Dipole field         -0.0004 Ry au, 
 
        Potential amp.        0.0442 Ry
        Total length         55.1515 bohr
 

     total cpu time spent up to now is      320.4 secs

     total energy              =   -7738.22687994 Ry
     estimated scf accuracy    <       0.21697539 Ry

     total magnetization       =    87.55 Bohr mag/cell
     absolute magnetization    =    89.37 Bohr mag/cell

     iteration # 22     ecut=    50.00 Ry     beta= 0.10
     Davidson diagonalization with overlap
     ethr =  1.41E-05,  avg # of iterations =  1.5

     negative rho (up, down):  1.028E-04 2.507E-04
 
     Adding external electric field

     Computed dipole along edir(3) : 
        Dipole               -0.6265 Ry au,         -1.5924 Debye
        Dipole field         -0.0004 Ry au, 
 
        Potential amp.        0.0423 Ry
        Total length         55.1515 bohr
 
 
     Adding external electric field

     Computed dipole along edir(3) : 
        Dipole               -0.6265 Ry au,         -1.5924 Debye
        Dipole field         -0.0004 Ry au, 
 
        Potential amp.        0.0423 Ry
        Total length         55.1515 bohr
 

     total cpu time spent up to now is      332.4 secs

     total energy              =   -7738.22819673 Ry
     estimated scf accuracy    <       0.07660749 Ry

     total magnetization       =    88.30 Bohr mag/cell
     absolute magnetization    =    89.95 Bohr mag/cell

     iteration # 23     ecut=    50.00 Ry     beta= 0.10
     Davidson diagonalization with overlap
     ethr =  7.01E-06,  avg # of iterations =  2.0

     negative rho (up, down):  2.484E-05 1.790E-04
 
     Adding external electric field

     Computed dipole along edir(3) : 
        Dipole               -0.6507 Ry au,         -1.6540 Debye
        Dipole field         -0.0004 Ry au, 
 
        Potential amp.        0.0439 Ry
        Total length         55.1515 bohr
 
 
     Adding external electric field

     Computed dipole along edir(3) : 
        Dipole               -0.6507 Ry au,         -1.6540 Debye
        Dipole field         -0.0004 Ry au, 
 
        Potential amp.        0.0439 Ry
        Total length         55.1515 bohr
 

     total cpu time spent up to now is      345.1 secs

     total energy              =   -7738.22382375 Ry
     estimated scf accuracy    <       0.08102805 Ry

     total magnetization       =    88.01 Bohr mag/cell
     absolute magnetization    =    89.58 Bohr mag/cell

     iteration # 24     ecut=    50.00 Ry     beta= 0.10
     Davidson diagonalization with overlap
     ethr =  7.01E-06,  avg # of iterations =  2.0

     negative rho (up, down):  2.416E-05 1.788E-04
 
     Adding external electric field

     Computed dipole along edir(3) : 
        Dipole               -0.6491 Ry au,         -1.6499 Debye
        Dipole field         -0.0004 Ry au, 
 
        Potential amp.        0.0438 Ry
        Total length         55.1515 bohr
 
 
     Adding external electric field

     Computed dipole along edir(3) : 
        Dipole               -0.6491 Ry au,         -1.6499 Debye
        Dipole field         -0.0004 Ry au, 
 
        Potential amp.        0.0438 Ry
        Total length         55.1515 bohr
 

     total cpu time spent up to now is      357.9 secs

     total energy              =   -7738.22411877 Ry
     estimated scf accuracy    <       0.07860569 Ry

     total magnetization       =    88.04 Bohr mag/cell
     absolute magnetization    =    89.72 Bohr mag/cell

     iteration # 25     ecut=    50.00 Ry     beta= 0.10
     Davidson diagonalization with overlap
     ethr =  7.01E-06,  avg # of iterations =  1.0

     negative rho (up, down):  2.540E-06 5.518E-05
 
     Adding external electric field

     Computed dipole along edir(3) : 
        Dipole               -0.6204 Ry au,         -1.5769 Debye
        Dipole field         -0.0004 Ry au, 
 
        Potential amp.        0.0419 Ry
        Total length         55.1515 bohr
 
 
     Adding external electric field

     Computed dipole along edir(3) : 
        Dipole               -0.6204 Ry au,         -1.5769 Debye
        Dipole field         -0.0004 Ry au, 
 
        Potential amp.        0.0419 Ry
        Total length         55.1515 bohr
 

     total cpu time spent up to now is      369.0 secs

     total energy              =   -7738.22650733 Ry
     estimated scf accuracy    <       0.08060030 Ry

     total magnetization       =    88.02 Bohr mag/cell
     absolute magnetization    =    89.71 Bohr mag/cell

     iteration # 26     ecut=    50.00 Ry     beta= 0.10
     Davidson diagonalization with overlap
     ethr =  7.01E-06,  avg # of iterations =  3.0

     negative rho (up, down):  1.033E-06 2.421E-06
 
     Adding external electric field

     Computed dipole along edir(3) : 
        Dipole               -0.6066 Ry au,         -1.5418 Debye
        Dipole field         -0.0004 Ry au, 
 
        Potential amp.        0.0410 Ry
        Total length         55.1515 bohr
 
 
     Adding external electric field

     Computed dipole along edir(3) : 
        Dipole               -0.6066 Ry au,         -1.5418 Debye
        Dipole field         -0.0004 Ry au, 
 
        Potential amp.        0.0410 Ry
        Total length         55.1515 bohr
 

     total cpu time spent up to now is      382.2 secs

     total energy              =   -7738.22755678 Ry
     estimated scf accuracy    <       0.08304219 Ry

     total magnetization       =    88.11 Bohr mag/cell
     absolute magnetization    =    89.76 Bohr mag/cell

     iteration # 27     ecut=    50.00 Ry     beta= 0.10
     Davidson diagonalization with overlap
     ethr =  7.01E-06,  avg # of iterations =  2.0

     negative rho (up, down):  9.798E-06 1.166E-05
 
     Adding external electric field

     Computed dipole along edir(3) : 
        Dipole               -0.5572 Ry au,         -1.4162 Debye
        Dipole field         -0.0003 Ry au, 
 
        Potential amp.        0.0376 Ry
        Total length         55.1515 bohr
 
 
     Adding external electric field

     Computed dipole along edir(3) : 
        Dipole               -0.5572 Ry au,         -1.4162 Debye
        Dipole field         -0.0003 Ry au, 
 
        Potential amp.        0.0376 Ry
        Total length         55.1515 bohr
 

     total cpu time spent up to now is      394.9 secs

     total energy              =   -7738.22677803 Ry
     estimated scf accuracy    <       0.07049383 Ry

     total magnetization       =    88.45 Bohr mag/cell
     absolute magnetization    =    90.11 Bohr mag/cell

     iteration # 28     ecut=    50.00 Ry     beta= 0.10
     Davidson diagonalization with overlap
     c_bands:  2 eigenvalues not converged
     ethr =  6.45E-06,  avg # of iterations = 11.0

     negative rho (up, down):  1.474E-05 1.727E-05
 
     Adding external electric field

     Computed dipole along edir(3) : 
        Dipole               -0.5480 Ry au,         -1.3929 Debye
        Dipole field         -0.0003 Ry au, 
 
        Potential amp.        0.0370 Ry
        Total length         55.1515 bohr
 
 
     Adding external electric field

     Computed dipole along edir(3) : 
        Dipole               -0.5480 Ry au,         -1.3929 Debye
        Dipole field         -0.0003 Ry au, 
 
        Potential amp.        0.0370 Ry
        Total length         55.1515 bohr
 

     total cpu time spent up to now is      412.3 secs

     total energy              =   -7738.22762425 Ry
     estimated scf accuracy    <       0.05313030 Ry

     total magnetization       =    88.42 Bohr mag/cell
     absolute magnetization    =    89.83 Bohr mag/cell

     iteration # 29     ecut=    50.00 Ry     beta= 0.10
     Davidson diagonalization with overlap
     ethr =  4.86E-06,  avg # of iterations =  5.5

     negative rho (up, down):  5.365E-05 6.684E-05
 
     Adding external electric field

     Computed dipole along edir(3) : 
        Dipole               -0.5038 Ry au,         -1.2806 Debye
        Dipole field         -0.0003 Ry au, 
 
        Potential amp.        0.0340 Ry
        Total length         55.1515 bohr
 
 
     Adding external electric field

     Computed dipole along edir(3) : 
        Dipole               -0.5038 Ry au,         -1.2806 Debye
        Dipole field         -0.0003 Ry au, 
 
        Potential amp.        0.0340 Ry
        Total length         55.1515 bohr
 

     total cpu time spent up to now is      426.0 secs

     total energy              =   -7738.22527513 Ry
     estimated scf accuracy    <       0.05013131 Ry

     total magnetization       =    88.47 Bohr mag/cell
     absolute magnetization    =    89.83 Bohr mag/cell

     iteration # 30     ecut=    50.00 Ry     beta= 0.10
     Davidson diagonalization with overlap
     ethr =  4.59E-06,  avg # of iterations =  2.0

     negative rho (up, down):  1.381E-04 1.532E-04
 
     Adding external electric field

     Computed dipole along edir(3) : 
        Dipole               -0.4360 Ry au,         -1.1082 Debye
        Dipole field         -0.0003 Ry au, 
 
        Potential amp.        0.0294 Ry
        Total length         55.1515 bohr
 
 
     Adding external electric field

     Computed dipole along edir(3) : 
        Dipole               -0.4360 Ry au,         -1.1082 Debye
        Dipole field         -0.0003 Ry au, 
 
        Potential amp.        0.0294 Ry
        Total length         55.1515 bohr
 

     total cpu time spent up to now is      438.6 secs

     total energy              =   -7738.22464543 Ry
     estimated scf accuracy    <       0.05101890 Ry

     total magnetization       =    88.55 Bohr mag/cell
     absolute magnetization    =    89.82 Bohr mag/cell

     iteration # 31     ecut=    50.00 Ry     beta= 0.10
     Davidson diagonalization with overlap
     ethr =  4.59E-06,  avg # of iterations =  2.0

     negative rho (up, down):  1.589E-04 1.689E-04
 
     Adding external electric field

     Computed dipole along edir(3) : 
        Dipole               -0.4320 Ry au,         -1.0980 Debye
        Dipole field         -0.0003 Ry au, 
 
        Potential amp.        0.0292 Ry
        Total length         55.1515 bohr
 
 
     Adding external electric field

     Computed dipole along edir(3) : 
        Dipole               -0.4320 Ry au,         -1.0980 Debye
        Dipole field         -0.0003 Ry au, 
 
        Potential amp.        0.0292 Ry
        Total length         55.1515 bohr
 

     total cpu time spent up to now is      451.3 secs

     total energy              =   -7738.22457219 Ry
     estimated scf accuracy    <       0.06011972 Ry

     total magnetization       =    88.60 Bohr mag/cell
     absolute magnetization    =    89.82 Bohr mag/cell

     iteration # 32     ecut=    50.00 Ry     beta= 0.10
     Davidson diagonalization with overlap
     ethr =  4.59E-06,  avg # of iterations =  1.5

     negative rho (up, down):  9.089E-05 8.283E-05
 
     Adding external electric field

     Computed dipole along edir(3) : 
        Dipole               -0.4553 Ry au,         -1.1574 Debye
        Dipole field         -0.0003 Ry au, 
 
        Potential amp.        0.0307 Ry
        Total length         55.1515 bohr
 
 
     Adding external electric field

     Computed dipole along edir(3) : 
        Dipole               -0.4553 Ry au,         -1.1574 Debye
        Dipole field         -0.0003 Ry au, 
 
        Potential amp.        0.0307 Ry
        Total length         55.1515 bohr
 

     total cpu time spent up to now is      463.1 secs

     total energy              =   -7738.22508342 Ry
     estimated scf accuracy    <       0.05027978 Ry

     total magnetization       =    88.63 Bohr mag/cell
     absolute magnetization    =    89.82 Bohr mag/cell

     iteration # 33     ecut=    50.00 Ry     beta= 0.10
     Davidson diagonalization with overlap
     ethr =  4.59E-06,  avg # of iterations =  2.0

     negative rho (up, down):  9.506E-05 8.738E-05
 
     Adding external electric field

     Computed dipole along edir(3) : 
        Dipole               -0.4546 Ry au,         -1.1555 Debye
        Dipole field         -0.0003 Ry au, 
 
        Potential amp.        0.0307 Ry
        Total length         55.1515 bohr
 
 
     Adding external electric field

     Computed dipole along edir(3) : 
        Dipole               -0.4546 Ry au,         -1.1555 Debye
        Dipole field         -0.0003 Ry au, 
 
        Potential amp.        0.0307 Ry
        Total length         55.1515 bohr
 

     total cpu time spent up to now is      475.7 secs

     total energy              =   -7738.22515830 Ry
     estimated scf accuracy    <       0.04068707 Ry

     total magnetization       =    88.62 Bohr mag/cell
     absolute magnetization    =    89.84 Bohr mag/cell

     iteration # 34     ecut=    50.00 Ry     beta= 0.10
     Davidson diagonalization with overlap
     ethr =  3.72E-06,  avg # of iterations =  1.5

     negative rho (up, down):  8.070E-05 4.433E-05
 
     Adding external electric field

     Computed dipole along edir(3) : 
        Dipole               -0.4558 Ry au,         -1.1585 Debye
        Dipole field         -0.0003 Ry au, 
 
        Potential amp.        0.0308 Ry
        Total length         55.1515 bohr
 
 
     Adding external electric field

     Computed dipole along edir(3) : 
        Dipole               -0.4558 Ry au,         -1.1585 Debye
        Dipole field         -0.0003 Ry au, 
 
        Potential amp.        0.0308 Ry
        Total length         55.1515 bohr
 

     total cpu time spent up to now is      487.5 secs

     total energy              =   -7738.22340353 Ry
     estimated scf accuracy    <       0.04175478 Ry

     total magnetization       =    88.66 Bohr mag/cell
     absolute magnetization    =    89.88 Bohr mag/cell

     iteration # 35     ecut=    50.00 Ry     beta= 0.10
     Davidson diagonalization with overlap
     c_bands:  5 eigenvalues not converged
     ethr =  3.72E-06,  avg # of iterations = 11.0

     negative rho (up, down):  9.686E-05 1.029E-04
 
     Adding external electric field

     Computed dipole along edir(3) : 
        Dipole               -0.4857 Ry au,         -1.2346 Debye
        Dipole field         -0.0003 Ry au, 
 
        Potential amp.        0.0328 Ry
        Total length         55.1515 bohr
 
 
     Adding external electric field

     Computed dipole along edir(3) : 
        Dipole               -0.4857 Ry au,         -1.2346 Debye
        Dipole field         -0.0003 Ry au, 
 
        Potential amp.        0.0328 Ry
        Total length         55.1515 bohr
 

     total cpu time spent up to now is      504.9 secs

     total energy              =   -7738.22543156 Ry
     estimated scf accuracy    <       0.03620241 Ry

     total magnetization       =    88.73 Bohr mag/cell
     absolute magnetization    =    89.90 Bohr mag/cell

     iteration # 36     ecut=    50.00 Ry     beta= 0.10
     Davidson diagonalization with overlap
     ethr =  3.31E-06,  avg # of iterations =  8.5

     negative rho (up, down):  1.277E-04 1.500E-04
 
     Adding external electric field

     Computed dipole along edir(3) : 
        Dipole               -0.4627 Ry au,         -1.1761 Debye
        Dipole field         -0.0003 Ry au, 
 
        Potential amp.        0.0312 Ry
        Total length         55.1515 bohr
 
 
     Adding external electric field

     Computed dipole along edir(3) : 
        Dipole               -0.4627 Ry au,         -1.1761 Debye
        Dipole field         -0.0003 Ry au, 
 
        Potential amp.        0.0312 Ry
        Total length         55.1515 bohr
 

     total cpu time spent up to now is      519.6 secs

     total energy              =   -7738.22443305 Ry
     estimated scf accuracy    <       0.04010149 Ry

     total magnetization       =    88.57 Bohr mag/cell
     absolute magnetization    =    89.81 Bohr mag/cell

     iteration # 37     ecut=    50.00 Ry     beta= 0.10
     Davidson diagonalization with overlap
     ethr =  3.31E-06,  avg # of iterations =  1.5

     negative rho (up, down):  1.053E-04 1.164E-04
 
     Adding external electric field

     Computed dipole along edir(3) : 
        Dipole               -0.4740 Ry au,         -1.2048 Debye
        Dipole field         -0.0003 Ry au, 
 
        Potential amp.        0.0320 Ry
        Total length         55.1515 bohr
 
 
     Adding external electric field

     Computed dipole along edir(3) : 
        Dipole               -0.4740 Ry au,         -1.2048 Debye
        Dipole field         -0.0003 Ry au, 
 
        Potential amp.        0.0320 Ry
        Total length         55.1515 bohr
 

     total cpu time spent up to now is      530.8 secs

     total energy              =   -7738.22482001 Ry
     estimated scf accuracy    <       0.03434717 Ry

     total magnetization       =    88.57 Bohr mag/cell
     absolute magnetization    =    89.77 Bohr mag/cell

     iteration # 38     ecut=    50.00 Ry     beta= 0.10
     Davidson diagonalization with overlap
     ethr =  3.14E-06,  avg # of iterations =  1.0

     negative rho (up, down):  3.743E-04 4.541E-04
 
     Adding external electric field

     Computed dipole along edir(3) : 
        Dipole               -0.4308 Ry au,         -1.0951 Debye
        Dipole field         -0.0003 Ry au, 
 
        Potential amp.        0.0291 Ry
        Total length         55.1515 bohr
 
 
     Adding external electric field

     Computed dipole along edir(3) : 
        Dipole               -0.4308 Ry au,         -1.0951 Debye
        Dipole field         -0.0003 Ry au, 
 
        Potential amp.        0.0291 Ry
        Total length         55.1515 bohr
 

     total cpu time spent up to now is      541.8 secs

     total energy              =   -7738.22434592 Ry
     estimated scf accuracy    <       0.03604853 Ry

     total magnetization       =    88.58 Bohr mag/cell
     absolute magnetization    =    89.78 Bohr mag/cell

     iteration # 39     ecut=    50.00 Ry     beta= 0.10
     Davidson diagonalization with overlap
     ethr =  3.14E-06,  avg # of iterations =  2.0

     negative rho (up, down):  1.188E-03 1.383E-03
 
     Adding external electric field

     Computed dipole along edir(3) : 
        Dipole               -0.3876 Ry au,         -0.9852 Debye
        Dipole field         -0.0002 Ry au, 
 
        Potential amp.        0.0262 Ry
        Total length         55.1515 bohr
 
 
     Adding external electric field

     Computed dipole along edir(3) : 
        Dipole               -0.3876 Ry au,         -0.9852 Debye
        Dipole field         -0.0002 Ry au, 
 
        Potential amp.        0.0262 Ry
        Total length         55.1515 bohr
 

     total cpu time spent up to now is      554.4 secs

     total energy              =   -7738.22216578 Ry
     estimated scf accuracy    <       0.03259940 Ry

     total magnetization       =    88.60 Bohr mag/cell
     absolute magnetization    =    89.88 Bohr mag/cell

     iteration # 40     ecut=    50.00 Ry     beta= 0.10
     Davidson diagonalization with overlap
     ethr =  2.98E-06,  avg # of iterations =  2.0

     negative rho (up, down):  4.842E-04 6.355E-04
 
     Adding external electric field

     Computed dipole along edir(3) : 
        Dipole               -0.4415 Ry au,         -1.1221 Debye
        Dipole field         -0.0003 Ry au, 
 
        Potential amp.        0.0298 Ry
        Total length         55.1515 bohr
 
 
     Adding external electric field

     Computed dipole along edir(3) : 
        Dipole               -0.4415 Ry au,         -1.1221 Debye
        Dipole field         -0.0003 Ry au, 
 
        Potential amp.        0.0298 Ry
        Total length         55.1515 bohr
 

     total cpu time spent up to now is      566.8 secs

     total energy              =   -7738.22349691 Ry
     estimated scf accuracy    <       0.02890933 Ry

     total magnetization       =    88.63 Bohr mag/cell
     absolute magnetization    =    89.88 Bohr mag/cell

     iteration # 41     ecut=    50.00 Ry     beta= 0.10
     Davidson diagonalization with overlap
     ethr =  2.64E-06,  avg # of iterations =  1.5

     negative rho (up, down):  7.883E-04 1.021E-03
 
     Adding external electric field

     Computed dipole along edir(3) : 
        Dipole               -0.4287 Ry au,         -1.0896 Debye
        Dipole field         -0.0003 Ry au, 
 
        Potential amp.        0.0289 Ry
        Total length         55.1515 bohr
 
 
     Adding external electric field

     Computed dipole along edir(3) : 
        Dipole               -0.4287 Ry au,         -1.0896 Debye
        Dipole field         -0.0003 Ry au, 
 
        Potential amp.        0.0289 Ry
        Total length         55.1515 bohr
 

     total cpu time spent up to now is      578.8 secs

     total energy              =   -7738.22305458 Ry
     estimated scf accuracy    <       0.02514566 Ry

     total magnetization       =    88.58 Bohr mag/cell
     absolute magnetization    =    89.88 Bohr mag/cell

     iteration # 42     ecut=    50.00 Ry     beta= 0.10
     Davidson diagonalization with overlap
     ethr =  2.30E-06,  avg # of iterations =  2.0

     negative rho (up, down):  5.592E-04 7.177E-04
 
     Adding external electric field

     Computed dipole along edir(3) : 
        Dipole               -0.4361 Ry au,         -1.1086 Debye
        Dipole field         -0.0003 Ry au, 
 
        Potential amp.        0.0294 Ry
        Total length         55.1515 bohr
 
 
     Adding external electric field

     Computed dipole along edir(3) : 
        Dipole               -0.4361 Ry au,         -1.1086 Debye
        Dipole field         -0.0003 Ry au, 
 
        Potential amp.        0.0294 Ry
        Total length         55.1515 bohr
 

     total cpu time spent up to now is      591.2 secs

     total energy              =   -7738.22347169 Ry
     estimated scf accuracy    <       0.02546962 Ry

     total magnetization       =    88.58 Bohr mag/cell
     absolute magnetization    =    89.84 Bohr mag/cell

     iteration # 43     ecut=    50.00 Ry     beta= 0.10
     Davidson diagonalization with overlap
     ethr =  2.30E-06,  avg # of iterations =  1.5

     negative rho (up, down):  5.727E-04 5.969E-04
 
     Adding external electric field

     Computed dipole along edir(3) : 
        Dipole               -0.4150 Ry au,         -1.0548 Debye
        Dipole field         -0.0003 Ry au, 
 
        Potential amp.        0.0280 Ry
        Total length         55.1515 bohr
 
 
     Adding external electric field

     Computed dipole along edir(3) : 
        Dipole               -0.4150 Ry au,         -1.0548 Debye
        Dipole field         -0.0003 Ry au, 
 
        Potential amp.        0.0280 Ry
        Total length         55.1515 bohr
 

     total cpu time spent up to now is      603.1 secs

     total energy              =   -7738.22399756 Ry
     estimated scf accuracy    <       0.02406149 Ry

     total magnetization       =    88.60 Bohr mag/cell
     absolute magnetization    =    89.87 Bohr mag/cell

     iteration # 44     ecut=    50.00 Ry     beta= 0.10
     Davidson diagonalization with overlap
     ethr =  2.20E-06,  avg # of iterations =  2.5

     negative rho (up, down):  9.807E-04 1.024E-03
 
     Adding external electric field

     Computed dipole along edir(3) : 
        Dipole               -0.3805 Ry au,         -0.9673 Debye
        Dipole field         -0.0002 Ry au, 
 
        Potential amp.        0.0257 Ry
        Total length         55.1515 bohr
 
 
     Adding external electric field

     Computed dipole along edir(3) : 
        Dipole               -0.3805 Ry au,         -0.9673 Debye
        Dipole field         -0.0002 Ry au, 
 
        Potential amp.        0.0257 Ry
        Total length         55.1515 bohr
 

     total cpu time spent up to now is      616.1 secs

     total energy              =   -7738.22440860 Ry
     estimated scf accuracy    <       0.02010102 Ry

     total magnetization       =    88.68 Bohr mag/cell
     absolute magnetization    =    89.95 Bohr mag/cell

     iteration # 45     ecut=    50.00 Ry     beta= 0.10
     Davidson diagonalization with overlap
     c_bands:  1 eigenvalues not converged
     ethr =  1.84E-06,  avg # of iterations = 11.0

     negative rho (up, down):  9.647E-04 9.639E-04
 
     Adding external electric field

     Computed dipole along edir(3) : 
        Dipole               -0.3715 Ry au,         -0.9444 Debye
        Dipole field         -0.0002 Ry au, 
 
        Potential amp.        0.0251 Ry
        Total length         55.1515 bohr
 
 
     Adding external electric field

     Computed dipole along edir(3) : 
        Dipole               -0.3715 Ry au,         -0.9444 Debye
        Dipole field         -0.0002 Ry au, 
 
        Potential amp.        0.0251 Ry
        Total length         55.1515 bohr
 

     total cpu time spent up to now is      632.8 secs

     total energy              =   -7738.22461862 Ry
     estimated scf accuracy    <       0.01662073 Ry

     total magnetization       =    88.61 Bohr mag/cell
     absolute magnetization    =    89.96 Bohr mag/cell

     iteration # 46     ecut=    50.00 Ry     beta= 0.10
     Davidson diagonalization with overlap
     ethr =  1.52E-06,  avg # of iterations =  2.0

     negative rho (up, down):  1.053E-03 1.100E-03
 
     Adding external electric field

     Computed dipole along edir(3) : 
        Dipole               -0.3713 Ry au,         -0.9438 Debye
        Dipole field         -0.0002 Ry au, 
 
        Potential amp.        0.0251 Ry
        Total length         55.1515 bohr
 
 
     Adding external electric field

     Computed dipole along edir(3) : 
        Dipole               -0.3713 Ry au,         -0.9438 Debye
        Dipole field         -0.0002 Ry au, 
 
        Potential amp.        0.0251 Ry
        Total length         55.1515 bohr
 

     total cpu time spent up to now is      645.5 secs

     total energy              =   -7738.22468136 Ry
     estimated scf accuracy    <       0.01727890 Ry

     total magnetization       =    88.63 Bohr mag/cell
     absolute magnetization    =    90.00 Bohr mag/cell

     iteration # 47     ecut=    50.00 Ry     beta= 0.10
     Davidson diagonalization with overlap
     ethr =  1.52E-06,  avg # of iterations =  1.0

     negative rho (up, down):  1.079E-03 1.159E-03
 
     Adding external electric field

     Computed dipole along edir(3) : 
        Dipole               -0.3586 Ry au,         -0.9114 Debye
        Dipole field         -0.0002 Ry au, 
 
        Potential amp.        0.0242 Ry
        Total length         55.1515 bohr
 
 
     Adding external electric field

     Computed dipole along edir(3) : 
        Dipole               -0.3586 Ry au,         -0.9114 Debye
        Dipole field         -0.0002 Ry au, 
 
        Potential amp.        0.0242 Ry
        Total length         55.1515 bohr
 

     total cpu time spent up to now is      656.8 secs

     total energy              =   -7738.22464283 Ry
     estimated scf accuracy    <       0.01636482 Ry

     total magnetization       =    88.63 Bohr mag/cell
     absolute magnetization    =    89.99 Bohr mag/cell

     iteration # 48     ecut=    50.00 Ry     beta= 0.10
     Davidson diagonalization with overlap
     ethr =  1.50E-06,  avg # of iterations =  1.5

     negative rho (up, down):  1.234E-03 1.295E-03
 
     Adding external electric field

     Computed dipole along edir(3) : 
        Dipole               -0.3515 Ry au,         -0.8934 Debye
        Dipole field         -0.0002 Ry au, 
 
        Potential amp.        0.0237 Ry
        Total length         55.1515 bohr
 
 
     Adding external electric field

     Computed dipole along edir(3) : 
        Dipole               -0.3515 Ry au,         -0.8934 Debye
        Dipole field         -0.0002 Ry au, 
 
        Potential amp.        0.0237 Ry
        Total length         55.1515 bohr
 

     total cpu time spent up to now is      668.6 secs

     total energy              =   -7738.22449546 Ry
     estimated scf accuracy    <       0.01639505 Ry

     total magnetization       =    88.63 Bohr mag/cell
     absolute magnetization    =    89.98 Bohr mag/cell

     iteration # 49     ecut=    50.00 Ry     beta= 0.10
     Davidson diagonalization with overlap
     ethr =  1.50E-06,  avg # of iterations =  2.0

     negative rho (up, down):  1.393E-03 1.438E-03
 
     Adding external electric field

     Computed dipole along edir(3) : 
        Dipole               -0.3415 Ry au,         -0.8681 Debye
        Dipole field         -0.0002 Ry au, 
 
        Potential amp.        0.0231 Ry
        Total length         55.1515 bohr
 
 
     Adding external electric field

     Computed dipole along edir(3) : 
        Dipole               -0.3415 Ry au,         -0.8681 Debye
        Dipole field         -0.0002 Ry au, 
 
        Potential amp.        0.0231 Ry
        Total length         55.1515 bohr
 

     total cpu time spent up to now is      681.7 secs

     total energy              =   -7738.22434668 Ry
     estimated scf accuracy    <       0.01631934 Ry

     total magnetization       =    88.66 Bohr mag/cell
     absolute magnetization    =    90.02 Bohr mag/cell

     iteration # 50     ecut=    50.00 Ry     beta= 0.10
     Davidson diagonalization with overlap
     ethr =  1.49E-06,  avg # of iterations =  1.0

     negative rho (up, down):  1.415E-03 1.420E-03
 
     Adding external electric field

     Computed dipole along edir(3) : 
        Dipole               -0.3088 Ry au,         -0.7848 Debye
        Dipole field         -0.0002 Ry au, 
 
        Potential amp.        0.0208 Ry
        Total length         55.1515 bohr
 
 
     Adding external electric field

     Computed dipole along edir(3) : 
        Dipole               -0.3088 Ry au,         -0.7848 Debye
        Dipole field         -0.0002 Ry au, 
 
        Potential amp.        0.0208 Ry
        Total length         55.1515 bohr
 

     total cpu time spent up to now is      693.3 secs

     total energy              =   -7738.22395968 Ry
     estimated scf accuracy    <       0.01575149 Ry

     total magnetization       =    88.68 Bohr mag/cell
     absolute magnetization    =    90.05 Bohr mag/cell

     iteration # 51     ecut=    50.00 Ry     beta= 0.10
     Davidson diagonalization with overlap
     ethr =  1.44E-06,  avg # of iterations =  2.0

     negative rho (up, down):  1.823E-03 1.873E-03
 
     Adding external electric field

     Computed dipole along edir(3) : 
        Dipole               -0.2469 Ry au,         -0.6276 Debye
        Dipole field         -0.0002 Ry au, 
 
        Potential amp.        0.0167 Ry
        Total length         55.1515 bohr
 
 
     Adding external electric field

     Computed dipole along edir(3) : 
        Dipole               -0.2469 Ry au,         -0.6276 Debye
        Dipole field         -0.0002 Ry au, 
 
        Potential amp.        0.0167 Ry
        Total length         55.1515 bohr
 

     total cpu time spent up to now is      706.0 secs

     total energy              =   -7738.22361052 Ry
     estimated scf accuracy    <       0.01379055 Ry

     total magnetization       =    88.66 Bohr mag/cell
     absolute magnetization    =    89.99 Bohr mag/cell

     iteration # 52     ecut=    50.00 Ry     beta= 0.10
     Davidson diagonalization with overlap
     ethr =  1.26E-06,  avg # of iterations =  2.0

     negative rho (up, down):  1.772E-03 1.792E-03
 
     Adding external electric field

     Computed dipole along edir(3) : 
        Dipole               -0.2572 Ry au,         -0.6538 Debye
        Dipole field         -0.0002 Ry au, 
 
        Potential amp.        0.0174 Ry
        Total length         55.1515 bohr
 
 
     Adding external electric field

     Computed dipole along edir(3) : 
        Dipole               -0.2572 Ry au,         -0.6538 Debye
        Dipole field         -0.0002 Ry au, 
 
        Potential amp.        0.0174 Ry
        Total length         55.1515 bohr
 

     total cpu time spent up to now is      718.8 secs

     total energy              =   -7738.22373110 Ry
     estimated scf accuracy    <       0.01249551 Ry

     total magnetization       =    88.58 Bohr mag/cell
     absolute magnetization    =    89.88 Bohr mag/cell

     iteration # 53     ecut=    50.00 Ry     beta= 0.10
     Davidson diagonalization with overlap
     ethr =  1.14E-06,  avg # of iterations =  1.5

     negative rho (up, down):  1.764E-03 1.787E-03
 
     Adding external electric field

     Computed dipole along edir(3) : 
        Dipole               -0.2596 Ry au,         -0.6598 Debye
        Dipole field         -0.0002 Ry au, 
 
        Potential amp.        0.0175 Ry
        Total length         55.1515 bohr
 
 
     Adding external electric field

     Computed dipole along edir(3) : 
        Dipole               -0.2596 Ry au,         -0.6598 Debye
        Dipole field         -0.0002 Ry au, 
 
        Potential amp.        0.0175 Ry
        Total length         55.1515 bohr
 

     total cpu time spent up to now is      730.3 secs

     total energy              =   -7738.22370431 Ry
     estimated scf accuracy    <       0.01227123 Ry

     total magnetization       =    88.59 Bohr mag/cell
     absolute magnetization    =    89.90 Bohr mag/cell

     iteration # 54     ecut=    50.00 Ry     beta= 0.10
     Davidson diagonalization with overlap
     ethr =  1.12E-06,  avg # of iterations =  1.5

     negative rho (up, down):  1.568E-03 1.578E-03
 
     Adding external electric field

     Computed dipole along edir(3) : 
        Dipole               -0.2435 Ry au,         -0.6189 Debye
        Dipole field         -0.0001 Ry au, 
 
        Potential amp.        0.0164 Ry
        Total length         55.1515 bohr
 
 
     Adding external electric field

     Computed dipole along edir(3) : 
        Dipole               -0.2435 Ry au,         -0.6189 Debye
        Dipole field         -0.0001 Ry au, 
 
        Potential amp.        0.0164 Ry
        Total length         55.1515 bohr
 

     total cpu time spent up to now is      741.5 secs

     total energy              =   -7738.22381572 Ry
     estimated scf accuracy    <       0.01277069 Ry

     total magnetization       =    88.59 Bohr mag/cell
     absolute magnetization    =    89.89 Bohr mag/cell

     iteration # 55     ecut=    50.00 Ry     beta= 0.10
     Davidson diagonalization with overlap
     ethr =  1.12E-06,  avg # of iterations =  2.0

     negative rho (up, down):  1.571E-03 1.541E-03
 
     Adding external electric field

     Computed dipole along edir(3) : 
        Dipole               -0.2283 Ry au,         -0.5804 Debye
        Dipole field         -0.0001 Ry au, 
 
        Potential amp.        0.0154 Ry
        Total length         55.1515 bohr
 
 
     Adding external electric field

     Computed dipole along edir(3) : 
        Dipole               -0.2283 Ry au,         -0.5804 Debye
        Dipole field         -0.0001 Ry au, 
 
        Potential amp.        0.0154 Ry
        Total length         55.1515 bohr
 

     total cpu time spent up to now is      753.9 secs

     total energy              =   -7738.22379740 Ry
     estimated scf accuracy    <       0.01169917 Ry

     total magnetization       =    88.58 Bohr mag/cell
     absolute magnetization    =    89.90 Bohr mag/cell

     iteration # 56     ecut=    50.00 Ry     beta= 0.10
     Davidson diagonalization with overlap
     ethr =  1.07E-06,  avg # of iterations =  1.5

     negative rho (up, down):  1.470E-03 1.503E-03
 
     Adding external electric field

     Computed dipole along edir(3) : 
        Dipole               -0.2404 Ry au,         -0.6110 Debye
        Dipole field         -0.0001 Ry au, 
 
        Potential amp.        0.0162 Ry
        Total length         55.1515 bohr
 
 
     Adding external electric field

     Computed dipole along edir(3) : 
        Dipole               -0.2404 Ry au,         -0.6110 Debye
        Dipole field         -0.0001 Ry au, 
 
        Potential amp.        0.0162 Ry
        Total length         55.1515 bohr
 

     total cpu time spent up to now is      766.0 secs

     total energy              =   -7738.22390201 Ry
     estimated scf accuracy    <       0.01187389 Ry

     total magnetization       =    88.59 Bohr mag/cell
     absolute magnetization    =    89.95 Bohr mag/cell

     iteration # 57     ecut=    50.00 Ry     beta= 0.10
     Davidson diagonalization with overlap
     ethr =  1.07E-06,  avg # of iterations =  2.0

     negative rho (up, down):  1.623E-03 1.624E-03
 
     Adding external electric field

     Computed dipole along edir(3) : 
        Dipole               -0.2308 Ry au,         -0.5866 Debye
        Dipole field         -0.0001 Ry au, 
 
        Potential amp.        0.0156 Ry
        Total length         55.1515 bohr
 
 
     Adding external electric field

     Computed dipole along edir(3) : 
        Dipole               -0.2308 Ry au,         -0.5866 Debye
        Dipole field         -0.0001 Ry au, 
 
        Potential amp.        0.0156 Ry
        Total length         55.1515 bohr
 

     total cpu time spent up to now is      779.3 secs

     total energy              =   -7738.22383490 Ry
     estimated scf accuracy    <       0.01169716 Ry

     total magnetization       =    88.57 Bohr mag/cell
     absolute magnetization    =    89.92 Bohr mag/cell

     iteration # 58     ecut=    50.00 Ry     beta= 0.10
     Davidson diagonalization with overlap
     ethr =  1.07E-06,  avg # of iterations =  2.0

[...]
     atom   99 type  4   force =    -0.01115469   -0.00039598    0.00086702
     atom  100 type  4   force =    -0.03216759    0.00300704    0.00773162
     atom  101 type  4   force =     0.03214774    0.00058554    0.01409333
     atom  102 type  4   force =     0.00681377   -0.03702158    0.00378285
     atom  103 type  4   force =    -0.00305033    0.00167066    0.00392687
     atom  104 type  4   force =     0.01796423   -0.00686634    0.00080527
     atom  105 type  1   force =    -0.00523987   -0.00869508    0.00285352
     atom  106 type  2   force =    -0.01408952   -0.00056383    0.00559921
     atom  107 type  1   force =     0.00298962   -0.00513025   -0.00111857
     atom  108 type  1   force =     0.00382794    0.00347290    0.00173386
     atom  109 type  1   force =     0.00135021   -0.00464322    0.00020574
     atom  110 type  1   force =    -0.00079887    0.00109272   -0.00173484
     atom  111 type  3   force =    -0.00635777   -0.00074073   -0.00038460
     atom  112 type  3   force =    -0.00798062    0.00258295   -0.00024791
     atom  113 type  3   force =     0.00436136   -0.00059409    0.00291576
     atom  114 type  3   force =     0.00093417   -0.00175946   -0.00497786
     atom  115 type  4   force =     0.00833718    0.00489336    0.00726366
     atom  116 type  4   force =     0.00381910   -0.00089509   -0.01927753
     atom  117 type  4   force =    -0.00138980    0.00364616   -0.00995521
     atom  118 type  4   force =    -0.00173546   -0.00243647    0.00915205
     atom  119 type  4   force =    -0.00031394    0.00316915   -0.00610354
     atom  120 type  4   force =    -0.00422078   -0.00462215    0.01808622
     atom  121 type  4   force =     0.00772605    0.00337567    0.00778542
     atom  122 type  4   force =     0.01020456   -0.00491865   -0.00764592
     atom  123 type  4   force =     0.00275539    0.00433504    0.00049342
     atom  124 type  4   force =     0.00221837   -0.00008068   -0.00559589
     atom  125 type  4   force =    -0.01276586   -0.00011169   -0.00357324
     atom  126 type  4   force =    -0.01461231    0.00126734    0.00335243
     atom  127 type  4   force =     0.01352484    0.00246471    0.00455560
     atom  128 type  4   force =    -0.00283601   -0.00489376   -0.00047820
     atom  129 type  4   force =    -0.00503166    0.00146393   -0.00009628
     atom  130 type  4   force =     0.01587822   -0.00427074   -0.00433250
     atom  131 type  1   force =    -0.00018899   -0.00001880   -0.00027087
     atom  132 type  2   force =     0.00024043   -0.00016832   -0.00019676
     atom  133 type  1   force =    -0.00062802    0.00005373   -0.00015363
     atom  134 type  1   force =     0.00038175   -0.00059799    0.00049159
     atom  135 type  1   force =    -0.00011169    0.00076102   -0.00047460
     atom  136 type  1   force =     0.00053755    0.00058927    0.00008413
     atom  137 type  3   force =     0.00018746    0.00040757   -0.00036879
     atom  138 type  3   force =    -0.00031037    0.00036291    0.00027222
     atom  139 type  3   force =     0.00014656   -0.00037639    0.00015165
     atom  140 type  3   force =    -0.00037827   -0.00011222   -0.00028794
     atom  141 type  4   force =     0.00022878   -0.00020095    0.00040239
     atom  142 type  4   force =    -0.00040359    0.00040303    0.00039064
     atom  143 type  4   force =    -0.00033570   -0.00019878    0.00050371
     atom  144 type  4   force =    -0.00017689   -0.00035700    0.00005295
     atom  145 type  4   force =     0.00017157   -0.00033255   -0.00049200
     atom  146 type  4   force =     0.00064956   -0.00037918   -0.00000627
     atom  147 type  4   force =     0.00005676    0.00004125    0.00036333
     atom  148 type  4   force =     0.00024106   -0.00060793   -0.00068969
     atom  149 type  4   force =    -0.00051941    0.00013714    0.00041362
     atom  150 type  4   force =    -0.00037508   -0.00041765   -0.00023948
     atom  151 type  4   force =    -0.00039450    0.00027144   -0.00008082
     atom  152 type  4   force =     0.00014647   -0.00033806   -0.00046670
     atom  153 type  4   force =    -0.00048838   -0.00035247    0.00001259
     atom  154 type  4   force =     0.00044535   -0.00000142   -0.00010291
     atom  155 type  4   force =     0.00025857    0.00022514   -0.00004393
     atom  156 type  4   force =     0.00014714    0.00043238   -0.00032366
     atom  157 type  4   force =    -0.00013718   -0.00027805   -0.00090735
     atom  158 type  5   force =    -0.00020714   -0.00045250   -0.00079771

     Total force =     0.004215     Total SCF correction =     0.000334
     Energy error            =      3.1E-05 Ry
     Gradient error          =      9.1E-04 Ry/Bohr

     bfgs converged in  46 scf cycles and  45 bfgs steps
     (criteria: energy <  1.0E-04 Ry, force <  1.0E-03 Ry/Bohr)

     End of BFGS Geometry Optimization

     Final energy             =   -7738.3022804823 Ry

     File ./tmp/pwscf.bfgs deleted, as requested
Begin final coordinates

ATOMIC_POSITIONS (angstrom)
Ni               2.2300441821        7.9300872161        1.1994706175    0   0   0
Mn               4.5360601698        7.2645421851        4.2881957634    0   0   0
Ni               0.0482124814        2.7926831463        1.1832251701    0   0   0
Ni               2.3678449275        2.1875583209        4.2536619427    0   0   0
Ni               4.5840527706       10.1767699498        2.7305906462    0   0   0
Ni               2.2989249137        5.0112004397        2.7208223816    0   0   0
P                1.9191556085        9.1947685098        4.2262527028    0   0   0
P                4.2228727730        6.0418983853        1.2408371268    0   0   0
P                2.6614916452        0.9505694287        1.2152831525    0   0   0
P                0.3687989873        3.9959247479        4.2245371146    0   0   0
O                1.2105585878        8.5186160728        2.9383613456    0   0   0
O                3.4977341627        6.6984458504        2.5265286493    0   0   0
O                3.3734481877        1.6230781630        2.5062767106    0   0   0
O                1.0788573983        3.3585578522        2.9193569380    0   0   0
O                1.3912332078        8.3530563518        5.4179928601    0   0   0
O                3.6679070201        6.8655451064        0.0492759625    0   0   0
O                3.2152409015        1.7397214659        0.0100000000    0   0   0
O                0.9049083614        3.2014443754        5.4295155413    0   0   0
O                0.9139052037        5.4513056112        4.1842123988    0   0   0
O                3.1939446447        9.6761264195        1.2941794249    0   0   0
O                3.4442525443        3.9638922778        4.1247684933    0   0   0
O                1.1338734528        1.0030080887        1.3107230936    0   0   0
O                1.1448667942        6.1125523717        1.3291164734    0   0   0
O                3.6953691676        4.5794914639        1.2677260396    0   0   0
O                1.3669544319        0.4582264326        4.1920053047    0   0   0
O                3.4414129640        9.1583313520        4.1378369313    0   0   0
Ni               2.2231694467        7.8387150113        7.2035685402    0   0   0
Mn               4.5291854344        7.1731699804       10.2922936861    0   0   0
Ni               0.0413377460        2.7013109415        7.1873230927    0   0   0
Ni               2.3609701921        2.0961861161       10.2577598654    0   0   0
Ni               4.5771780352       10.0853977451        8.7346885689    0   0   0
Ni               2.2920501783        4.9198282349        8.7249203043    0   0   0
P                1.9122808731        9.1033963050       10.2303506254    0   0   0
P                4.2159980376        5.9505261806        7.2449350495    0   0   0
P                2.6546169098        0.8591972239        7.2193810751    0   0   0
P                0.3619242519        3.9045525432       10.2286350373    0   0   0
O                1.2036838524        8.4272438680        8.9424592683    0   0   0
O                3.4908594272        6.6070736456        8.5306265720    0   0   0
O                3.3665734522        1.5317059583        8.5103746332    0   0   0
O                1.0719826629        3.2671856475        8.9234548607    0   0   0
O                1.3843584724        8.2616841471       11.4220907828    0   0   0
O                3.6610322847        6.7741729017        6.0533738852    0   0   0
O                3.2083661661        1.6483492612        6.0140979227    0   0   0
O                0.8980336260        3.1100721707       11.4336134640    0   0   0
O                0.9070304683        5.3599334065       10.1883103215    0   0   0
O                3.1870699093        9.5847542147        7.2982773476    0   0   0
O                3.4373778089        3.8725200731       10.1288664160    0   0   0
O                1.1269987174        0.9116358839        7.3148210163    0   0   0
O                1.1379920588        6.0211801669        7.3332143961    0   0   0
O                3.6884944322        4.4881192592        7.2718239623    0   0   0
O                1.3600796965        0.3668542279       10.1961032273    0   0   0
O                3.4345382286        9.0669591473       10.1419348540    0   0   0
Ni               2.2184284134        7.6642701413       13.1790322169
Mn               4.5633848733        6.9879511869       16.2217148989
Ni               0.0352234565        2.5355377199       13.1737650611
Ni               2.2938733041        1.9585164729       16.0396897788
Ni               4.6145555189        9.8812947078       14.6772568844
Ni               2.2400436090        4.7785952095       14.7003461926
P                1.9549025330        8.8860241613       16.1913664956
P                4.2005787266        5.7622462132       13.2174983759
P                2.6666646638        0.6889574732       13.1667579755
P                0.3157178676        3.7304694159       16.2346573377
O                1.2530440250        8.3006408513       14.8440695347
O                3.4892010078        6.4357720550       14.4956467621
O                3.3874440453        1.3578749512       14.4446196990
O                1.0054275311        3.1732911327       14.8583890190
O                1.4140553124        7.9718643946       17.2940773212
O                3.6366697114        6.6102317692       12.0508615089
O                3.2259269963        1.5134681240       11.9831892456
O                0.9148622254        2.8473683180       17.3226391484
O                0.8324906884        5.2138367587       16.2401708206
O                3.2171524250        9.4212179818       13.2105126394
O                3.3584383832        3.6854642624       16.0536084799
O                1.1354073248        0.7569588696       13.2978564913
O                1.1223759559        5.8556795176       13.3249733913
O                3.6392512228        4.3139368905       13.2255395315
O                1.4513236178        0.1715543662       16.2018029897
O                3.4956259923        8.8100695276       16.0919571975
Ni               6.8356663942        7.9300872161        1.1994706175    0   0   0
Mn               9.1416823819        7.2645421851        4.2881957634    0   0   0
Ni               4.6538346934        2.7926831463        1.1832251701    0   0   0
Ni               6.9734671396        2.1875583209        4.2536619427    0   0   0
Ni               9.1896749827       10.1767699498        2.7305906462    0   0   0
Ni               6.9045471258        5.0112004397        2.7208223816    0   0   0
P                6.5247778206        9.1947685098        4.2262527028    0   0   0
P                8.8284949851        6.0418983853        1.2408371268    0   0   0
P                7.2671138573        0.9505694287        1.2152831525    0   0   0
P                4.9744211994        3.9959247479        4.2245371146    0   0   0
O                5.8161807998        8.5186160728        2.9383613456    0   0   0
O                8.1033563747        6.6984458504        2.5265286493    0   0   0
O                7.9790703997        1.6230781630        2.5062767106    0   0   0
O                5.6844796104        3.3585578522        2.9193569380    0   0   0
O                5.9968554199        8.3530563518        5.4179928601    0   0   0
O                8.2735292322        6.8655451064        0.0492759625    0   0   0
O                7.8208631136        1.7397214659        0.0100000000    0   0   0
O                5.5105305734        3.2014443754        5.4295155413    0   0   0
O                5.5195274158        5.4513056112        4.1842123988    0   0   0
O                7.7995668567        9.6761264195        1.2941794249    0   0   0
O                8.0498747564        3.9638922778        4.1247684933    0   0   0
O                5.7394956648        1.0030080887        1.3107230936    0   0   0
O                5.7504890062        6.1125523717        1.3291164734    0   0   0
O                8.3009913797        4.5794914639        1.2677260396    0   0   0
O                5.9725766440        0.4582264326        4.1920053047    0   0   0
O                8.0470351761        9.1583313520        4.1378369313    0   0   0
Ni               6.8287916588        7.8387150113        7.2035685402    0   0   0
Mn               9.1348076465        7.1731699804       10.2922936861    0   0   0
Ni               4.6469599580        2.7013109415        7.1873230927    0   0   0
Ni               6.9665924042        2.0961861161       10.2577598654    0   0   0
Ni               9.1828002472       10.0853977451        8.7346885689    0   0   0
Ni               6.8976723903        4.9198282349        8.7249203043    0   0   0
P                6.5179030852        9.1033963050       10.2303506254    0   0   0
P                8.8216202497        5.9505261806        7.2449350495    0   0   0
P                7.2602391219        0.8591972239        7.2193810751    0   0   0
P                4.9675464640        3.9045525432       10.2286350373    0   0   0
O                5.8093060644        8.4272438680        8.9424592683    0   0   0
O                8.0964816393        6.6070736456        8.5306265720    0   0   0
O                7.9721956643        1.5317059583        8.5103746332    0   0   0
O                5.6776048750        3.2671856475        8.9234548607    0   0   0
O                5.9899806845        8.2616841471       11.4220907828    0   0   0
O                8.2666544968        6.7741729017        6.0533738852    0   0   0
O                7.8139883782        1.6483492612        6.0140979227    0   0   0
O                5.5036558380        3.1100721707       11.4336134640    0   0   0
O                5.5126526804        5.3599334065       10.1883103215    0   0   0
O                7.7926921213        9.5847542147        7.2982773476    0   0   0
O                8.0430000209        3.8725200731       10.1288664160    0   0   0
O                5.7326209294        0.9116358839        7.3148210163    0   0   0
O                5.7436142708        6.0211801669        7.3332143961    0   0   0
O                8.2941166443        4.4881192592        7.2718239623    0   0   0
O                5.9657019086        0.3668542279       10.1961032273    0   0   0
O                8.0401604407        9.0669591473       10.1419348540    0   0   0
Ni               6.8282398977        7.6613912126       13.1814134537
Mn               9.1587182654        7.0291963978       16.2281102350
Ni               4.6494438348        2.5356682208       13.1616786868
Ni               6.9806037476        1.8685462819       16.3616078096
Ni               9.2036519326        9.9048870082       14.7128702778
Ni               6.8555605888        4.7464596830       14.7258833841
P                6.5433201456        8.8545647141       16.1853403131
P                8.8001494527        5.7658956845       13.2263650313
P                7.2706773008        0.7064854945       13.1955799121
P                4.9056123775        3.6694532534       16.1758943995
O                5.8466978043        8.2537423862       14.8340054210
O                8.0938028244        6.4319284269       14.5060823037
O                7.9733633196        1.3851140909       14.4707303794
O                5.6218207252        3.1607035867       14.8218726278
O                6.0345812909        7.9151069223       17.2839300679
O                8.2388619331        6.6081881315       12.0548824791
O                7.8265001360        1.5216904806       11.9991336920
O                5.4111110914        2.7456227350       17.2735013162
O                5.4183321555        5.1568667190       16.2472424732
O                7.8202489860        9.4346870395       13.2364528556
O                7.9850853196        3.7143531621       16.1402060216
O                5.7344085936        0.7500118519       13.2832257724
O                5.7324918002        5.8379577555       13.3238381474
O                8.2532393147        4.3124895017       13.2451402679
O                5.9794430303        0.1125520712       16.1664271608
O                8.0835679037        8.8008468075       16.0659712543
O                8.0167125864        1.0906168532       17.6455750926
H                8.8036665971        1.6460663504       17.8734363176
End final coordinates



     Writing all to output data dir ./tmp/pwscf.save/
 
     init_run     :      8.03s CPU      8.70s WALL (       1 calls)
     electrons    :  13600.94s CPU  14347.86s WALL (      46 calls)
     update_pot   :     19.55s CPU     20.54s WALL (      45 calls)
     forces       :    175.83s CPU    189.78s WALL (      46 calls)
     force_london :      4.74s CPU      4.74s WALL (      46 calls)

     Called by init_run:
     wfcinit      :      4.75s CPU      4.91s WALL (       1 calls)
     potinit      :      0.57s CPU      0.80s WALL (       1 calls)
     hinit0       :      1.47s CPU      1.57s WALL (       1 calls)

     Called by electrons:
     c_bands      :  10443.96s CPU  10772.08s WALL (    1133 calls)
     sum_band     :   1897.47s CPU   2074.24s WALL (    1133 calls)
     v_of_rho     :    427.37s CPU    482.95s WALL (    1153 calls)
     newd         :    591.71s CPU    739.89s WALL (    1153 calls)
     mix_rho      :    249.15s CPU    250.40s WALL (    1133 calls)
     energy_londo :      4.41s CPU      4.41s WALL (      46 calls)

     Called by c_bands:
     init_us_2    :     32.70s CPU     33.39s WALL (    4626 calls)
     init_us_2:cp :     32.66s CPU     33.37s WALL (    4626 calls)
     regterg      :  10170.19s CPU  10495.40s WALL (    2268 calls)

     Called by *egterg:
     rdiaghg      :   2426.52s CPU   2582.25s WALL (    7397 calls)
     h_psi        :   4229.11s CPU   4308.25s WALL (    7541 calls)
     s_psi        :    816.11s CPU    816.56s WALL (    7541 calls)
     g_psi        :      6.40s CPU      6.45s WALL (    5271 calls)

     Called by h_psi:
     h_psi:calbec :   1048.05s CPU   1111.69s WALL (    7541 calls)
     vloc_psi     :   2359.57s CPU   2370.29s WALL (    7541 calls)
     add_vuspsi   :    812.48s CPU    817.07s WALL (    7541 calls)

     General routines
     calbec       :   1612.95s CPU   1712.16s WALL (   10175 calls)
     fft          :    429.35s CPU    487.04s WALL (   21423 calls)
     ffts         :    163.90s CPU    164.43s WALL (  133942 calls)
     fftw         :   2656.06s CPU   2667.46s WALL ( 3853858 calls)
     interpolate  :     18.57s CPU     19.44s WALL (    2306 calls)
 
     Parallel routines
 
     PWSCF        :      3h51m CPU      4h 4m WALL

 
   This run was terminated on:   7:51:18  10Nov2025            

=------------------------------------------------------------------------------=
   JOB DONE.
=------------------------------------------------------------------------------=
