
     Program PWSCF v.7.2 starts on  8Nov2025 at 16:47:37 

     This program is part of the open-source Quantum ESPRESSO suite
     for quantum simulation of materials; please cite
         "P. Giannozzi et al., J. Phys.:Condens. Matter 21 395502 (2009);
         "P. Giannozzi et al., J. Phys.:Condens. Matter 29 465901 (2017);
         "P. Giannozzi et al., J. Chem. Phys. 152 154105 (2020);
          URL http://www.quantum-espresso.org", 
     in publications or presentations arising from this work. More details at
     http://www.quantum-espresso.org/quote

     Parallel version (MPI), running on    64 processors

     MPI processes distributed on     4 nodes
     401259 MiB available memory on the printing compute node when the environment starts
 
     Reading input from PW.in

     Current dimensions of program PWSCF are:
     Max number of different atomic species (ntypx) = 10
     Max number of k-points (npk) =  40000
     Max angular momentum in pseudopotentials (lmaxx) =  4
     Presently no symmetry can be used with electric field

     Presently stress not available with electric field and gates

     file Ni.pbe-n-rrkjus_psl.1.0.0.UPF: wavefunction(s)  3D renormalized
     file Mn.pbe-spn-rrkjus_psl.0.3.1.UPF: wavefunction(s)  3D renormalized
     file O.pbe-rrkjus.UPF: wavefunction(s)  2S renormalized
     file H.pbe-rrkjus.UPF: wavefunction(s)  1S renormalized

     gamma-point specific algorithms are used
     Found identity + ( -0.5000  0.0000  0.0000) symmetry
     This is a supercell, fractional translations are disabled
 
     R & G space division:  proc/nbgrp/npool/nimage =      64
     Subspace diagonalization in iterative solution of the eigenvalue problem:
     one sub-group per band group will be used
     custom distributed-memory algorithm (size of sub-group:  7*  7 procs)

 
     Parallelization info
     --------------------
     sticks:   dense  smooth     PW     G-vecs:    dense   smooth      PW
     Min         207      82     20                60552    15302    1896
     Max         210      84     22                60574    15336    1950
     Sum       13325    5345   1333              3876045   980655  122653
 
     Using Slab Decomposition
 


     bravais-lattice index     =            0
     lattice parameter (alat)  =      17.4067  a.u.
     unit-cell volume          =   20529.8182 (a.u.)^3
     number of atoms/cell      =          156
     number of atomic types    =            5
     number of electrons       =      1086.00
     number of Kohn-Sham states=          652
     kinetic-energy cutoff     =      50.0000  Ry
     charge density cutoff     =     500.0000  Ry
     scf convergence threshold =      1.0E-06
     mixing beta               =       0.1000
     number of iterations used =            8  local-TF  mixing
     energy convergence thresh.=      1.0E-04
     force convergence thresh. =      1.0E-03
     Exchange-correlation=  SLA  PW   PBE  PBE
                           (   1   4   3   4   0   0   0)
     nstep                     =         1000


     celldm(1)=  17.406729  celldm(2)=   0.000000  celldm(3)=   0.000000
     celldm(4)=   0.000000  celldm(5)=   0.000000  celldm(6)=   0.000000

     crystal axes: (cart. coord. in units of alat)
               a(1) = (   1.000000   0.000000   0.000000 )  
               a(2) = (  -0.001404   1.105696   0.000000 )  
               a(3) = (   0.000000   0.000000   3.520448 )  

     reciprocal axes: (cart. coord. in units 2 pi/alat)
               b(1) = (  1.000000  0.001270  0.000000 )  
               b(2) = (  0.000000  0.904408  0.000000 )  
               b(3) = (  0.000000  0.000000  0.284055 )  


     PseudoPot. # 1 for Ni read from file:
     ~/PSEUDO/Ni.pbe-n-rrkjus_psl.1.0.0.UPF
     MD5 check sum: Not computed, couldn't open file
     Pseudo is Ultrasoft + core correction, Zval = 10.0
     Generated using "atomic" code by A. Dal Corso  v.5.1.2
     Using radial grid of 1195 points,  6 beta functions with: 
                l(1) =   0
                l(2) =   0
                l(3) =   1
                l(4) =   1
                l(5) =   2
                l(6) =   2
     Q(r) pseudized with 0 coefficients 


     PseudoPot. # 2 for Mn read from file:
     ~/PSEUDO/Mn.pbe-spn-rrkjus_psl.0.3.1.UPF
     MD5 check sum: Not computed, couldn't open file
     Pseudo is Ultrasoft + core correction, Zval = 15.0
     Generated using &quot;atomic&quot; code by A. Dal Corso  v.6.2.2
     Using radial grid of 1187 points,  6 beta functions with: 
                l(1) =   0
                l(2) =   0
                l(3) =   1
                l(4) =   1
                l(5) =   2
                l(6) =   2
     Q(r) pseudized with 0 coefficients 


     PseudoPot. # 3 for P  read from file:
     ~/PSEUDO/P.pbe-n-rrkjus_psl.1.0.0.UPF
     MD5 check sum: Not computed, couldn't open file
     Pseudo is Ultrasoft + core correction, Zval =  5.0
     Generated using "atomic" code by A. Dal Corso  v.5.1
     Using radial grid of 1147 points,  6 beta functions with: 
                l(1) =   0
                l(2) =   0
                l(3) =   1
                l(4) =   1
                l(5) =   2
                l(6) =   2
     Q(r) pseudized with 0 coefficients 


     PseudoPot. # 4 for O  read from file:
     ~/PSEUDO/O.pbe-rrkjus.UPF
     MD5 check sum: Not computed, couldn't open file
     Pseudo is Ultrasoft, Zval =  6.0
     Generated by new atomic code, or converted to UPF format
     Using radial grid of 1269 points,  4 beta functions with: 
                l(1) =   0
                l(2) =   0
                l(3) =   1
                l(4) =   1
     Q(r) pseudized with 0 coefficients 


     PseudoPot. # 5 for H  read from file:
     ~/PSEUDO/H.pbe-rrkjus.UPF
     MD5 check sum: Not computed, couldn't open file
     Pseudo is Ultrasoft, Zval =  1.0
     Generated by new atomic code, or converted to UPF format
     Using radial grid of 1061 points,  2 beta functions with: 
                l(1) =   0
                l(2) =   0
     Q(r) pseudized with 0 coefficients 


     atomic species   valence    mass     pseudopotential
     Ni               10.00    58.69300     Ni( 1.00)
     Mn               15.00    54.93800     Mn( 1.00)
     P                 5.00    30.97300     P ( 1.00)
     O                 6.00    15.99900     O ( 1.00)
     H                 1.00     1.00790     H ( 1.00)

     Starting magnetic structure 
     atomic species   magnetization
     Ni              1.000
     Mn              1.000
     P               1.000
     O               1.000
     H               0.000

     No symmetry found



   Cartesian axes

     site n.     atom                  positions (alat units)
         1        Ni     tau(   1) = (   0.2421002   0.8609138   1.7639572  )
         2        Mn     tau(   2) = (   0.4924481   0.7886602   1.4286360  )
         3        Ni     tau(   3) = (   0.0052341   0.3031820   1.7657208  )
         4        Ni     tau(   4) = (   0.2570603   0.2374878   1.4323851  )
         5        Ni     tau(   5) = (   0.4976584   1.1048203   1.5977343  )
         6        Ni     tau(   6) = (   0.2495781   0.5440308   1.5987947  )
         7        P      tau(   7) = (   0.2083492   0.9982113   1.4353607  )
         8        P      tau(   8) = (   0.4584476   0.6559264   1.7594663  )
         9        P      tau(   9) = (   0.2889394   0.1031966   1.7622405  )
        10        P      tau(  10) = (   0.0400379   0.4338094   1.4355470  )
        11        O      tau(  11) = (   0.1314218   0.9248062   1.5751781  )
        12        O      tau(  12) = (   0.3797244   0.7272031   1.6198878  )
        13        O      tau(  13) = (   0.3662315   0.1762062   1.6220864  )
        14        O      tau(  14) = (   0.1171240   0.3646150   1.5772412  )
        15        O      tau(  15) = (   0.1510364   0.9068326   1.3059819  )
        16        O      tau(  16) = (   0.3981989   0.7453439   1.8888257  )
        17        O      tau(  17) = (   0.3490561   0.1888693   1.8930896  )
        18        O      tau(  18) = (   0.0982395   0.3475583   1.3047310  )
        19        O      tau(  19) = (   0.0992163   0.5918099   1.4399248  )
        20        O      tau(  20) = (   0.3467441   1.0504690   1.7536753  )
        21        O      tau(  21) = (   0.3739183   0.4303319   1.4463782  )
        22        O      tau(  22) = (   0.1230967   0.1088895   1.7518793  )
        23        O      tau(  23) = (   0.1242901   0.6635968   1.7498824  )
        24        O      tau(  24) = (   0.4011802   0.4971632   1.7565472  )
        25        O      tau(  25) = (   0.1484006   0.0497464   1.4390787  )
        26        O      tau(  26) = (   0.3736100   0.9942556   1.4449594  )
        27        Ni     tau(  27) = (   0.2413539   0.8509941   1.1121345  )
        28        Mn     tau(  28) = (   0.4917018   0.7787406   0.7768134  )
        29        Ni     tau(  29) = (   0.0044877   0.2932623   1.1138982  )
        30        Ni     tau(  30) = (   0.2563139   0.2275682   0.7805625  )
        31        Ni     tau(  31) = (   0.4969120   1.0949007   0.9459116  )
        32        Ni     tau(  32) = (   0.2488318   0.5341111   0.9469721  )
        33        P      tau(  33) = (   0.2076029   0.9882917   0.7835381  )
        34        P      tau(  34) = (   0.4577012   0.6460068   1.1076436  )
        35        P      tau(  35) = (   0.2881931   0.0932770   1.1104179  )
        36        P      tau(  36) = (   0.0392916   0.4238898   0.7837243  )
        37        O      tau(  37) = (   0.1306755   0.9148866   0.9233554  )
        38        O      tau(  38) = (   0.3789780   0.7172835   0.9680652  )
        39        O      tau(  39) = (   0.3654852   0.1662865   0.9702638  )
        40        O      tau(  40) = (   0.1163776   0.3546954   0.9254186  )
        41        O      tau(  41) = (   0.1502901   0.8969129   0.6541592  )
        42        O      tau(  42) = (   0.3974525   0.7354243   1.2370031  )
        43        O      tau(  43) = (   0.3483097   0.1789497   1.2412670  )
        44        O      tau(  44) = (   0.0974932   0.3376387   0.6529083  )
        45        O      tau(  45) = (   0.0984699   0.5818903   0.7881021  )
        46        O      tau(  46) = (   0.3459978   1.0405493   1.1018526  )
        47        O      tau(  47) = (   0.3731719   0.4204123   0.7945555  )
        48        O      tau(  48) = (   0.1223503   0.0989699   1.1000566  )
        49        O      tau(  49) = (   0.1235438   0.6536772   1.0980598  )
        50        O      tau(  50) = (   0.4004339   0.4872435   1.1047245  )
        51        O      tau(  51) = (   0.1476543   0.0398268   0.7872561  )
        52        O      tau(  52) = (   0.3728637   0.9843360   0.7931368  )
        53        Ni     tau(  53) = (   0.2406075   0.8410745   0.4603118  )
        54        Mn     tau(  54) = (   0.4909555   0.7688210   0.1249907  )
        55        Ni     tau(  55) = (   0.0037414   0.2833427   0.4620755  )
        56        Ni     tau(  56) = (   0.2555676   0.2176485   0.1287398  )
        57        Ni     tau(  57) = (   0.4961657   1.0849810   0.2940889  )
        58        Ni     tau(  58) = (   0.2480854   0.5241915   0.2951494  )
        59        P      tau(  59) = (   0.2068565   0.9783721   0.1317154  )
        60        P      tau(  60) = (   0.4569549   0.6360871   0.4558210  )
        61        P      tau(  61) = (   0.2874467   0.0833574   0.4585952  )
        62        P      tau(  62) = (   0.0385452   0.4139702   0.1319017  )
        63        O      tau(  63) = (   0.1299291   0.9049669   0.2715327  )
        64        O      tau(  64) = (   0.3782317   0.7073639   0.3162425  )
        65        O      tau(  65) = (   0.3647389   0.1563669   0.3184411  )
        66        O      tau(  66) = (   0.1156313   0.3447757   0.2735959  )
        67        O      tau(  67) = (   0.1495437   0.8869933   0.0023366  )
        68        O      tau(  68) = (   0.3967062   0.7255047   0.5851804  )
        69        O      tau(  69) = (   0.3475634   0.1690300   0.5894443  )
        70        O      tau(  70) = (   0.0967469   0.3277190   0.0010856  )
        71        O      tau(  71) = (   0.0977236   0.5719706   0.1362794  )
        72        O      tau(  72) = (   0.3452514   1.0306297   0.4500300  )
        73        O      tau(  73) = (   0.3724256   0.4104926   0.1427328  )
        74        O      tau(  74) = (   0.1216040   0.0890503   0.4482339  )
        75        O      tau(  75) = (   0.1227974   0.6437575   0.4462371  )
        76        O      tau(  76) = (   0.3996875   0.4773239   0.4529018  )
        77        O      tau(  77) = (   0.1469079   0.0299071   0.1354334  )
        78        O      tau(  78) = (   0.3721173   0.9744163   0.1413141  )
        79        Ni     tau(  79) = (   0.7421002   0.8609138   1.7639572  )
        80        Mn     tau(  80) = (   0.9924481   0.7886602   1.4286360  )
        81        Ni     tau(  81) = (   0.5052341   0.3031820   1.7657208  )
        82        Ni     tau(  82) = (   0.7570603   0.2374878   1.4323851  )
        83        Ni     tau(  83) = (   0.9976584   1.1048203   1.5977343  )
        84        Ni     tau(  84) = (   0.7495781   0.5440308   1.5987947  )
        85        P      tau(  85) = (   0.7083492   0.9982113   1.4353607  )
        86        P      tau(  86) = (   0.9584476   0.6559264   1.7594663  )
        87        P      tau(  87) = (   0.7889394   0.1031966   1.7622405  )
        88        P      tau(  88) = (   0.5400379   0.4338094   1.4355470  )
        89        O      tau(  89) = (   0.6314218   0.9248062   1.5751781  )
        90        O      tau(  90) = (   0.8797244   0.7272031   1.6198878  )
        91        O      tau(  91) = (   0.8662315   0.1762062   1.6220864  )
        92        O      tau(  92) = (   0.6171240   0.3646150   1.5772412  )
        93        O      tau(  93) = (   0.6510364   0.9068326   1.3059819  )
        94        O      tau(  94) = (   0.8981989   0.7453439   1.8888257  )
        95        O      tau(  95) = (   0.8490561   0.1888693   1.8930896  )
        96        O      tau(  96) = (   0.5982395   0.3475583   1.3047310  )
        97        O      tau(  97) = (   0.5992163   0.5918099   1.4399248  )
        98        O      tau(  98) = (   0.8467441   1.0504690   1.7536753  )
        99        O      tau(  99) = (   0.8739183   0.4303319   1.4463782  )
       100        O      tau( 100) = (   0.6230967   0.1088895   1.7518793  )
       101        O      tau( 101) = (   0.6242901   0.6635968   1.7498824  )
       102        O      tau( 102) = (   0.9011802   0.4971632   1.7565472  )
       103        O      tau( 103) = (   0.6484006   0.0497464   1.4390787  )
       104        O      tau( 104) = (   0.8736100   0.9942556   1.4449594  )
       105        Ni     tau( 105) = (   0.7413539   0.8509941   1.1121345  )
       106        Mn     tau( 106) = (   0.9917018   0.7787406   0.7768134  )
       107        Ni     tau( 107) = (   0.5044877   0.2932623   1.1138982  )
       108        Ni     tau( 108) = (   0.7563139   0.2275682   0.7805625  )
       109        Ni     tau( 109) = (   0.9969120   1.0949007   0.9459116  )
       110        Ni     tau( 110) = (   0.7488318   0.5341111   0.9469721  )
       111        P      tau( 111) = (   0.7076029   0.9882917   0.7835381  )
       112        P      tau( 112) = (   0.9577012   0.6460068   1.1076436  )
       113        P      tau( 113) = (   0.7881931   0.0932770   1.1104179  )
       114        P      tau( 114) = (   0.5392916   0.4238898   0.7837243  )
       115        O      tau( 115) = (   0.6306755   0.9148866   0.9233554  )
       116        O      tau( 116) = (   0.8789780   0.7172835   0.9680652  )
       117        O      tau( 117) = (   0.8654852   0.1662865   0.9702638  )
       118        O      tau( 118) = (   0.6163776   0.3546954   0.9254186  )
       119        O      tau( 119) = (   0.6502901   0.8969129   0.6541592  )
       120        O      tau( 120) = (   0.8974525   0.7354243   1.2370031  )
       121        O      tau( 121) = (   0.8483097   0.1789497   1.2412670  )
       122        O      tau( 122) = (   0.5974932   0.3376387   0.6529083  )
       123        O      tau( 123) = (   0.5984699   0.5818903   0.7881021  )
       124        O      tau( 124) = (   0.8459978   1.0405493   1.1018526  )
       125        O      tau( 125) = (   0.8731719   0.4204123   0.7945555  )
       126        O      tau( 126) = (   0.6223503   0.0989699   1.1000566  )
       127        O      tau( 127) = (   0.6235438   0.6536772   1.0980598  )
       128        O      tau( 128) = (   0.9004339   0.4872435   1.1047245  )
       129        O      tau( 129) = (   0.6476543   0.0398268   0.7872561  )
       130        O      tau( 130) = (   0.8728637   0.9843360   0.7931368  )
       131        Ni     tau( 131) = (   0.7406075   0.8410745   0.4603118  )
       132        Mn     tau( 132) = (   0.9909555   0.7688210   0.1249907  )
       133        Ni     tau( 133) = (   0.5037414   0.2833427   0.4620755  )
       134        Ni     tau( 134) = (   0.7555676   0.2176485   0.1287398  )
       135        Ni     tau( 135) = (   0.9961657   1.0849810   0.2940889  )
       136        Ni     tau( 136) = (   0.7480854   0.5241915   0.2951494  )
       137        P      tau( 137) = (   0.7068565   0.9783721   0.1317154  )
       138        P      tau( 138) = (   0.9569549   0.6360871   0.4558210  )
       139        P      tau( 139) = (   0.7874467   0.0833574   0.4585952  )
       140        P      tau( 140) = (   0.5385452   0.4139702   0.1319017  )
       141        O      tau( 141) = (   0.6299291   0.9049669   0.2715327  )
       142        O      tau( 142) = (   0.8782317   0.7073639   0.3162425  )
       143        O      tau( 143) = (   0.8647389   0.1563669   0.3184411  )
       144        O      tau( 144) = (   0.6156313   0.3447757   0.2735959  )
       145        O      tau( 145) = (   0.6495437   0.8869933   0.0023366  )
       146        O      tau( 146) = (   0.8967062   0.7255047   0.5851804  )
       147        O      tau( 147) = (   0.8475634   0.1690300   0.5894443  )
       148        O      tau( 148) = (   0.5967469   0.3277190   0.0010856  )
       149        O      tau( 149) = (   0.5977236   0.5719706   0.1362794  )
       150        O      tau( 150) = (   0.8452514   1.0306297   0.4500300  )
       151        O      tau( 151) = (   0.8724256   0.4104926   0.1427328  )
       152        O      tau( 152) = (   0.6216040   0.0890503   0.4482339  )
       153        O      tau( 153) = (   0.6227974   0.6437575   0.4462371  )
       154        O      tau( 154) = (   0.8996875   0.4773239   0.4529018  )
       155        O      tau( 155) = (   0.6469079   0.0299071   0.1354334  )
       156        O      tau( 156) = (   0.8721173   0.9744163   0.1413141  )

     -------------------------------------------------
     Parameters for Dispersion (Grimme-D2) Correction:
     -------------------------------------------------
       atom      VdW radius       C_6     

        Ni         2.952        374.666
        Mn         2.952        374.666
        P          3.222        271.980
        O          2.536         24.284
        H          1.892          4.857

     number of k points=     1  Gaussian smearing, width (Ry)=  0.0100
                       cart. coord. in units 2pi/alat
        k(    1) = (   0.0000000   0.0000000   0.0000000), wk =   1.0000000

     Dense  grid:  1938023 G-vectors     FFT dimensions: ( 125, 144, 450)

     Smooth grid:   490328 G-vectors     FFT dimensions: (  80,  90, 288)

     Estimated max dynamical RAM per process >     324.58 MB

     Estimated total dynamical RAM >      20.29 GB

     Check: negative core charge=   -0.000001
     Generating pointlists ...
     new r_m :   0.0894 (alat units)  1.5564 (a.u.) for type    1
     new r_m :   0.0909 (alat units)  1.5826 (a.u.) for type    2
     new r_m :   0.0683 (alat units)  1.1890 (a.u.) for type    3
     new r_m :   0.0683 (alat units)  1.1890 (a.u.) for type    4
     new r_m :   0.4125 (alat units)  7.1803 (a.u.) for type    5

     Initial potential from superposition of free atoms

     starting charge    1085.9855, renormalised to    1086.0000

     negative rho (up, down):  1.498E-03 2.758E-13
 
     Adding external electric field

     Computed dipole along edir(3) : 
        Dipole               -0.0032 Ry au,         -0.0081 Debye
        Dipole field         -0.0000 Ry au, 
 
        Potential amp.        0.0002 Ry
        Total length         55.1515 bohr
 
 
     Adding external electric field

     Computed dipole along edir(3) : 
        Dipole               -0.0032 Ry au,         -0.0081 Debye
        Dipole field         -0.0000 Ry au, 
 
        Potential amp.        0.0002 Ry
        Total length         55.1515 bohr
 
     Starting wfcs are  810 randomized atomic wfcs

     total cpu time spent up to now is       12.2 secs

     Self-consistent Calculation

     iteration #  1     ecut=    50.00 Ry     beta= 0.10
     Davidson diagonalization with overlap
     ethr =  1.00E-02,  avg # of iterations =  6.0

     negative rho (up, down):  3.373E-01 0.000E+00
 
     Adding external electric field

     Computed dipole along edir(3) : 
        Dipole               -1.6928 Ry au,         -4.3025 Debye
        Dipole field         -0.0010 Ry au, 
 
        Potential amp.        0.1143 Ry
        Total length         55.1515 bohr
 
 
     Adding external electric field

     Computed dipole along edir(3) : 
        Dipole               -1.6928 Ry au,         -4.3025 Debye
        Dipole field         -0.0010 Ry au, 
 
        Potential amp.        0.1143 Ry
        Total length         55.1515 bohr
 

     total cpu time spent up to now is       46.9 secs

     total energy              =   -7485.39804886 Ry
     estimated scf accuracy    <     255.98109835 Ry

     total magnetization       =   218.00 Bohr mag/cell
     absolute magnetization    =   310.55 Bohr mag/cell

     iteration #  2     ecut=    50.00 Ry     beta= 0.10
     Davidson diagonalization with overlap
     ethr =  1.00E-02,  avg # of iterations =  2.0

     negative rho (up, down):  3.417E-01 0.000E+00
 
     Adding external electric field

     Computed dipole along edir(3) : 
        Dipole               -1.1674 Ry au,         -2.9672 Debye
        Dipole field         -0.0007 Ry au, 
 
        Potential amp.        0.0788 Ry
        Total length         55.1515 bohr
 
 
     Adding external electric field

     Computed dipole along edir(3) : 
        Dipole               -1.1674 Ry au,         -2.9672 Debye
        Dipole field         -0.0007 Ry au, 
 
        Potential amp.        0.0788 Ry
        Total length         55.1515 bohr
 

     total cpu time spent up to now is       71.3 secs

     total energy              =   -7564.57285601 Ry
     estimated scf accuracy    <     178.34415763 Ry

     total magnetization       =   158.13 Bohr mag/cell
     absolute magnetization    =   206.70 Bohr mag/cell

     iteration #  3     ecut=    50.00 Ry     beta= 0.10
     Davidson diagonalization with overlap
     ethr =  1.00E-02,  avg # of iterations =  1.5

     negative rho (up, down):  3.275E-01 0.000E+00
 
     Adding external electric field

     Computed dipole along edir(3) : 
        Dipole               -0.6531 Ry au,         -1.6600 Debye
        Dipole field         -0.0004 Ry au, 
 
        Potential amp.        0.0441 Ry
        Total length         55.1515 bohr
 
 
     Adding external electric field

     Computed dipole along edir(3) : 
        Dipole               -0.6531 Ry au,         -1.6600 Debye
        Dipole field         -0.0004 Ry au, 
 
        Potential amp.        0.0441 Ry
        Total length         55.1515 bohr
 

     total cpu time spent up to now is       92.1 secs

     total energy              =   -7599.80089583 Ry
     estimated scf accuracy    <     108.53420041 Ry

     total magnetization       =   137.13 Bohr mag/cell
     absolute magnetization    =   187.25 Bohr mag/cell

     iteration #  4     ecut=    50.00 Ry     beta= 0.10
     Davidson diagonalization with overlap
     ethr =  9.99E-03,  avg # of iterations =  1.0

     negative rho (up, down):  2.696E-01 0.000E+00
 
     Adding external electric field

     Computed dipole along edir(3) : 
        Dipole               -0.5050 Ry au,         -1.2837 Debye
        Dipole field         -0.0003 Ry au, 
 
        Potential amp.        0.0341 Ry
        Total length         55.1515 bohr
 
 
     Adding external electric field

     Computed dipole along edir(3) : 
        Dipole               -0.5050 Ry au,         -1.2837 Debye
        Dipole field         -0.0003 Ry au, 
 
        Potential amp.        0.0341 Ry
        Total length         55.1515 bohr
 

     total cpu time spent up to now is      109.9 secs

     total energy              =   -7633.15849629 Ry
     estimated scf accuracy    <      79.07348125 Ry

     total magnetization       =   117.59 Bohr mag/cell
     absolute magnetization    =   169.94 Bohr mag/cell

     iteration #  5     ecut=    50.00 Ry     beta= 0.10
     Davidson diagonalization with overlap
     ethr =  7.28E-03,  avg # of iterations =  1.0

     negative rho (up, down):  8.852E-02 3.358E-03
 
     Adding external electric field

     Computed dipole along edir(3) : 
        Dipole                0.2121 Ry au,          0.5392 Debye
        Dipole field          0.0001 Ry au, 
 
        Potential amp.       -0.0143 Ry
        Total length         55.1515 bohr
 
 
     Adding external electric field

     Computed dipole along edir(3) : 
        Dipole                0.2121 Ry au,          0.5392 Debye
        Dipole field          0.0001 Ry au, 
 
        Potential amp.       -0.0143 Ry
        Total length         55.1515 bohr
 

     total cpu time spent up to now is      123.1 secs

     total energy              =   -7693.52623513 Ry
     estimated scf accuracy    <      63.08854845 Ry

     total magnetization       =    96.06 Bohr mag/cell
     absolute magnetization    =   151.32 Bohr mag/cell

     iteration #  6     ecut=    50.00 Ry     beta= 0.10
     Davidson diagonalization with overlap
     ethr =  5.81E-03,  avg # of iterations =  1.5

     negative rho (up, down):  3.202E-02 3.375E-02
 
     Adding external electric field

     Computed dipole along edir(3) : 
        Dipole                0.5262 Ry au,          1.3374 Debye
        Dipole field          0.0003 Ry au, 
 
        Potential amp.       -0.0355 Ry
        Total length         55.1515 bohr
 
 
     Adding external electric field

     Computed dipole along edir(3) : 
        Dipole                0.5262 Ry au,          1.3374 Debye
        Dipole field          0.0003 Ry au, 
 
        Potential amp.       -0.0355 Ry
        Total length         55.1515 bohr
 

     total cpu time spent up to now is      138.3 secs

     total energy              =   -7702.96967778 Ry
     estimated scf accuracy    <       9.71207319 Ry

     total magnetization       =    90.00 Bohr mag/cell
     absolute magnetization    =   121.23 Bohr mag/cell

     iteration #  7     ecut=    50.00 Ry     beta= 0.10
     Davidson diagonalization with overlap
     ethr =  8.94E-04,  avg # of iterations =  5.5

     negative rho (up, down):  3.182E-02 3.349E-02
 
     Adding external electric field

     Computed dipole along edir(3) : 
        Dipole                0.5243 Ry au,          1.3326 Debye
        Dipole field          0.0003 Ry au, 
 
        Potential amp.       -0.0354 Ry
        Total length         55.1515 bohr
 
 
     Adding external electric field

     Computed dipole along edir(3) : 
        Dipole                0.5243 Ry au,          1.3326 Debye
        Dipole field          0.0003 Ry au, 
 
        Potential amp.       -0.0354 Ry
        Total length         55.1515 bohr
 

     total cpu time spent up to now is      163.0 secs

     total energy              =   -7705.14431375 Ry
     estimated scf accuracy    <      19.64159287 Ry

     total magnetization       =    69.80 Bohr mag/cell
     absolute magnetization    =    87.09 Bohr mag/cell

     iteration #  8     ecut=    50.00 Ry     beta= 0.10
     Davidson diagonalization with overlap
     ethr =  8.94E-04,  avg # of iterations =  1.0

     negative rho (up, down):  3.420E-02 3.580E-02
 
     Adding external electric field

     Computed dipole along edir(3) : 
        Dipole                0.5443 Ry au,          1.3834 Debye
        Dipole field          0.0003 Ry au, 
 
        Potential amp.       -0.0367 Ry
        Total length         55.1515 bohr
 
 
     Adding external electric field

     Computed dipole along edir(3) : 
        Dipole                0.5443 Ry au,          1.3834 Debye
        Dipole field          0.0003 Ry au, 
 
        Potential amp.       -0.0367 Ry
        Total length         55.1515 bohr
 

     total cpu time spent up to now is      177.2 secs

     total energy              =   -7705.21223345 Ry
     estimated scf accuracy    <      19.57197854 Ry

     total magnetization       =    69.82 Bohr mag/cell
     absolute magnetization    =    86.80 Bohr mag/cell

     iteration #  9     ecut=    50.00 Ry     beta= 0.10
     Davidson diagonalization with overlap
     ethr =  8.94E-04,  avg # of iterations =  1.0

     negative rho (up, down):  3.023E-02 3.416E-02
 
     Adding external electric field

     Computed dipole along edir(3) : 
        Dipole                0.3874 Ry au,          0.9846 Debye
        Dipole field          0.0002 Ry au, 
 
        Potential amp.       -0.0262 Ry
        Total length         55.1515 bohr
 
 
     Adding external electric field

     Computed dipole along edir(3) : 
        Dipole                0.3874 Ry au,          0.9846 Debye
        Dipole field          0.0002 Ry au, 
 
        Potential amp.       -0.0262 Ry
        Total length         55.1515 bohr
 

     total cpu time spent up to now is      191.2 secs

     total energy              =   -7704.88372397 Ry
     estimated scf accuracy    <      20.39600761 Ry

     total magnetization       =    69.65 Bohr mag/cell
     absolute magnetization    =    86.55 Bohr mag/cell

     iteration # 10     ecut=    50.00 Ry     beta= 0.10
     Davidson diagonalization with overlap
     ethr =  8.94E-04,  avg # of iterations =  1.0

     negative rho (up, down):  3.690E-02 4.500E-02
 
     Adding external electric field

     Computed dipole along edir(3) : 
        Dipole                0.3058 Ry au,          0.7773 Debye
        Dipole field          0.0002 Ry au, 
 
        Potential amp.       -0.0206 Ry
        Total length         55.1515 bohr
 
 
     Adding external electric field

     Computed dipole along edir(3) : 
        Dipole                0.3058 Ry au,          0.7773 Debye
        Dipole field          0.0002 Ry au, 
 
        Potential amp.       -0.0206 Ry
        Total length         55.1515 bohr
 

     total cpu time spent up to now is      206.2 secs

     total energy              =   -7704.87954012 Ry
     estimated scf accuracy    <      14.08334211 Ry

     total magnetization       =    70.90 Bohr mag/cell
     absolute magnetization    =    85.40 Bohr mag/cell

     iteration # 11     ecut=    50.00 Ry     beta= 0.10
     Davidson diagonalization with overlap
     ethr =  8.94E-04,  avg # of iterations =  1.0

     negative rho (up, down):  5.033E-02 5.892E-02
 
     Adding external electric field

     Computed dipole along edir(3) : 
        Dipole                0.1767 Ry au,          0.4491 Debye
        Dipole field          0.0001 Ry au, 
 
        Potential amp.       -0.0119 Ry
        Total length         55.1515 bohr
 
 
     Adding external electric field

     Computed dipole along edir(3) : 
        Dipole                0.1767 Ry au,          0.4491 Debye
        Dipole field          0.0001 Ry au, 
 
        Potential amp.       -0.0119 Ry
        Total length         55.1515 bohr
 

     total cpu time spent up to now is      220.3 secs

     total energy              =   -7704.80643219 Ry
     estimated scf accuracy    <       9.04494108 Ry

     total magnetization       =    73.95 Bohr mag/cell
     absolute magnetization    =    86.70 Bohr mag/cell

     iteration # 12     ecut=    50.00 Ry     beta= 0.10
     Davidson diagonalization with overlap
     ethr =  8.33E-04,  avg # of iterations =  1.0

     negative rho (up, down):  3.358E-02 4.649E-02
 
     Adding external electric field

     Computed dipole along edir(3) : 
        Dipole                0.3044 Ry au,          0.7738 Debye
        Dipole field          0.0002 Ry au, 
 
        Potential amp.       -0.0206 Ry
        Total length         55.1515 bohr
 
 
     Adding external electric field

     Computed dipole along edir(3) : 
        Dipole                0.3044 Ry au,          0.7738 Debye
        Dipole field          0.0002 Ry au, 
 
        Potential amp.       -0.0206 Ry
        Total length         55.1515 bohr
 

     total cpu time spent up to now is      232.1 secs

     total energy              =   -7704.86344371 Ry
     estimated scf accuracy    <       3.03208250 Ry

     total magnetization       =    80.84 Bohr mag/cell
     absolute magnetization    =    91.63 Bohr mag/cell

     iteration # 13     ecut=    50.00 Ry     beta= 0.10
     Davidson diagonalization with overlap
     ethr =  2.79E-04,  avg # of iterations =  2.0

     negative rho (up, down):  4.563E-02 6.255E-02
 
     Adding external electric field

     Computed dipole along edir(3) : 
        Dipole                0.1987 Ry au,          0.5050 Debye
        Dipole field          0.0001 Ry au, 
 
        Potential amp.       -0.0134 Ry
        Total length         55.1515 bohr
 
 
     Adding external electric field

     Computed dipole along edir(3) : 
        Dipole                0.1987 Ry au,          0.5050 Debye
        Dipole field          0.0001 Ry au, 
 
        Potential amp.       -0.0134 Ry
        Total length         55.1515 bohr
 

     total cpu time spent up to now is      247.3 secs

     total energy              =   -7704.84835733 Ry
     estimated scf accuracy    <      10.63854262 Ry

     total magnetization       =    71.87 Bohr mag/cell
     absolute magnetization    =    84.01 Bohr mag/cell

     iteration # 14     ecut=    50.00 Ry     beta= 0.10
     Davidson diagonalization with overlap
     ethr =  2.79E-04,  avg # of iterations =  6.5

     negative rho (up, down):  4.784E-02 5.583E-02
 
     Adding external electric field

     Computed dipole along edir(3) : 
        Dipole               -0.0316 Ry au,         -0.0802 Debye
        Dipole field         -0.0000 Ry au, 
 
        Potential amp.        0.0021 Ry
        Total length         55.1515 bohr
 
 
     Adding external electric field

     Computed dipole along edir(3) : 
        Dipole               -0.0316 Ry au,         -0.0802 Debye
        Dipole field         -0.0000 Ry au, 
 
        Potential amp.        0.0021 Ry
        Total length         55.1515 bohr
 

     total cpu time spent up to now is      264.8 secs

     total energy              =   -7704.79563941 Ry
     estimated scf accuracy    <       5.20754444 Ry

     total magnetization       =    76.29 Bohr mag/cell
     absolute magnetization    =    86.90 Bohr mag/cell

     iteration # 15     ecut=    50.00 Ry     beta= 0.10
     Davidson diagonalization with overlap
     ethr =  2.79E-04,  avg # of iterations =  1.5

     negative rho (up, down):  5.331E-02 6.782E-02
 
     Adding external electric field

     Computed dipole along edir(3) : 
        Dipole               -0.1346 Ry au,         -0.3421 Debye
        Dipole field         -0.0001 Ry au, 
 
        Potential amp.        0.0091 Ry
        Total length         55.1515 bohr
 
 
     Adding external electric field

     Computed dipole along edir(3) : 
        Dipole               -0.1346 Ry au,         -0.3421 Debye
        Dipole field         -0.0001 Ry au, 
 
        Potential amp.        0.0091 Ry
        Total length         55.1515 bohr
 

     total cpu time spent up to now is      280.0 secs

     total energy              =   -7704.93503241 Ry
     estimated scf accuracy    <       1.17739225 Ry

     total magnetization       =    85.94 Bohr mag/cell
     absolute magnetization    =    94.40 Bohr mag/cell

     iteration # 16     ecut=    50.00 Ry     beta= 0.10
     Davidson diagonalization with overlap
     ethr =  1.08E-04,  avg # of iterations = 10.0

     negative rho (up, down):  2.863E-02 4.819E-02
 
     Adding external electric field

     Computed dipole along edir(3) : 
        Dipole               -0.1688 Ry au,         -0.4290 Debye
        Dipole field         -0.0001 Ry au, 
 
        Potential amp.        0.0114 Ry
        Total length         55.1515 bohr
 
 
     Adding external electric field

     Computed dipole along edir(3) : 
        Dipole               -0.1688 Ry au,         -0.4290 Debye
        Dipole field         -0.0001 Ry au, 
 
        Potential amp.        0.0114 Ry
        Total length         55.1515 bohr
 

     total cpu time spent up to now is      301.0 secs

     total energy              =   -7704.88732081 Ry
     estimated scf accuracy    <       0.87430387 Ry

     total magnetization       =    87.86 Bohr mag/cell
     absolute magnetization    =    94.59 Bohr mag/cell

     iteration # 17     ecut=    50.00 Ry     beta= 0.10
     Davidson diagonalization with overlap
     ethr =  8.05E-05,  avg # of iterations =  2.0

     negative rho (up, down):  2.453E-02 4.106E-02
 
     Adding external electric field

     Computed dipole along edir(3) : 
        Dipole               -0.1982 Ry au,         -0.5038 Debye
        Dipole field         -0.0001 Ry au, 
 
        Potential amp.        0.0134 Ry
        Total length         55.1515 bohr
 
 
     Adding external electric field

     Computed dipole along edir(3) : 
        Dipole               -0.1982 Ry au,         -0.5038 Debye
        Dipole field         -0.0001 Ry au, 
 
        Potential amp.        0.0134 Ry
        Total length         55.1515 bohr
 

     total cpu time spent up to now is      316.1 secs

     total energy              =   -7704.95225795 Ry
     estimated scf accuracy    <       0.56092921 Ry

     total magnetization       =    85.33 Bohr mag/cell
     absolute magnetization    =    90.85 Bohr mag/cell

     iteration # 18     ecut=    50.00 Ry     beta= 0.10
     Davidson diagonalization with overlap
     ethr =  5.17E-05,  avg # of iterations =  2.0

     negative rho (up, down):  1.950E-03 6.338E-03
 
     Adding external electric field

     Computed dipole along edir(3) : 
        Dipole               -0.2138 Ry au,         -0.5433 Debye
        Dipole field         -0.0001 Ry au, 
 
        Potential amp.        0.0144 Ry
        Total length         55.1515 bohr
 
 
     Adding external electric field

     Computed dipole along edir(3) : 
        Dipole               -0.2138 Ry au,         -0.5433 Debye
        Dipole field         -0.0001 Ry au, 
 
        Potential amp.        0.0144 Ry
        Total length         55.1515 bohr
 

     total cpu time spent up to now is      331.8 secs

     total energy              =   -7705.04500673 Ry
     estimated scf accuracy    <       0.34339176 Ry

     total magnetization       =    86.61 Bohr mag/cell
     absolute magnetization    =    91.86 Bohr mag/cell

     iteration # 19     ecut=    50.00 Ry     beta= 0.10
     Davidson diagonalization with overlap
     c_bands:  2 eigenvalues not converged
     ethr =  3.16E-05,  avg # of iterations = 21.0

     negative rho (up, down):  1.404E-03 6.178E-03
 
     Adding external electric field

     Computed dipole along edir(3) : 
        Dipole               -0.2578 Ry au,         -0.6554 Debye
        Dipole field         -0.0002 Ry au, 
 
        Potential amp.        0.0174 Ry
        Total length         55.1515 bohr
 
 
     Adding external electric field

     Computed dipole along edir(3) : 
        Dipole               -0.2578 Ry au,         -0.6554 Debye
        Dipole field         -0.0002 Ry au, 
 
        Potential amp.        0.0174 Ry
        Total length         55.1515 bohr
 

     total cpu time spent up to now is      369.3 secs

     total energy              =   -7705.07566403 Ry
     estimated scf accuracy    <       0.70923096 Ry

     total magnetization       =    84.84 Bohr mag/cell
     absolute magnetization    =    89.34 Bohr mag/cell

     iteration # 20     ecut=    50.00 Ry     beta= 0.10
     Davidson diagonalization with overlap
     ethr =  3.16E-05,  avg # of iterations =  2.0

     negative rho (up, down):  9.089E-04 5.405E-03
 
     Adding external electric field

     Computed dipole along edir(3) : 
        Dipole               -0.2925 Ry au,         -0.7434 Debye
        Dipole field         -0.0002 Ry au, 
 
        Potential amp.        0.0197 Ry
        Total length         55.1515 bohr
 
 
     Adding external electric field

     Computed dipole along edir(3) : 
        Dipole               -0.2925 Ry au,         -0.7434 Debye
        Dipole field         -0.0002 Ry au, 
 
        Potential amp.        0.0197 Ry
        Total length         55.1515 bohr
 

     total cpu time spent up to now is      384.7 secs

     total energy              =   -7705.09255514 Ry
     estimated scf accuracy    <       0.49980442 Ry

     total magnetization       =    85.24 Bohr mag/cell
     absolute magnetization    =    89.07 Bohr mag/cell

     iteration # 21     ecut=    50.00 Ry     beta= 0.10
     Davidson diagonalization with overlap
     ethr =  3.16E-05,  avg # of iterations =  1.0

     negative rho (up, down):  6.267E-06 1.167E-04
 
     Adding external electric field

     Computed dipole along edir(3) : 
        Dipole               -0.3216 Ry au,         -0.8175 Debye
        Dipole field         -0.0002 Ry au, 
 
        Potential amp.        0.0217 Ry
        Total length         55.1515 bohr
 
 
     Adding external electric field

     Computed dipole along edir(3) : 
        Dipole               -0.3216 Ry au,         -0.8175 Debye
        Dipole field         -0.0002 Ry au, 
 
        Potential amp.        0.0217 Ry
        Total length         55.1515 bohr
 

     total cpu time spent up to now is      398.2 secs

     total energy              =   -7705.16450616 Ry
     estimated scf accuracy    <       0.14341670 Ry

     total magnetization       =    86.52 Bohr mag/cell
     absolute magnetization    =    89.62 Bohr mag/cell

     iteration # 22     ecut=    50.00 Ry     beta= 0.10
     Davidson diagonalization with overlap
     ethr =  1.32E-05,  avg # of iterations =  2.0

     negative rho (up, down):  6.588E-05 1.348E-04
 
     Adding external electric field

     Computed dipole along edir(3) : 
        Dipole               -0.3641 Ry au,         -0.9255 Debye
        Dipole field         -0.0002 Ry au, 
 
        Potential amp.        0.0246 Ry
        Total length         55.1515 bohr
 
 
     Adding external electric field

     Computed dipole along edir(3) : 
        Dipole               -0.3641 Ry au,         -0.9255 Debye
        Dipole field         -0.0002 Ry au, 
 
        Potential amp.        0.0246 Ry
        Total length         55.1515 bohr
 

     total cpu time spent up to now is      414.2 secs

     total energy              =   -7705.19143511 Ry
     estimated scf accuracy    <       0.09230148 Ry

     total magnetization       =    86.97 Bohr mag/cell
     absolute magnetization    =    89.39 Bohr mag/cell

     iteration # 23     ecut=    50.00 Ry     beta= 0.10
     Davidson diagonalization with overlap
     ethr =  8.50E-06,  avg # of iterations =  2.0

     negative rho (up, down):  2.250E-04 3.460E-04
 
     Adding external electric field

     Computed dipole along edir(3) : 
        Dipole               -0.3752 Ry au,         -0.9537 Debye
        Dipole field         -0.0002 Ry au, 
 
        Potential amp.        0.0253 Ry
        Total length         55.1515 bohr
 
 
     Adding external electric field

     Computed dipole along edir(3) : 
        Dipole               -0.3752 Ry au,         -0.9537 Debye
        Dipole field         -0.0002 Ry au, 
 
        Potential amp.        0.0253 Ry
        Total length         55.1515 bohr
 

     total cpu time spent up to now is      430.4 secs

     total energy              =   -7705.19782444 Ry
     estimated scf accuracy    <       0.03341658 Ry

     total magnetization       =    88.05 Bohr mag/cell
     absolute magnetization    =    89.89 Bohr mag/cell

     iteration # 24     ecut=    50.00 Ry     beta= 0.10
     Davidson diagonalization with overlap
     c_bands:  1 eigenvalues not converged
     c_bands:  2 eigenvalues not converged
     ethr =  3.08E-06,  avg # of iterations = 20.0

     negative rho (up, down):  3.223E-04 4.258E-04
 
     Adding external electric field

     Computed dipole along edir(3) : 
        Dipole               -0.4020 Ry au,         -1.0217 Debye
        Dipole field         -0.0002 Ry au, 
 
        Potential amp.        0.0271 Ry
        Total length         55.1515 bohr
 
 
     Adding external electric field

     Computed dipole along edir(3) : 
        Dipole               -0.4020 Ry au,         -1.0217 Debye
        Dipole field         -0.0002 Ry au, 
 
        Potential amp.        0.0271 Ry
        Total length         55.1515 bohr
 

     total cpu time spent up to now is      459.2 secs

     total energy              =   -7705.19856075 Ry
     estimated scf accuracy    <       0.02232532 Ry

     total magnetization       =    88.01 Bohr mag/cell
     absolute magnetization    =    89.67 Bohr mag/cell

     iteration # 25     ecut=    50.00 Ry     beta= 0.10
     Davidson diagonalization with overlap
     c_bands:  4 eigenvalues not converged
     ethr =  2.06E-06,  avg # of iterations = 12.0

     negative rho (up, down):  6.005E-06 9.062E-06
 
     Adding external electric field

     Computed dipole along edir(3) : 
        Dipole               -0.4346 Ry au,         -1.1046 Debye
        Dipole field         -0.0003 Ry au, 
 
        Potential amp.        0.0293 Ry
        Total length         55.1515 bohr
 
 
     Adding external electric field

     Computed dipole along edir(3) : 
        Dipole               -0.4346 Ry au,         -1.1046 Debye
        Dipole field         -0.0003 Ry au, 
 
        Potential amp.        0.0293 Ry
        Total length         55.1515 bohr
 

     total cpu time spent up to now is      483.2 secs

     total energy              =   -7705.19900265 Ry
     estimated scf accuracy    <       0.01077938 Ry

     total magnetization       =    87.67 Bohr mag/cell
     absolute magnetization    =    89.21 Bohr mag/cell

     iteration # 26     ecut=    50.00 Ry     beta= 0.10
     Davidson diagonalization with overlap
     c_bands:  1 eigenvalues not converged
     ethr =  9.93E-07,  avg # of iterations = 11.0

     negative rho (up, down):  6.619E-06 9.977E-06
 
     Adding external electric field

     Computed dipole along edir(3) : 
        Dipole               -0.4533 Ry au,         -1.1522 Debye
        Dipole field         -0.0003 Ry au, 
 
        Potential amp.        0.0306 Ry
        Total length         55.1515 bohr
 
 
     Adding external electric field

     Computed dipole along edir(3) : 
        Dipole               -0.4533 Ry au,         -1.1522 Debye
        Dipole field         -0.0003 Ry au, 
 
        Potential amp.        0.0306 Ry
        Total length         55.1515 bohr
 

     total cpu time spent up to now is      502.7 secs

     total energy              =   -7705.19948800 Ry
     estimated scf accuracy    <       0.01083285 Ry

     total magnetization       =    87.63 Bohr mag/cell
     absolute magnetization    =    89.17 Bohr mag/cell

     iteration # 27     ecut=    50.00 Ry     beta= 0.10
     Davidson diagonalization with overlap
     ethr =  9.93E-07,  avg # of iterations =  2.0

     negative rho (up, down):  2.296E-06 2.873E-06
 
     Adding external electric field

     Computed dipole along edir(3) : 
        Dipole               -0.4926 Ry au,         -1.2520 Debye
        Dipole field         -0.0003 Ry au, 
 
        Potential amp.        0.0333 Ry
        Total length         55.1515 bohr
 
 
     Adding external electric field

     Computed dipole along edir(3) : 
        Dipole               -0.4926 Ry au,         -1.2520 Debye
        Dipole field         -0.0003 Ry au, 
 
        Potential amp.        0.0333 Ry
        Total length         55.1515 bohr
 

     total cpu time spent up to now is      516.4 secs

     total energy              =   -7705.19917541 Ry
     estimated scf accuracy    <       0.00930895 Ry

     total magnetization       =    87.72 Bohr mag/cell
     absolute magnetization    =    89.18 Bohr mag/cell

     iteration # 28     ecut=    50.00 Ry     beta= 0.10
     Davidson diagonalization with overlap
     ethr =  8.57E-07,  avg # of iterations =  2.0

     negative rho (up, down):  7.945E-06 1.531E-05
 
     Adding external electric field

     Computed dipole along edir(3) : 
        Dipole               -0.4819 Ry au,         -1.2249 Debye
        Dipole field         -0.0003 Ry au, 
 
        Potential amp.        0.0325 Ry
        Total length         55.1515 bohr
 
 
     Adding external electric field

     Computed dipole along edir(3) : 
        Dipole               -0.4819 Ry au,         -1.2249 Debye
        Dipole field         -0.0003 Ry au, 
 
        Potential amp.        0.0325 Ry
        Total length         55.1515 bohr
 

     total cpu time spent up to now is      531.0 secs

     total energy              =   -7705.19907403 Ry
     estimated scf accuracy    <       0.01357722 Ry

     total magnetization       =    87.90 Bohr mag/cell
     absolute magnetization    =    89.23 Bohr mag/cell

     iteration # 29     ecut=    50.00 Ry     beta= 0.10
     Davidson diagonalization with overlap
     ethr =  8.57E-07,  avg # of iterations =  2.0

     negative rho (up, down):  1.682E-07 2.212E-07
 
     Adding external electric field

     Computed dipole along edir(3) : 
        Dipole               -0.4995 Ry au,         -1.2696 Debye
        Dipole field         -0.0003 Ry au, 
 
        Potential amp.        0.0337 Ry
        Total length         55.1515 bohr
 
 
     Adding external electric field

     Computed dipole along edir(3) : 
        Dipole               -0.4995 Ry au,         -1.2696 Debye
        Dipole field         -0.0003 Ry au, 
 
        Potential amp.        0.0337 Ry
        Total length         55.1515 bohr
 

     total cpu time spent up to now is      546.3 secs

     total energy              =   -7705.19957549 Ry
     estimated scf accuracy    <       0.01040745 Ry

     total magnetization       =    87.80 Bohr mag/cell
     absolute magnetization    =    89.10 Bohr mag/cell

     iteration # 30     ecut=    50.00 Ry     beta= 0.10
     Davidson diagonalization with overlap
     ethr =  8.57E-07,  avg # of iterations =  2.0

     negative rho (up, down):  5.229E-06 6.628E-06
 
     Adding external electric field

     Computed dipole along edir(3) : 
        Dipole               -0.4998 Ry au,         -1.2704 Debye
        Dipole field         -0.0003 Ry au, 
 
        Potential amp.        0.0337 Ry
        Total length         55.1515 bohr
 
 
     Adding external electric field

     Computed dipole along edir(3) : 
        Dipole               -0.4998 Ry au,         -1.2704 Debye
        Dipole field         -0.0003 Ry au, 
 
        Potential amp.        0.0337 Ry
        Total length         55.1515 bohr
 

     total cpu time spent up to now is      562.0 secs

     total energy              =   -7705.19950275 Ry
     estimated scf accuracy    <       0.01574923 Ry

     total magnetization       =    87.87 Bohr mag/cell
     absolute magnetization    =    89.23 Bohr mag/cell

     iteration # 31     ecut=    50.00 Ry     beta= 0.10
     Davidson diagonalization with overlap
     ethr =  8.57E-07,  avg # of iterations =  2.0

     negative rho (up, down):  3.811E-05 4.880E-05
 
     Adding external electric field

     Computed dipole along edir(3) : 
        Dipole               -0.4848 Ry au,         -1.2323 Debye
        Dipole field         -0.0003 Ry au, 
 
        Potential amp.        0.0327 Ry
        Total length         55.1515 bohr
 
 
     Adding external electric field

     Computed dipole along edir(3) : 
        Dipole               -0.4848 Ry au,         -1.2323 Debye
        Dipole field         -0.0003 Ry au, 
 
        Potential amp.        0.0327 Ry
        Total length         55.1515 bohr
 

     total cpu time spent up to now is      576.3 secs

     total energy              =   -7705.19952065 Ry
     estimated scf accuracy    <       0.01353825 Ry

     total magnetization       =    87.84 Bohr mag/cell
     absolute magnetization    =    89.18 Bohr mag/cell

     iteration # 32     ecut=    50.00 Ry     beta= 0.10
     Davidson diagonalization with overlap
     ethr =  8.57E-07,  avg # of iterations =  1.5

     negative rho (up, down):  1.908E-04 2.250E-04
 
     Adding external electric field

     Computed dipole along edir(3) : 
        Dipole               -0.4682 Ry au,         -1.1900 Debye
        Dipole field         -0.0003 Ry au, 
 
        Potential amp.        0.0316 Ry
        Total length         55.1515 bohr
 
 
     Adding external electric field

     Computed dipole along edir(3) : 
        Dipole               -0.4682 Ry au,         -1.1900 Debye
        Dipole field         -0.0003 Ry au, 
 
        Potential amp.        0.0316 Ry
        Total length         55.1515 bohr
 

     total cpu time spent up to now is      589.4 secs

     total energy              =   -7705.19941750 Ry
     estimated scf accuracy    <       0.00936273 Ry

     total magnetization       =    87.73 Bohr mag/cell
     absolute magnetization    =    89.09 Bohr mag/cell

     iteration # 33     ecut=    50.00 Ry     beta= 0.10
     Davidson diagonalization with overlap
     c_bands:  1 eigenvalues not converged
     ethr =  8.57E-07,  avg # of iterations = 10.5

     negative rho (up, down):  1.190E-04 1.586E-04
 
     Adding external electric field

     Computed dipole along edir(3) : 
        Dipole               -0.4640 Ry au,         -1.1794 Debye
        Dipole field         -0.0003 Ry au, 
 
        Potential amp.        0.0313 Ry
        Total length         55.1515 bohr
 
 
     Adding external electric field

     Computed dipole along edir(3) : 
        Dipole               -0.4640 Ry au,         -1.1794 Debye
        Dipole field         -0.0003 Ry au, 
 
        Potential amp.        0.0313 Ry
        Total length         55.1515 bohr
 

     total cpu time spent up to now is      608.1 secs

     total energy              =   -7705.19933422 Ry
     estimated scf accuracy    <       0.00762090 Ry

     total magnetization       =    87.71 Bohr mag/cell
     absolute magnetization    =    89.03 Bohr mag/cell

     iteration # 34     ecut=    50.00 Ry     beta= 0.10
     Davidson diagonalization with overlap
     ethr =  7.02E-07,  avg # of iterations =  1.5

     negative rho (up, down):  1.543E-04 1.951E-04
 
     Adding external electric field

     Computed dipole along edir(3) : 
        Dipole               -0.4789 Ry au,         -1.2172 Debye
        Dipole field         -0.0003 Ry au, 
 
        Potential amp.        0.0323 Ry
        Total length         55.1515 bohr
 
 
     Adding external electric field

     Computed dipole along edir(3) : 
        Dipole               -0.4789 Ry au,         -1.2172 Debye
        Dipole field         -0.0003 Ry au, 
 
        Potential amp.        0.0323 Ry
        Total length         55.1515 bohr
 

     total cpu time spent up to now is      621.3 secs

     total energy              =   -7705.19917401 Ry
     estimated scf accuracy    <       0.00783437 Ry

     total magnetization       =    87.70 Bohr mag/cell
     absolute magnetization    =    89.05 Bohr mag/cell

     iteration # 35     ecut=    50.00 Ry     beta= 0.10
     Davidson diagonalization with overlap
     ethr =  7.02E-07,  avg # of iterations =  2.0

     negative rho (up, down):  2.138E-05 2.763E-05
 
     Adding external electric field

     Computed dipole along edir(3) : 
        Dipole               -0.4964 Ry au,         -1.2616 Debye
        Dipole field         -0.0003 Ry au, 
 
        Potential amp.        0.0335 Ry
        Total length         55.1515 bohr
 
 
     Adding external electric field

     Computed dipole along edir(3) : 
        Dipole               -0.4964 Ry au,         -1.2616 Debye
        Dipole field         -0.0003 Ry au, 
 
        Potential amp.        0.0335 Ry
        Total length         55.1515 bohr
 

     total cpu time spent up to now is      635.3 secs

     total energy              =   -7705.19925953 Ry
     estimated scf accuracy    <       0.00548633 Ry

     total magnetization       =    87.64 Bohr mag/cell
     absolute magnetization    =    88.94 Bohr mag/cell

     iteration # 36     ecut=    50.00 Ry     beta= 0.10
     Davidson diagonalization with overlap
     ethr =  5.05E-07,  avg # of iterations =  2.0

     negative rho (up, down):  3.742E-05 4.351E-05
 
     Adding external electric field

     Computed dipole along edir(3) : 
        Dipole               -0.4872 Ry au,         -1.2382 Debye
        Dipole field         -0.0003 Ry au, 
 
        Potential amp.        0.0329 Ry
        Total length         55.1515 bohr
 
 
     Adding external electric field

     Computed dipole along edir(3) : 
        Dipole               -0.4872 Ry au,         -1.2382 Debye
        Dipole field         -0.0003 Ry au, 
 
        Potential amp.        0.0329 Ry
        Total length         55.1515 bohr
 

     total cpu time spent up to now is      649.3 secs

     total energy              =   -7705.19945803 Ry
     estimated scf accuracy    <       0.00729035 Ry

     total magnetization       =    87.67 Bohr mag/cell
     absolute magnetization    =    88.97 Bohr mag/cell

     iteration # 37     ecut=    50.00 Ry     beta= 0.10
     Davidson diagonalization with overlap
     ethr =  5.05E-07,  avg # of iterations =  1.5

     negative rho (up, down):  3.306E-04 3.597E-04
 
     Adding external electric field

     Computed dipole along edir(3) : 
        Dipole               -0.4805 Ry au,         -1.2214 Debye
        Dipole field         -0.0003 Ry au, 
 
        Potential amp.        0.0324 Ry
        Total length         55.1515 bohr
 
 
     Adding external electric field

     Computed dipole along edir(3) : 
        Dipole               -0.4805 Ry au,         -1.2214 Debye
        Dipole field         -0.0003 Ry au, 
 
        Potential amp.        0.0324 Ry
        Total length         55.1515 bohr
 

     total cpu time spent up to now is      662.5 secs

     total energy              =   -7705.19946510 Ry
     estimated scf accuracy    <       0.00523344 Ry

     total magnetization       =    87.66 Bohr mag/cell
     absolute magnetization    =    88.98 Bohr mag/cell

     iteration # 38     ecut=    50.00 Ry     beta= 0.10
     Davidson diagonalization with overlap
     ethr =  4.82E-07,  avg # of iterations =  2.0

     negative rho (up, down):  2.082E-04 3.477E-04
 
     Adding external electric field

     Computed dipole along edir(3) : 
        Dipole               -0.5025 Ry au,         -1.2773 Debye
        Dipole field         -0.0003 Ry au, 
 
        Potential amp.        0.0339 Ry
        Total length         55.1515 bohr
 
 
     Adding external electric field

     Computed dipole along edir(3) : 
        Dipole               -0.5025 Ry au,         -1.2773 Debye
        Dipole field         -0.0003 Ry au, 
 
        Potential amp.        0.0339 Ry
        Total length         55.1515 bohr
 

     total cpu time spent up to now is      676.5 secs

     total energy              =   -7705.19925341 Ry
     estimated scf accuracy    <       0.00354609 Ry

     total magnetization       =    87.64 Bohr mag/cell
     absolute magnetization    =    89.01 Bohr mag/cell

     iteration # 39     ecut=    50.00 Ry     beta= 0.10
     Davidson diagonalization with overlap
     ethr =  3.27E-07,  avg # of iterations =  2.0

     negative rho (up, down):  1.062E-03 1.390E-03
 
     Adding external electric field

     Computed dipole along edir(3) : 
        Dipole               -0.4903 Ry au,         -1.2462 Debye
        Dipole field         -0.0003 Ry au, 
 
        Potential amp.        0.0331 Ry
        Total length         55.1515 bohr
 
 
     Adding external electric field

     Computed dipole along edir(3) : 
        Dipole               -0.4903 Ry au,         -1.2462 Debye
        Dipole field         -0.0003 Ry au, 
 
        Potential amp.        0.0331 Ry
        Total length         55.1515 bohr
 

     total cpu time spent up to now is      690.6 secs

     total energy              =   -7705.19937149 Ry
     estimated scf accuracy    <       0.00293207 Ry

     total magnetization       =    87.77 Bohr mag/cell
     absolute magnetization    =    89.13 Bohr mag/cell

     iteration # 40     ecut=    50.00 Ry     beta= 0.10
     Davidson diagonalization with overlap
     ethr =  2.70E-07,  avg # of iterations =  2.0

     negative rho (up, down):  1.428E-03 1.715E-03
 
     Adding external electric field

     Computed dipole along edir(3) : 
        Dipole               -0.4710 Ry au,         -1.1972 Debye
        Dipole field         -0.0003 Ry au, 
 
        Potential amp.        0.0318 Ry
        Total length         55.1515 bohr
 
 
     Adding external electric field

     Computed dipole along edir(3) : 
        Dipole               -0.4710 Ry au,         -1.1972 Debye
        Dipole field         -0.0003 Ry au, 
 
        Potential amp.        0.0318 Ry
        Total length         55.1515 bohr
 

     total cpu time spent up to now is      704.4 secs

     total energy              =   -7705.19938633 Ry
     estimated scf accuracy    <       0.00096841 Ry

     total magnetization       =    87.73 Bohr mag/cell
     absolute magnetization    =    89.10 Bohr mag/cell

     iteration # 41     ecut=    50.00 Ry     beta= 0.10
     Davidson diagonalization with overlap
     ethr =  8.92E-08,  avg # of iterations =  2.0

     negative rho (up, down):  9.929E-04 1.028E-03
 
     Adding external electric field

     Computed dipole along edir(3) : 
        Dipole               -0.4523 Ry au,         -1.1496 Debye
        Dipole field         -0.0003 Ry au, 
 
        Potential amp.        0.0305 Ry
        Total length         55.1515 bohr
 
 
     Adding external electric field

     Computed dipole along edir(3) : 
        Dipole               -0.4523 Ry au,         -1.1496 Debye
        Dipole field         -0.0003 Ry au, 
 
        Potential amp.        0.0305 Ry
        Total length         55.1515 bohr
 

     total cpu time spent up to now is      718.3 secs

     total energy              =   -7705.19948744 Ry
     estimated scf accuracy    <       0.00052297 Ry

     total magnetization       =    87.72 Bohr mag/cell
     absolute magnetization    =    89.12 Bohr mag/cell

     iteration # 42     ecut=    50.00 Ry     beta= 0.10
     Davidson diagonalization with overlap
     ethr =  4.82E-08,  avg # of iterations =  2.0

     negative rho (up, down):  6.253E-04 5.810E-04
 
     Adding external electric field

     Computed dipole along edir(3) : 
        Dipole               -0.4477 Ry au,         -1.1379 Debye
        Dipole field         -0.0003 Ry au, 
 
        Potential amp.        0.0302 Ry
        Total length         55.1515 bohr
 
 
     Adding external electric field

     Computed dipole along edir(3) : 
        Dipole               -0.4477 Ry au,         -1.1379 Debye
        Dipole field         -0.0003 Ry au, 
 
        Potential amp.        0.0302 Ry
        Total length         55.1515 bohr
 

     total cpu time spent up to now is      732.1 secs

     total energy              =   -7705.19953393 Ry
     estimated scf accuracy    <       0.00029888 Ry

     total magnetization       =    87.77 Bohr mag/cell
     absolute magnetization    =    89.17 Bohr mag/cell

     iteration # 43     ecut=    50.00 Ry     beta= 0.10
     Davidson diagonalization with overlap
     ethr =  2.75E-08,  avg # of iterations =  2.0

     negative rho (up, down):  1.527E-04 7.218E-05
 
     Adding external electric field

     Computed dipole along edir(3) : 
        Dipole               -0.4447 Ry au,         -1.1303 Debye
        Dipole field         -0.0003 Ry au, 
 
        Potential amp.        0.0300 Ry
        Total length         55.1515 bohr
 
 
     Adding external electric field

     Computed dipole along edir(3) : 
        Dipole               -0.4447 Ry au,         -1.1303 Debye
        Dipole field         -0.0003 Ry au, 
 
        Potential amp.        0.0300 Ry
        Total length         55.1515 bohr
 

     total cpu time spent up to now is      745.9 secs

     total energy              =   -7705.19956347 Ry
     estimated scf accuracy    <       0.00023887 Ry

     total magnetization       =    87.76 Bohr mag/cell
     absolute magnetization    =    89.16 Bohr mag/cell

     iteration # 44     ecut=    50.00 Ry     beta= 0.10
     Davidson diagonalization with overlap
     ethr =  2.20E-08,  avg # of iterations =  2.0

     negative rho (up, down):  9.429E-05 1.732E-05
 
     Adding external electric field

     Computed dipole along edir(3) : 
        Dipole               -0.4394 Ry au,         -1.1168 Debye
        Dipole field         -0.0003 Ry au, 
 
        Potential amp.        0.0297 Ry
        Total length         55.1515 bohr
 
 
     Adding external electric field

     Computed dipole along edir(3) : 
        Dipole               -0.4394 Ry au,         -1.1168 Debye
        Dipole field         -0.0003 Ry au, 
 
        Potential amp.        0.0297 Ry
        Total length         55.1515 bohr
 

     total cpu time spent up to now is      760.3 secs

     total energy              =   -7705.19957889 Ry
     estimated scf accuracy    <       0.00014050 Ry

     total magnetization       =    87.77 Bohr mag/cell
     absolute magnetization    =    89.14 Bohr mag/cell

     iteration # 45     ecut=    50.00 Ry     beta= 0.10
     Davidson diagonalization with overlap
     ethr =  1.29E-08,  avg # of iterations =  1.5

     negative rho (up, down):  7.593E-05 8.914E-06
 
     Adding external electric field

     Computed dipole along edir(3) : 
        Dipole               -0.4380 Ry au,         -1.1132 Debye
        Dipole field         -0.0003 Ry au, 
 
        Potential amp.        0.0296 Ry
        Total length         55.1515 bohr
 
 
     Adding external electric field

     Computed dipole along edir(3) : 
        Dipole               -0.4380 Ry au,         -1.1132 Debye
        Dipole field         -0.0003 Ry au, 
 
        Potential amp.        0.0296 Ry
        Total length         55.1515 bohr
 

     total cpu time spent up to now is      773.5 secs

     total energy              =   -7705.19958065 Ry
     estimated scf accuracy    <       0.00011326 Ry

     total magnetization       =    87.77 Bohr mag/cell
     absolute magnetization    =    89.13 Bohr mag/cell

     iteration # 46     ecut=    50.00 Ry     beta= 0.10
     Davidson diagonalization with overlap
     ethr =  1.04E-08,  avg # of iterations =  2.0

     negative rho (up, down):  6.435E-05 5.768E-06
 
     Adding external electric field

     Computed dipole along edir(3) : 
        Dipole               -0.4374 Ry au,         -1.1116 Debye
        Dipole field         -0.0003 Ry au, 
 
        Potential amp.        0.0295 Ry
        Total length         55.1515 bohr
 
 
     Adding external electric field

     Computed dipole along edir(3) : 
        Dipole               -0.4374 Ry au,         -1.1116 Debye
        Dipole field         -0.0003 Ry au, 
 
        Potential amp.        0.0295 Ry
        Total length         55.1515 bohr
 

     total cpu time spent up to now is      787.0 secs

     total energy              =   -7705.19958097 Ry
     estimated scf accuracy    <       0.00010958 Ry

     total magnetization       =    87.77 Bohr mag/cell
     absolute magnetization    =    89.13 Bohr mag/cell

     iteration # 47     ecut=    50.00 Ry     beta= 0.10
     Davidson diagonalization with overlap
     ethr =  1.01E-08,  avg # of iterations =  2.0

     negative rho (up, down):  7.062E-05 5.116E-06
 
     Adding external electric field

     Computed dipole along edir(3) : 
        Dipole               -0.4348 Ry au,         -1.1052 Debye
        Dipole field         -0.0003 Ry au, 
 
        Potential amp.        0.0294 Ry
        Total length         55.1515 bohr
 
 
     Adding external electric field

     Computed dipole along edir(3) : 
        Dipole               -0.4348 Ry au,         -1.1052 Debye
        Dipole field         -0.0003 Ry au, 
 
        Potential amp.        0.0294 Ry
        Total length         55.1515 bohr
 

     total cpu time spent up to now is      800.7 secs

     total energy              =   -7705.19958563 Ry
     estimated scf accuracy    <       0.00010004 Ry

     total magnetization       =    87.77 Bohr mag/cell
     absolute magnetization    =    89.13 Bohr mag/cell

     iteration # 48     ecut=    50.00 Ry     beta= 0.10
     Davidson diagonalization with overlap
     ethr =  9.21E-09,  avg # of iterations =  2.0

     negative rho (up, down):  9.078E-05 9.915E-06
 
     Adding external electric field

     Computed dipole along edir(3) : 
        Dipole               -0.4349 Ry au,         -1.1055 Debye
        Dipole field         -0.0003 Ry au, 
 
        Potential amp.        0.0294 Ry
        Total length         55.1515 bohr
 
 
     Adding external electric field

     Computed dipole along edir(3) : 
        Dipole               -0.4349 Ry au,         -1.1055 Debye
        Dipole field         -0.0003 Ry au, 
 
        Potential amp.        0.0294 Ry
        Total length         55.1515 bohr
 

     total cpu time spent up to now is      815.1 secs

     total energy              =   -7705.19959042 Ry
     estimated scf accuracy    <       0.00008706 Ry

     total magnetization       =    87.77 Bohr mag/cell
     absolute magnetization    =    89.13 Bohr mag/cell

     iteration # 49     ecut=    50.00 Ry     beta= 0.10
     Davidson diagonalization with overlap
     ethr =  8.02E-09,  avg # of iterations =  2.0

     negative rho (up, down):  9.683E-05 1.205E-05
 
     Adding external electric field

     Computed dipole along edir(3) : 
        Dipole               -0.4338 Ry au,         -1.1026 Debye
        Dipole field         -0.0003 Ry au, 
 
        Potential amp.        0.0293 Ry
        Total length         55.1515 bohr
 
 
     Adding external electric field

     Computed dipole along edir(3) : 
        Dipole               -0.4338 Ry au,         -1.1026 Debye
        Dipole field         -0.0003 Ry au, 
 
        Potential amp.        0.0293 Ry
        Total length         55.1515 bohr
 

     total cpu time spent up to now is      830.3 secs

     total energy              =   -7705.19958971 Ry
     estimated scf accuracy    <       0.00008102 Ry

     total magnetization       =    87.76 Bohr mag/cell
     absolute magnetization    =    89.12 Bohr mag/cell

     iteration # 50     ecut=    50.00 Ry     beta= 0.10
     Davidson diagonalization with overlap
     ethr =  7.46E-09,  avg # of iterations =  2.0

     negative rho (up, down):  9.911E-05 1.359E-05
 
     Adding external electric field

     Computed dipole along edir(3) : 
        Dipole               -0.4325 Ry au,         -1.0992 Debye
        Dipole field         -0.0003 Ry au, 
 
        Potential amp.        0.0292 Ry
        Total length         55.1515 bohr
 
 
     Adding external electric field

     Computed dipole along edir(3) : 
        Dipole               -0.4325 Ry au,         -1.0992 Debye
        Dipole field         -0.0003 Ry au, 
 
        Potential amp.        0.0292 Ry
        Total length         55.1515 bohr
 

     total cpu time spent up to now is      845.5 secs

     total energy              =   -7705.19959030 Ry
     estimated scf accuracy    <       0.00007061 Ry

     total magnetization       =    87.76 Bohr mag/cell
     absolute magnetization    =    89.12 Bohr mag/cell

     iteration # 51     ecut=    50.00 Ry     beta= 0.10
     Davidson diagonalization with overlap
     ethr =  6.50E-09,  avg # of iterations =  1.5

     negative rho (up, down):  1.058E-04 1.716E-05
 
     Adding external electric field

     Computed dipole along edir(3) : 
        Dipole               -0.4316 Ry au,         -1.0970 Debye
        Dipole field         -0.0003 Ry au, 
 
        Potential amp.        0.0291 Ry
        Total length         55.1515 bohr
 
 
     Adding external electric field

     Computed dipole along edir(3) : 
        Dipole               -0.4316 Ry au,         -1.0970 Debye
        Dipole field         -0.0003 Ry au, 
 
        Potential amp.        0.0291 Ry
        Total length         55.1515 bohr
 

     total cpu time spent up to now is      858.7 secs

     total energy              =   -7705.19959037 Ry
     estimated scf accuracy    <       0.00006908 Ry

     total magnetization       =    87.76 Bohr mag/cell
     absolute magnetization    =    89.12 Bohr mag/cell

     iteration # 52     ecut=    50.00 Ry     beta= 0.10
     Davidson diagonalization with overlap
     ethr =  6.36E-09,  avg # of iterations =  2.0

     negative rho (up, down):  1.661E-04 3.814E-05
 
     Adding external electric field

     Computed dipole along edir(3) : 
        Dipole               -0.4267 Ry au,         -1.0846 Debye
        Dipole field         -0.0003 Ry au, 
 
        Potential amp.        0.0288 Ry
        Total length         55.1515 bohr
 
 
     Adding external electric field

     Computed dipole along edir(3) : 
        Dipole               -0.4267 Ry au,         -1.0846 Debye
        Dipole field         -0.0003 Ry au, 
 
        Potential amp.        0.0288 Ry
        Total length         55.1515 bohr
 

     total cpu time spent up to now is      871.8 secs

     total energy              =   -7705.19959023 Ry
     estimated scf accuracy    <       0.00006264 Ry

     total magnetization       =    87.76 Bohr mag/cell
     absolute magnetization    =    89.12 Bohr mag/cell

     iteration # 53     ecut=    50.00 Ry     beta= 0.10
     Davidson diagonalization with overlap
     ethr =  5.77E-09,  avg # of iterations =  1.0

     negative rho (up, down):  2.950E-04 1.111E-04
 
     Adding external electric field

     Computed dipole along edir(3) : 
        Dipole               -0.4220 Ry au,         -1.0726 Debye
        Dipole field         -0.0003 Ry au, 
 
        Potential amp.        0.0285 Ry
        Total length         55.1515 bohr
 
 
     Adding external electric field

     Computed dipole along edir(3) : 
        Dipole               -0.4220 Ry au,         -1.0726 Debye
        Dipole field         -0.0003 Ry au, 
 
        Potential amp.        0.0285 Ry
        Total length         55.1515 bohr
 

     total cpu time spent up to now is      883.2 secs

     total energy              =   -7705.19959046 Ry
     estimated scf accuracy    <       0.00004640 Ry

     total magnetization       =    87.76 Bohr mag/cell
     absolute magnetization    =    89.11 Bohr mag/cell

     iteration # 54     ecut=    50.00 Ry     beta= 0.10
     Davidson diagonalization with overlap
     ethr =  4.27E-09,  avg # of iterations =  2.0

     negative rho (up, down):  5.465E-04 2.437E-04
 
     Adding external electric field

     Computed dipole along edir(3) : 
        Dipole               -0.4174 Ry au,         -1.0610 Debye
        Dipole field         -0.0003 Ry au, 
 
        Potential amp.        0.0282 Ry
        Total length         55.1515 bohr
 
 
     Adding external electric field

     Computed dipole along edir(3) : 
        Dipole               -0.4174 Ry au,         -1.0610 Debye
        Dipole field         -0.0003 Ry au, 
 
        Potential amp.        0.0282 Ry
        Total length         55.1515 bohr
 

     total cpu time spent up to now is      896.3 secs

     total energy              =   -7705.19959849 Ry
     estimated scf accuracy    <       0.00003581 Ry

     total magnetization       =    87.76 Bohr mag/cell
     absolute magnetization    =    89.11 Bohr mag/cell

     iteration # 55     ecut=    50.00 Ry     beta= 0.10
     Davidson diagonalization with overlap
     ethr =  3.30E-09,  avg # of iterations =  2.0

     negative rho (up, down):  1.054E-03 6.302E-04
 
     Adding external electric field

     Computed dipole along edir(3) : 
        Dipole               -0.4101 Ry au,         -1.0425 Debye
        Dipole field         -0.0003 Ry au, 
 
        Potential amp.        0.0277 Ry
        Total length         55.1515 bohr
 
 
     Adding external electric field

     Computed dipole along edir(3) : 
        Dipole               -0.4101 Ry au,         -1.0425 Debye
        Dipole field         -0.0003 Ry au, 
 
        Potential amp.        0.0277 Ry
        Total length         55.1515 bohr
 

     total cpu time spent up to now is      909.7 secs

     total energy              =   -7705.19960379 Ry
     estimated scf accuracy    <       0.00002028 Ry

     total magnetization       =    87.75 Bohr mag/cell
     absolute magnetization    =    89.11 Bohr mag/cell

     iteration # 56     ecut=    50.00 Ry     beta= 0.10
     Davidson diagonalization with overlap
     ethr =  1.87E-09,  avg # of iterations =  2.0

     negative rho (up, down):  1.045E-03 6.029E-04
 
     Adding external electric field

     Computed dipole along edir(3) : 
        Dipole               -0.4101 Ry au,         -1.0425 Debye
        Dipole field         -0.0003 Ry au, 
 
        Potential amp.        0.0277 Ry
        Total length         55.1515 bohr
 
 
     Adding external electric field

     Computed dipole along edir(3) : 
        Dipole               -0.4101 Ry au,         -1.0425 Debye
        Dipole field         -0.0003 Ry au, 
 
        Potential amp.        0.0277 Ry
        Total length         55.1515 bohr
 

     total cpu time spent up to now is      924.0 secs

     total energy              =   -7705.19960556 Ry
     estimated scf accuracy    <       0.00000923 Ry

     total magnetization       =    87.76 Bohr mag/cell
     absolute magnetization    =    89.12 Bohr mag/cell

     iteration # 57     ecut=    50.00 Ry     beta= 0.10
     Davidson diagonalization with overlap
     ethr =  8.50E-10,  avg # of iterations =  1.5

     negative rho (up, down):  1.132E-03 6.664E-04
 
     Adding external electric field

     Computed dipole along edir(3) : 
        Dipole               -0.4091 Ry au,         -1.0398 Debye
        Dipole field         -0.0003 Ry au, 
 
        Potential amp.        0.0276 Ry
        Total length         55.1515 bohr
 
 
     Adding external electric field

     Computed dipole along edir(3) : 
        Dipole               -0.4091 Ry au,         -1.0398 Debye
        Dipole field         -0.0003 Ry au, 
 
        Potential amp.        0.0276 Ry
        Total length         55.1515 bohr
 

     total cpu time spent up to now is      936.5 secs

     total energy              =   -7705.19960728 Ry
     estimated scf accuracy    <       0.00000664 Ry

     total magnetization       =    87.76 Bohr mag/cell
     absolute magnetization    =    89.12 Bohr mag/cell

     iteration # 58     ecut=    50.00 Ry     beta= 0.10
     Davidson diagonalization with overlap
[...]
     atom   95 type  4   force =     0.00036205    0.00059062    0.00035387
     atom   96 type  4   force =     0.00024145    0.00047693   -0.00060069
     atom   97 type  4   force =    -0.00020424   -0.00003871    0.00002650
     atom   98 type  4   force =    -0.00020307   -0.00001317   -0.00017656
     atom   99 type  4   force =     0.00024510    0.00001241   -0.00000351
     atom  100 type  4   force =    -0.00008442    0.00030495    0.00035954
     atom  101 type  4   force =     0.00001253   -0.00006379    0.00001702
     atom  102 type  4   force =     0.00013332   -0.00038095   -0.00058616
     atom  103 type  4   force =     0.00065049    0.00008428   -0.00011610
     atom  104 type  4   force =    -0.00051886   -0.00000671    0.00034827
     atom  105 type  1   force =    -0.00635302   -0.00771158   -0.00336202
     atom  106 type  2   force =    -0.01206108    0.00017159   -0.00207574
     atom  107 type  1   force =     0.00377599   -0.00355166    0.00046682
     atom  108 type  1   force =     0.00239107    0.00395197   -0.00187646
     atom  109 type  1   force =     0.00183186   -0.00494697   -0.00059781
     atom  110 type  1   force =    -0.00113244    0.00111828    0.00154060
     atom  111 type  3   force =    -0.00709483   -0.00094691   -0.00067756
     atom  112 type  3   force =    -0.00708288    0.00380351   -0.00179060
     atom  113 type  3   force =     0.00385358   -0.00097622   -0.00557624
     atom  114 type  3   force =     0.00116033   -0.00125331    0.00264903
     atom  115 type  4   force =     0.00869148    0.00512914   -0.00751773
     atom  116 type  4   force =     0.00366815   -0.00144618    0.02065278
     atom  117 type  4   force =    -0.00117816    0.00365734    0.01085528
     atom  118 type  4   force =    -0.00157228   -0.00246006   -0.00873797
     atom  119 type  4   force =     0.00219897    0.00860603    0.00651422
     atom  120 type  4   force =    -0.00646881   -0.00345807   -0.02021155
     atom  121 type  4   force =     0.01014278    0.00707620   -0.00637603
     atom  122 type  4   force =     0.00699760   -0.00298592    0.00613840
     atom  123 type  4   force =     0.00215269    0.00574593   -0.00045478
     atom  124 type  4   force =     0.00329974    0.00138373    0.00520852
     atom  125 type  4   force =    -0.01311690    0.00020528    0.00338021
     atom  126 type  4   force =    -0.01435585    0.00269379   -0.00301003
     atom  127 type  4   force =     0.01287620    0.00298391   -0.00435269
     atom  128 type  4   force =    -0.00386677   -0.00434575    0.00033643
     atom  129 type  4   force =    -0.00442340    0.00268075   -0.00043338
     atom  130 type  4   force =     0.01634733   -0.00310309    0.00429961
     atom  131 type  1   force =    -0.00756072   -0.00704165   -0.00842421
     atom  132 type  2   force =     0.01576527    0.01727383   -0.00987785
     atom  133 type  1   force =     0.00579705   -0.00489523   -0.00583995
     atom  134 type  1   force =    -0.02054478    0.01926830    0.01988230
     atom  135 type  1   force =     0.00446013   -0.00756980   -0.00141535
     atom  136 type  1   force =    -0.00390026   -0.00534412   -0.00088729
     atom  137 type  3   force =    -0.03903373   -0.03835201   -0.05605193
     atom  138 type  3   force =    -0.00487047   -0.00123774   -0.00120452
     atom  139 type  3   force =     0.00274242   -0.00102250   -0.01020993
     atom  140 type  3   force =     0.02909143   -0.04950306   -0.06060568
     atom  141 type  4   force =     0.00619866    0.00351737    0.02105876
     atom  142 type  4   force =     0.00442769    0.00231139    0.01455623
     atom  143 type  4   force =    -0.00059769    0.00283939    0.01278988
     atom  144 type  4   force =     0.00020124    0.00220601    0.01642261
     atom  145 type  4   force =     0.00119654   -0.00065729    0.03905827
     atom  146 type  4   force =    -0.00546030   -0.00394867   -0.01718949
     atom  147 type  4   force =     0.00780021    0.00453935   -0.00275742
     atom  148 type  4   force =     0.00165552   -0.00742128    0.03540785
     atom  149 type  4   force =    -0.00928901    0.03920988    0.00092815
     atom  150 type  4   force =     0.00206966   -0.00044532    0.00796638
     atom  151 type  4   force =    -0.03002248    0.00087791    0.00763492
     atom  152 type  4   force =    -0.01359882    0.00144370   -0.00040040
     atom  153 type  4   force =     0.01212469    0.00359302   -0.00250022
     atom  154 type  4   force =    -0.00245162   -0.00280778    0.00251237
     atom  155 type  4   force =     0.00906505    0.02583777   -0.00263138
     atom  156 type  4   force =     0.03351554   -0.00619049    0.00600701

     Total force =     0.004105     Total SCF correction =     0.000272
     Energy error            =      3.4E-05 Ry
     Gradient error          =      7.4E-04 Ry/Bohr

     bfgs converged in  38 scf cycles and  37 bfgs steps
     (criteria: energy <  1.0E-04 Ry, force <  1.0E-03 Ry/Bohr)

     End of BFGS Geometry Optimization

     Final energy             =   -7705.2680169045 Ry

     File ./tmp/pwscf.bfgs deleted, as requested
Begin final coordinates

ATOMIC_POSITIONS (angstrom)
Ni               2.3233451059        7.9393084322       16.0915231591
Mn               4.4780648055        7.3135389397       13.1608377424
Ni              -0.0268417664        2.8301642562       16.0666446869
Ni               2.3671775827        2.2529410113       13.1711192597
Ni               4.5562920587       10.2062907583       14.7142352368
Ni               2.3334431938        5.0775993053       14.7520765828
P                1.9094719594        9.2547870111       13.1890255910
P                4.2778522286        6.1381062470       16.2766664458
P                2.6175521792        1.0537572362       16.2198769213
P                0.3764800080        4.0872425978       13.1912098740
O                1.2273210128        8.5811823166       14.4773828989
O                3.5502850770        6.7177991380       14.9205922162
O                3.3347879828        1.6236281327       14.8471679725
O                1.0936859341        3.4333864990       14.4775921694
O                1.3790584407        8.4099213499       12.0060420113
O                3.7174725342        7.0548352064       17.3514714407
O                3.1717832378        1.9801386107       17.2912062917
O                0.9217637689        3.2706276891       11.9985251605
O                0.9280757301        5.5438638015       13.2371302327
O                3.1315928765        9.7611935915       16.2196134672
O                3.4484203939        4.0429054253       13.3129678944
O                1.0743578845        1.0901021473       16.0823862272
O                1.2131329301        6.1879471648       16.1038408865
O                3.7671703830        4.6539996690       16.2392343817
O                1.3466217865        0.5123455814       13.2151359545
O                3.4442226279        9.1819639470       13.2966345459
Ni               2.2231694467        7.8387150113       10.2441428465    0   0   0
Mn               4.5291854344        7.1731699804        7.1554177006    0   0   0
Ni               0.0413377460        2.7013109415       10.2603882940    0   0   0
Ni               2.3609701921        2.0961861161        7.1899515213    0   0   0
Ni               4.5771780352       10.0853977451        8.7130228178    0   0   0
Ni               2.2920501783        4.9198282349        8.7227910824    0   0   0
P                1.9122808731        9.1033963050        7.2173607613    0   0   0
P                4.2159980376        5.9505261806       10.2027763372    0   0   0
P                2.6546169098        0.8591972239       10.2283303116    0   0   0
P                0.3619242519        3.9045525432        7.2190763494    0   0   0
O                1.2036838524        8.4272438680        8.5052521184    0   0   0
O                3.4908594272        6.6070736456        8.9170848147    0   0   0
O                3.3665734522        1.5317059583        8.9373367535    0   0   0
O                1.0719826629        3.2671856475        8.5242565260    0   0   0
O                1.3843584724        8.2616841471        6.0256206039    0   0   0
O                3.6610322847        6.7741729017       11.3943375015    0   0   0
O                3.2083661661        1.6483492612       11.4336134640    0   0   0
O                0.8980336260        3.1100721707        6.0140979227    0   0   0
O                0.9070304683        5.3599334065        7.2594010652    0   0   0
O                3.1870699093        9.5847542147       10.1494340391    0   0   0
O                3.4373778089        3.8725200731        7.3188449707    0   0   0
O                1.1269987174        0.9116358839       10.1328903704    0   0   0
O                1.1379920588        6.0211801669       10.1144969906    0   0   0
O                3.6884944322        4.4881192592       10.1758874244    0   0   0
O                1.3600796965        0.3668542279        7.2516081594    0   0   0
O                3.4345382286        9.0669591473        7.3057765327    0   0   0
Ni               2.2162947113        7.7473428066        4.2400449238    0   0   0
Mn               4.5223106990        7.0817977756        1.1513197779    0   0   0
Ni               0.0344630106        2.6099387368        4.2562903713    0   0   0
Ni               2.3540954567        2.0048139114        1.1858535986    0   0   0
Ni               4.5703032998        9.9940255404        2.7089248952    0   0   0
Ni               2.2851754429        4.8284560302        2.7186931597    0   0   0
P                1.9054061377        9.0120241003        1.2132628386    0   0   0
P                4.2091233022        5.8591539759        4.1986784145    0   0   0
P                2.6477421744        0.7678250192        4.2242323889    0   0   0
P                0.3550495165        3.8131803385        1.2149784268    0   0   0
O                1.1968091169        8.3358716633        2.5011541957    0   0   0
O                3.4839846918        6.5157014409        2.9129868921    0   0   0
O                3.3596987168        1.4403337535        2.9332388308    0   0   0
O                1.0651079275        3.1758134427        2.5201586033    0   0   0
O                1.3774837370        8.1703119424        0.0215226813    0   0   0
O                3.6541575493        6.6828006969        5.3902395788    0   0   0
O                3.2014914307        1.5569770565        5.4295155413    0   0   0
O                0.8911588906        3.0186999659        0.0100000000    0   0   0
O                0.9001557329        5.2685612018        1.2553031425    0   0   0
O                3.1801951739        9.4933820100        4.1453361164    0   0   0
O                3.4305030735        3.7811478683        1.3147470481    0   0   0
O                1.1201239820        0.8202636792        4.1287924477    0   0   0
O                1.1311173233        5.9298079622        4.1103990679    0   0   0
O                3.6816196968        4.3967470545        4.1717895017    0   0   0
O                1.3532049611        0.2754820232        1.2475102367    0   0   0
O                3.4276634932        8.9755869426        1.3016786101    0   0   0
Ni               6.9296766759        7.9405680893       16.0925412290
Mn               9.0836276077        7.3134239590       13.1608873078
Ni               4.5790552957        2.8292284512       16.0659985235
Ni               6.9724770524        2.2527746503       13.1708209905
Ni               9.1626045909       10.2066424806       14.7157330646
Ni               6.9378534066        5.0775678152       14.7541003620
P                6.5153396089        9.2546240982       13.1889337492
P                8.8839021815        6.1386348047       16.2750458878
P                7.2226313738        1.0544617527       16.2187296039
P                4.9828343332        4.0876708469       13.1911175356
O                5.8333961898        8.5813607565       14.4774109142
O                8.1542453465        6.7173949963       14.9197599462
O                7.9413057598        1.6235525201       14.8465385828
O                5.6995637385        3.4329497166       14.4773135933
O                5.9858434535        8.4092551426       12.0059092748
O                8.3278916196        7.0580350897       17.3498456396
O                7.7742206725        1.9827954809       17.2896224032
O                5.5278110776        3.2714513173       11.9981381550
O                5.5346170622        5.5441963355       13.2381453376
O                7.7375804205        9.7621586730       16.2205042386
O                8.0534679893        4.0428814121       13.3133263655
O                5.6797095239        1.0892401239       16.0797548657
O                5.8186096035        6.1892812488       16.1081150638
O                8.3716699531        4.6549880893       16.2403560040
O                5.9516869279        0.5118504797       13.2134801655
O                8.0502237076        9.1820623734       13.2981188699
Ni               6.8287916588        7.8387150113       10.2441428465    0   0   0
Mn               9.1348076465        7.1731699804        7.1554177006    0   0   0
Ni               4.6469599580        2.7013109415       10.2603882940    0   0   0
Ni               6.9665924042        2.0961861161        7.1899515213    0   0   0
Ni               9.1828002472       10.0853977451        8.7130228178    0   0   0
Ni               6.8976723903        4.9198282349        8.7227910824    0   0   0
P                6.5179030852        9.1033963050        7.2173607613    0   0   0
P                8.8216202497        5.9505261806       10.2027763372    0   0   0
P                7.2602391219        0.8591972239       10.2283303116    0   0   0
P                4.9675464640        3.9045525432        7.2190763494    0   0   0
O                5.8093060644        8.4272438680        8.5052521184    0   0   0
O                8.0964816393        6.6070736456        8.9170848147    0   0   0
O                7.9721956643        1.5317059583        8.9373367535    0   0   0
O                5.6776048750        3.2671856475        8.5242565260    0   0   0
O                5.9899806845        8.2616841471        6.0256206039    0   0   0
O                8.2666544968        6.7741729017       11.3943375015    0   0   0
O                7.8139883782        1.6483492612       11.4336134640    0   0   0
O                5.5036558380        3.1100721707        6.0140979227    0   0   0
O                5.5126526804        5.3599334065        7.2594010652    0   0   0
O                7.7926921213        9.5847542147       10.1494340391    0   0   0
O                8.0430000209        3.8725200731        7.3188449707    0   0   0
O                5.7326209294        0.9116358839       10.1328903704    0   0   0
O                5.7436142708        6.0211801669       10.1144969906    0   0   0
O                8.2941166443        4.4881192592       10.1758874244    0   0   0
O                5.9657019086        0.3668542279        7.2516081594    0   0   0
O                8.0401604407        9.0669591473        7.3057765327    0   0   0
Ni               6.8219169233        7.7473428066        4.2400449238    0   0   0
Mn               9.1279329110        7.0817977756        1.1513197779    0   0   0
Ni               4.6400852226        2.6099387368        4.2562903713    0   0   0
Ni               6.9597176688        2.0048139114        1.1858535986    0   0   0
Ni               9.1759255118        9.9940255404        2.7089248952    0   0   0
Ni               6.8907976549        4.8284560302        2.7186931597    0   0   0
P                6.5110283498        9.0120241003        1.2132628386    0   0   0
P                8.8147455142        5.8591539759        4.1986784145    0   0   0
P                7.2533643865        0.7678250192        4.2242323889    0   0   0
P                4.9606717285        3.8131803385        1.2149784268    0   0   0
O                5.8024313290        8.3358716633        2.5011541957    0   0   0
O                8.0896069039        6.5157014409        2.9129868921    0   0   0
O                7.9653209289        1.4403337535        2.9332388308    0   0   0
O                5.6707301395        3.1758134427        2.5201586033    0   0   0
O                5.9831059490        8.1703119424        0.0215226813    0   0   0
O                8.2597797614        6.6828006969        5.3902395788    0   0   0
O                7.8071136427        1.5569770565        5.4295155413    0   0   0
O                5.4967811026        3.0186999659        0.0100000000    0   0   0
O                5.5057779450        5.2685612018        1.2553031425    0   0   0
O                7.7858173859        9.4933820100        4.1453361164    0   0   0
O                8.0361252855        3.7811478683        1.3147470481    0   0   0
O                5.7257461940        0.8202636792        4.1287924477    0   0   0
O                5.7367395354        5.9298079622        4.1103990679    0   0   0
O                8.2872419088        4.3967470545        4.1717895017    0   0   0
O                5.9588271731        0.2754820232        1.2475102367    0   0   0
O                8.0332857052        8.9755869426        1.3016786101    0   0   0
End final coordinates



     Writing all to output data dir ./tmp/pwscf.save/
 
     init_run     :      8.30s CPU      9.09s WALL (       1 calls)
     electrons    :  12242.29s CPU  12843.78s WALL (      38 calls)
     update_pot   :     18.23s CPU     20.54s WALL (      37 calls)
     forces       :    173.76s CPU    191.21s WALL (      38 calls)
     force_london :      4.27s CPU      4.28s WALL (      38 calls)

     Called by init_run:
     wfcinit      :      4.79s CPU      5.04s WALL (       1 calls)
     potinit      :      0.64s CPU      0.88s WALL (       1 calls)
     hinit0       :      1.38s CPU      1.47s WALL (       1 calls)

     Called by electrons:
     c_bands      :   9507.82s CPU   9761.69s WALL (     782 calls)
     sum_band     :   1639.65s CPU   1771.32s WALL (     782 calls)
     v_of_rho     :    334.72s CPU    401.49s WALL (     797 calls)
     newd         :    525.47s CPU    635.55s WALL (     797 calls)
     mix_rho      :    236.96s CPU    238.34s WALL (     782 calls)
     energy_londo :      3.93s CPU      3.94s WALL (      38 calls)

     Called by c_bands:
     init_us_2    :     30.67s CPU     31.15s WALL (    3206 calls)
     init_us_2:cp :     30.64s CPU     31.14s WALL (    3206 calls)
     regterg      :   9316.68s CPU   9564.84s WALL (    1565 calls)

     Called by *egterg:
     rdiaghg      :   2137.31s CPU   2251.38s WALL (    5144 calls)
     h_psi        :   3790.45s CPU   3854.90s WALL (    5266 calls)
     s_psi        :    621.63s CPU    622.49s WALL (    5266 calls)
     g_psi        :      4.69s CPU      4.74s WALL (    3699 calls)

     Called by h_psi:
     h_psi:calbec :    883.70s CPU    934.37s WALL (    5266 calls)
     vloc_psi     :   2273.16s CPU   2282.27s WALL (    5266 calls)
     add_vuspsi   :    623.33s CPU    627.86s WALL (    5266 calls)

     General routines
     calbec       :   1357.46s CPU   1436.95s WALL (    7134 calls)
     fft          :    440.37s CPU    518.19s WALL (   14900 calls)
     ffts         :    139.34s CPU    139.76s WALL (   91059 calls)
     fftw         :   2523.45s CPU   2533.00s WALL ( 2668662 calls)
     interpolate  :     21.63s CPU     22.68s WALL (    1594 calls)
 
     Parallel routines
 
     PWSCF        :      3h28m CPU      3h39m WALL

 
   This run was terminated on:  20:26:58   8Nov2025            

=------------------------------------------------------------------------------=
   JOB DONE.
=------------------------------------------------------------------------------=
