
     Program PWSCF v.7.2 starts on 17Nov2025 at 10:27:22 

     This program is part of the open-source Quantum ESPRESSO suite
     for quantum simulation of materials; please cite
         "P. Giannozzi et al., J. Phys.:Condens. Matter 21 395502 (2009);
         "P. Giannozzi et al., J. Phys.:Condens. Matter 29 465901 (2017);
         "P. Giannozzi et al., J. Chem. Phys. 152 154105 (2020);
          URL http://www.quantum-espresso.org", 
     in publications or presentations arising from this work. More details at
     http://www.quantum-espresso.org/quote

     Parallel version (MPI), running on    64 processors

     MPI processes distributed on     4 nodes
     439625 MiB available memory on the printing compute node when the environment starts
 
     Reading input from PW.in

     Current dimensions of program PWSCF are:
     Max number of different atomic species (ntypx) = 10
     Max number of k-points (npk) =  40000
     Max angular momentum in pseudopotentials (lmaxx) =  4
     Presently no symmetry can be used with electric field

     Presently stress not available with electric field and gates

     file Ni.pbe-n-rrkjus_psl.1.0.0.UPF: wavefunction(s)  3D renormalized
     file Mn.pbe-spn-rrkjus_psl.0.3.1.UPF: wavefunction(s)  3D renormalized
     file O.pbe-rrkjus.UPF: wavefunction(s)  2S renormalized
     file H.pbe-rrkjus.UPF: wavefunction(s)  1S renormalized

     gamma-point specific algorithms are used
 
     R & G space division:  proc/nbgrp/npool/nimage =      64
     Subspace diagonalization in iterative solution of the eigenvalue problem:
     one sub-group per band group will be used
     custom distributed-memory algorithm (size of sub-group:  6*  6 procs)

 
     Parallelization info
     --------------------
     sticks:   dense  smooth     PW     G-vecs:    dense   smooth      PW
     Min         208      82     20                59912    15118    1876
     Max         210      84     22                59974    15196    1926
     Sum       13399    5355   1345              3836275   970529  121367
 
     Using Slab Decomposition
 


     bravais-lattice index     =            0
     lattice parameter (alat)  =      17.7004  a.u.
     unit-cell volume          =   20319.7251 (a.u.)^3
     number of atoms/cell      =          156
     number of atomic types    =            5
     number of electrons       =      1071.00
     number of Kohn-Sham states=          643
     kinetic-energy cutoff     =      50.0000  Ry
     charge density cutoff     =     500.0000  Ry
     scf convergence threshold =      1.0E-06
     mixing beta               =       0.1000
     number of iterations used =            8  local-TF  mixing
     energy convergence thresh.=      1.0E-04
     force convergence thresh. =      1.0E-03
     Exchange-correlation=  SLA  PW   PBE  PBE
                           (   1   4   3   4   0   0   0)
     nstep                     =         1000


     celldm(1)=  17.700384  celldm(2)=   0.000000  celldm(3)=   0.000000
     celldm(4)=   0.000000  celldm(5)=   0.000000  celldm(6)=   0.000000

     crystal axes: (cart. coord. in units of alat)
               a(1) = (   1.000000   0.000000   0.000000 )  
               a(2) = (   0.000000   1.075730   0.000000 )  
               a(3) = (   0.000000   0.000000   3.406172 )  

     reciprocal axes: (cart. coord. in units 2 pi/alat)
               b(1) = (  1.000000  0.000000  0.000000 )  
               b(2) = (  0.000000  0.929602  0.000000 )  
               b(3) = (  0.000000  0.000000  0.293585 )  


     PseudoPot. # 1 for Ni read from file:
     ~/PSEUDO/Ni.pbe-n-rrkjus_psl.1.0.0.UPF
     MD5 check sum: Not computed, couldn't open file
     Pseudo is Ultrasoft + core correction, Zval = 10.0
     Generated using "atomic" code by A. Dal Corso  v.5.1.2
     Using radial grid of 1195 points,  6 beta functions with: 
                l(1) =   0
                l(2) =   0
                l(3) =   1
                l(4) =   1
                l(5) =   2
                l(6) =   2
     Q(r) pseudized with 0 coefficients 


     PseudoPot. # 2 for Mn read from file:
     ~/PSEUDO/Mn.pbe-spn-rrkjus_psl.0.3.1.UPF
     MD5 check sum: Not computed, couldn't open file
     Pseudo is Ultrasoft + core correction, Zval = 15.0
     Generated using &quot;atomic&quot; code by A. Dal Corso  v.6.2.2
     Using radial grid of 1187 points,  6 beta functions with: 
                l(1) =   0
                l(2) =   0
                l(3) =   1
                l(4) =   1
                l(5) =   2
                l(6) =   2
     Q(r) pseudized with 0 coefficients 


     PseudoPot. # 3 for P  read from file:
     ~/PSEUDO/P.pbe-n-rrkjus_psl.1.0.0.UPF
     MD5 check sum: Not computed, couldn't open file
     Pseudo is Ultrasoft + core correction, Zval =  5.0
     Generated using "atomic" code by A. Dal Corso  v.5.1
     Using radial grid of 1147 points,  6 beta functions with: 
                l(1) =   0
                l(2) =   0
                l(3) =   1
                l(4) =   1
                l(5) =   2
                l(6) =   2
     Q(r) pseudized with 0 coefficients 


     PseudoPot. # 4 for O  read from file:
     ~/PSEUDO/O.pbe-rrkjus.UPF
     MD5 check sum: Not computed, couldn't open file
     Pseudo is Ultrasoft, Zval =  6.0
     Generated by new atomic code, or converted to UPF format
     Using radial grid of 1269 points,  4 beta functions with: 
                l(1) =   0
                l(2) =   0
                l(3) =   1
                l(4) =   1
     Q(r) pseudized with 0 coefficients 


     PseudoPot. # 5 for H  read from file:
     ~/PSEUDO/H.pbe-rrkjus.UPF
     MD5 check sum: Not computed, couldn't open file
     Pseudo is Ultrasoft, Zval =  1.0
     Generated by new atomic code, or converted to UPF format
     Using radial grid of 1061 points,  2 beta functions with: 
                l(1) =   0
                l(2) =   0
     Q(r) pseudized with 0 coefficients 


     atomic species   valence    mass     pseudopotential
     Ni               10.00    58.69300     Ni( 1.00)
     Mn               15.00    54.93800     Mn( 1.00)
     P                 5.00    30.97300     P ( 1.00)
     O                 6.00    15.99900     O ( 1.00)
     H                 1.00     1.00790     H ( 1.00)

     Starting magnetic structure 
     atomic species   magnetization
     Ni              1.000
     Mn              1.000
     P               1.000
     O               1.000
     H               0.000

     No symmetry found



   Cartesian axes

     site n.     atom                  positions (alat units)
         1        Mn     tau(   1) = (   0.2404744   0.8371250   0.1168501  )
         2        Ni     tau(   2) = (   0.4968126   0.7726670   0.4415546  )
         3        Ni     tau(   3) = (   0.0066150   0.2936743   0.1241053  )
         4        Ni     tau(   4) = (   0.2585722   0.2355858   0.4448848  )
         5        Ni     tau(   5) = (   0.9987350   1.0696411   0.2854926  )
         6        Ni     tau(   6) = (   0.2517397   0.5330511   0.2829322  )
         7        Ni     tau(   7) = (   0.7451645   0.8337543   0.1221751  )
         8        Ni     tau(   8) = (   0.9939181   0.7738804   0.4407595  )
         9        Ni     tau(   9) = (   0.5111533   0.2924088   0.1251865  )
        10        Ni     tau(  10) = (   0.7606326   0.2319267   0.4451372  )
        11        Ni     tau(  11) = (   0.5024065   1.0688133   0.2870502  )
        12        Ni     tau(  12) = (   0.7529977   0.5317900   0.2845227  )
        13        P      tau(  13) = (   0.2092944   0.9731097   0.4345035  )
        14        P      tau(  14) = (   0.4655727   0.6359535   0.1274635  )
        15        P      tau(  15) = (   0.2910699   0.1027363   0.1296098  )
        16        P      tau(  16) = (   0.0396216   0.4288395   0.4398838  )
        17        O      tau(  17) = (   0.1294378   0.9013260   0.3010618  )
        18        O      tau(  18) = (   0.3874505   0.7054774   0.2637003  )
        19        O      tau(  19) = (   0.3702540   0.1714799   0.2660028  )
        20        O      tau(  20) = (   0.1184398   0.3582958   0.3038353  )
        21        O      tau(  21) = (   0.1451572   0.8850881   0.5587578  )
        22        O      tau(  22) = (   0.4048762   0.7245585   0.0017492  )
        23        O      tau(  23) = (   0.3523506   0.1900579   0.0035744  )
        24        O      tau(  24) = (   0.1017610   0.3410484   0.5656572  )
        25        O      tau(  25) = (   0.0975396   0.5849288   0.4357922  )
        26        O      tau(  26) = (   0.3483552   1.0314945   0.1270322  )
        27        O      tau(  27) = (   0.3784305   0.4225118   0.4308928  )
        28        O      tau(  28) = (   0.1268237   0.1067944   0.1392744  )
        29        O      tau(  29) = (   0.1212267   0.6424170   0.1362896  )
        30        O      tau(  30) = (   0.4053315   0.4809387   0.1300622  )
        31        O      tau(  31) = (   0.1536621   0.0446918   0.4373386  )
        32        O      tau(  32) = (   0.3732349   0.9631717   0.4256642  )
        33        P      tau(  33) = (   0.7119823   0.9695974   0.4373010  )
        34        P      tau(  34) = (   0.9615208   0.6363392   0.1262932  )
        35        P      tau(  35) = (   0.7927710   0.0970060   0.1292164  )
        36        P      tau(  36) = (   0.5426404   0.4269675   0.4410738  )
        37        O      tau(  37) = (   0.6326879   0.8991182   0.3013240  )
        38        O      tau(  38) = (   0.8842163   0.7083206   0.2625155  )
        39        O      tau(  39) = (   0.8716178   0.1677751   0.2653504  )
        40        O      tau(  40) = (   0.6212010   0.3558666   0.3051085  )
        41        O      tau(  41) = (   0.6507714   0.8812342   0.5631722  )
        42        O      tau(  42) = (   0.9014054   0.7264458   0.0010676  )
        43        O      tau(  43) = (   0.8548963   0.1847909   0.0035471  )
        44        O      tau(  44) = (   0.6044469   0.3378706   0.5660366  )
        45        O      tau(  45) = (   0.6024424   0.5823140   0.4379016  )
        46        O      tau(  46) = (   0.8498940   1.0254482   0.1275156  )
        47        O      tau(  47) = (   0.8798395   0.4205825   0.4305771  )
        48        O      tau(  48) = (   0.6286921   0.1034636   0.1397346  )
        49        O      tau(  49) = (   0.6294973   0.6427753   0.1372553  )
        50        O      tau(  50) = (   0.9024339   0.4810312   0.1296418  )
        51        O      tau(  51) = (   0.6547812   0.0410987   0.4396636  )
        52        O      tau(  52) = (   0.8760507   0.9632605   0.4264507  )
        53        Mn     tau(  53) = (   0.2404744   0.8246335   0.7367378  )
        54        Ni     tau(  54) = (   0.4968126   0.7601755   1.0614423  )
        55        Ni     tau(  55) = (   0.0066150   0.2811828   0.7439929  )
        56        Ni     tau(  56) = (   0.2585722   0.2230943   1.0647725  )
        57        Ni     tau(  57) = (   0.9987350   1.0571496   0.9053803  )
        58        Ni     tau(  58) = (   0.2517397   0.5205596   0.9028199  )
        59        Ni     tau(  59) = (   0.7451645   0.8212628   0.7420628  )
        60        Ni     tau(  60) = (   0.9939181   0.7613889   1.0606471  )
        61        Ni     tau(  61) = (   0.5111533   0.2799173   0.7450742  )
        62        Ni     tau(  62) = (   0.7606326   0.2194352   1.0650249  )
        63        Ni     tau(  63) = (   0.5024065   1.0563218   0.9069379  )
        64        Ni     tau(  64) = (   0.7529977   0.5192985   0.9044104  )
        65        P      tau(  65) = (   0.2092944   0.9606182   1.0543912  )
        66        P      tau(  66) = (   0.4655727   0.6234620   0.7473512  )
        67        P      tau(  67) = (   0.2910699   0.0902448   0.7494974  )
        68        P      tau(  68) = (   0.0396216   0.4163480   1.0597715  )
        69        O      tau(  69) = (   0.1294378   0.8888345   0.9209495  )
        70        O      tau(  70) = (   0.3874505   0.6929859   0.8835880  )
        71        O      tau(  71) = (   0.3702540   0.1589885   0.8858904  )
        72        O      tau(  72) = (   0.1184398   0.3458043   0.9237230  )
        73        O      tau(  73) = (   0.1451572   0.8725966   1.1786454  )
        74        O      tau(  74) = (   0.4048762   0.7120670   0.6216369  )
        75        O      tau(  75) = (   0.3523506   0.1775664   0.6234620  )
        76        O      tau(  76) = (   0.1017610   0.3285569   1.1855448  )
        77        O      tau(  77) = (   0.0975396   0.5724373   1.0556799  )
        78        O      tau(  78) = (   0.3483552   1.0190030   0.7469198  )
        79        O      tau(  79) = (   0.3784305   0.4100203   1.0507804  )
        80        O      tau(  80) = (   0.1268237   0.0943029   0.7591620  )
        81        O      tau(  81) = (   0.1212267   0.6299255   0.7561772  )
        82        O      tau(  82) = (   0.4053315   0.4684472   0.7499499  )
        83        O      tau(  83) = (   0.1536621   0.0322003   1.0572263  )
        84        O      tau(  84) = (   0.3732349   0.9506802   1.0455518  )
        85        P      tau(  85) = (   0.7119823   0.9571059   1.0571887  )
        86        P      tau(  86) = (   0.9615208   0.6238477   0.7461808  )
        87        P      tau(  87) = (   0.7927710   0.0845145   0.7491041  )
        88        P      tau(  88) = (   0.5426404   0.4144760   1.0609615  )
        89        O      tau(  89) = (   0.6326879   0.8866267   0.9212117  )
        90        O      tau(  90) = (   0.8842163   0.6958291   0.8824032  )
        91        O      tau(  91) = (   0.8716178   0.1552836   0.8852381  )
        92        O      tau(  92) = (   0.6212010   0.3433751   0.9249961  )
        93        O      tau(  93) = (   0.6507714   0.8687427   1.1830599  )
        94        O      tau(  94) = (   0.9014054   0.7139543   0.6209553  )
        95        O      tau(  95) = (   0.8548963   0.1722994   0.6234348  )
        96        O      tau(  96) = (   0.6044469   0.3253792   1.1859242  )
        97        O      tau(  97) = (   0.6024424   0.5698225   1.0577892  )
        98        O      tau(  98) = (   0.8498940   1.0129567   0.7474033  )
        99        O      tau(  99) = (   0.8798395   0.4080910   1.0504647  )
       100        O      tau( 100) = (   0.6286921   0.0909721   0.7596222  )
       101        O      tau( 101) = (   0.6294973   0.6302838   0.7571429  )
       102        O      tau( 102) = (   0.9024339   0.4685397   0.7495295  )
       103        O      tau( 103) = (   0.6547812   0.0286072   1.0595512  )
       104        O      tau( 104) = (   0.8760507   0.9507690   1.0463383  )
       105        Mn     tau( 105) = (   0.2404744   0.8121420   1.3566254  )
       106        Ni     tau( 106) = (   0.4968126   0.7476840   1.6813299  )
       107        Ni     tau( 107) = (   0.0066150   0.2686914   1.3638806  )
       108        Ni     tau( 108) = (   0.2585722   0.2106028   1.6846602  )
       109        Ni     tau( 109) = (   0.9987350   1.0446581   1.5252680  )
       110        Ni     tau( 110) = (   0.2517397   0.5080681   1.5227075  )
       111        Ni     tau( 111) = (   0.7451645   0.8087713   1.3619504  )
       112        Ni     tau( 112) = (   0.9939181   0.7488974   1.6805348  )
       113        Ni     tau( 113) = (   0.5111533   0.2674258   1.3649619  )
       114        Ni     tau( 114) = (   0.7606326   0.2069438   1.6849125  )
       115        Ni     tau( 115) = (   0.5024065   1.0438304   1.5268255  )
       116        Ni     tau( 116) = (   0.7529977   0.5068070   1.5242981  )
       117        P      tau( 117) = (   0.2092944   0.9481267   1.6742788  )
       118        P      tau( 118) = (   0.4655727   0.6109705   1.3672389  )
       119        P      tau( 119) = (   0.2910699   0.0777534   1.3693851  )
       120        P      tau( 120) = (   0.0396216   0.4038566   1.6796592  )
       121        O      tau( 121) = (   0.1294378   0.8763430   1.5408371  )
       122        O      tau( 122) = (   0.3874505   0.6804944   1.5034756  )
       123        O      tau( 123) = (   0.3702540   0.1464970   1.5057781  )
       124        O      tau( 124) = (   0.1184398   0.3333129   1.5436106  )
       125        O      tau( 125) = (   0.1451572   0.8601051   1.7985331  )
       126        O      tau( 126) = (   0.4048762   0.6995756   1.2415245  )
       127        O      tau( 127) = (   0.3523506   0.1650749   1.2433497  )
       128        O      tau( 128) = (   0.1017610   0.3160655   1.8054325  )
       129        O      tau( 129) = (   0.0975396   0.5599458   1.6755675  )
       130        O      tau( 130) = (   0.3483552   1.0065115   1.3668075  )
       131        O      tau( 131) = (   0.3784305   0.3975288   1.6706681  )
       132        O      tau( 132) = (   0.1268237   0.0818115   1.3790497  )
       133        O      tau( 133) = (   0.1212267   0.6174340   1.3760649  )
       134        O      tau( 134) = (   0.4053315   0.4559557   1.3698375  )
       135        O      tau( 135) = (   0.1536621   0.0197088   1.6771139  )
       136        O      tau( 136) = (   0.3732349   0.9381887   1.6654395  )
       137        P      tau( 137) = (   0.7119823   0.9446144   1.6770764  )
       138        P      tau( 138) = (   0.9615208   0.6113562   1.3660685  )
       139        P      tau( 139) = (   0.7927710   0.0720230   1.3689918  )
       140        P      tau( 140) = (   0.5426404   0.4019845   1.6808491  )
       141        O      tau( 141) = (   0.6326879   0.8741353   1.5410994  )
       142        O      tau( 142) = (   0.8842163   0.6833376   1.5022908  )
       143        O      tau( 143) = (   0.8716178   0.1427921   1.5051257  )
       144        O      tau( 144) = (   0.6212010   0.3308836   1.5448838  )
       145        O      tau( 145) = (   0.6507714   0.8562512   1.8029475  )
       146        O      tau( 146) = (   0.9014054   0.7014628   1.2408429  )
       147        O      tau( 147) = (   0.8548963   0.1598079   1.2433225  )
       148        O      tau( 148) = (   0.6044469   0.3128877   1.8058119  )
       149        O      tau( 149) = (   0.6024424   0.5573310   1.6776769  )
       150        O      tau( 150) = (   0.8498940   1.0004653   1.3672909  )
       151        O      tau( 151) = (   0.8798395   0.3955995   1.6703524  )
       152        O      tau( 152) = (   0.6286921   0.0784807   1.3795099  )
       153        O      tau( 153) = (   0.6294973   0.6177923   1.3770306  )
       154        O      tau( 154) = (   0.9024339   0.4560482   1.3694171  )
       155        O      tau( 155) = (   0.6547812   0.0161158   1.6794389  )
       156        O      tau( 156) = (   0.8760507   0.9382775   1.6662260  )

     -------------------------------------------------
     Parameters for Dispersion (Grimme-D2) Correction:
     -------------------------------------------------
       atom      VdW radius       C_6     

        Ni         2.952        374.666
        Mn         2.952        374.666
        P          3.222        271.980
        O          2.536         24.284
        H          1.892          4.857

     number of k points=     1  Gaussian smearing, width (Ry)=  0.0100
                       cart. coord. in units 2pi/alat
        k(    1) = (   0.0000000   0.0000000   0.0000000), wk =   1.0000000

     Dense  grid:  1918138 G-vectors     FFT dimensions: ( 125, 135, 432)

     Smooth grid:   485265 G-vectors     FFT dimensions: (  80,  90, 288)

     Estimated max dynamical RAM per process >     318.42 MB

     Estimated total dynamical RAM >      19.90 GB
     Generating pointlists ...
     new r_m :   0.0866 (alat units)  1.5324 (a.u.) for type    1
     new r_m :   0.0869 (alat units)  1.5388 (a.u.) for type    2
     new r_m :   0.0650 (alat units)  1.1499 (a.u.) for type    3
     new r_m :   0.0650 (alat units)  1.1499 (a.u.) for type    4
     new r_m :   0.4125 (alat units)  7.3014 (a.u.) for type    5

     Initial potential from superposition of free atoms

     starting charge    1070.9862, renormalised to    1071.0000

     negative rho (up, down):  1.326E-03 2.643E-13
 
     Adding external electric field

     Computed dipole along edir(3) : 
        Dipole               -0.0016 Ry au,         -0.0041 Debye
        Dipole field         -0.0000 Ry au, 
 
        Potential amp.        0.0001 Ry
        Total length         54.2615 bohr
 
 
     Adding external electric field

     Computed dipole along edir(3) : 
        Dipole               -0.0016 Ry au,         -0.0041 Debye
        Dipole field         -0.0000 Ry au, 
 
        Potential amp.        0.0001 Ry
        Total length         54.2615 bohr
 
     Starting wfcs are  807 randomized atomic wfcs

     total cpu time spent up to now is        9.0 secs

     Self-consistent Calculation

     iteration #  1     ecut=    50.00 Ry     beta= 0.10
     Davidson diagonalization with overlap
     ethr =  1.00E-02,  avg # of iterations =  6.0

     negative rho (up, down):  3.298E-01 0.000E+00
 
     Adding external electric field

     Computed dipole along edir(3) : 
        Dipole               -1.6863 Ry au,         -4.2861 Debye
        Dipole field         -0.0010 Ry au, 
 
        Potential amp.        0.1132 Ry
        Total length         54.2615 bohr
 
 
     Adding external electric field

     Computed dipole along edir(3) : 
        Dipole               -1.6863 Ry au,         -4.2861 Debye
        Dipole field         -0.0010 Ry au, 
 
        Potential amp.        0.1132 Ry
        Total length         54.2615 bohr
 

     total cpu time spent up to now is       29.9 secs

     total energy              =   -7146.81834248 Ry
     estimated scf accuracy    <     259.34380987 Ry

     total magnetization       =   215.00 Bohr mag/cell
     absolute magnetization    =   299.87 Bohr mag/cell

     iteration #  2     ecut=    50.00 Ry     beta= 0.10
     Davidson diagonalization with overlap
     ethr =  1.00E-02,  avg # of iterations =  2.0

     negative rho (up, down):  3.168E-01 0.000E+00
 
     Adding external electric field

     Computed dipole along edir(3) : 
        Dipole               -1.3223 Ry au,         -3.3610 Debye
        Dipole field         -0.0008 Ry au, 
 
        Potential amp.        0.0887 Ry
        Total length         54.2615 bohr
 
 
     Adding external electric field

     Computed dipole along edir(3) : 
        Dipole               -1.3223 Ry au,         -3.3610 Debye
        Dipole field         -0.0008 Ry au, 
 
        Potential amp.        0.0887 Ry
        Total length         54.2615 bohr
 

     total cpu time spent up to now is       42.1 secs

     total energy              =   -7230.03827200 Ry
     estimated scf accuracy    <     152.25319112 Ry

     total magnetization       =   142.61 Bohr mag/cell
     absolute magnetization    =   194.40 Bohr mag/cell

     iteration #  3     ecut=    50.00 Ry     beta= 0.10
     Davidson diagonalization with overlap
     ethr =  1.00E-02,  avg # of iterations =  1.5

     negative rho (up, down):  2.988E-01 0.000E+00
 
     Adding external electric field

     Computed dipole along edir(3) : 
        Dipole               -0.6565 Ry au,         -1.6686 Debye
        Dipole field         -0.0004 Ry au, 
 
        Potential amp.        0.0441 Ry
        Total length         54.2615 bohr
 
 
     Adding external electric field

     Computed dipole along edir(3) : 
        Dipole               -0.6565 Ry au,         -1.6686 Debye
        Dipole field         -0.0004 Ry au, 
 
        Potential amp.        0.0441 Ry
        Total length         54.2615 bohr
 

     total cpu time spent up to now is       52.3 secs

     total energy              =   -7269.15103324 Ry
     estimated scf accuracy    <     107.28477732 Ry

     total magnetization       =   122.01 Bohr mag/cell
     absolute magnetization    =   174.49 Bohr mag/cell

     iteration #  4     ecut=    50.00 Ry     beta= 0.10
     Davidson diagonalization with overlap
     ethr =  1.00E-02,  avg # of iterations =  1.0

     negative rho (up, down):  2.619E-01 0.000E+00
 
     Adding external electric field

     Computed dipole along edir(3) : 
        Dipole               -0.7063 Ry au,         -1.7951 Debye
        Dipole field         -0.0004 Ry au, 
 
        Potential amp.        0.0474 Ry
        Total length         54.2615 bohr
 
 
     Adding external electric field

     Computed dipole along edir(3) : 
        Dipole               -0.7063 Ry au,         -1.7951 Debye
        Dipole field         -0.0004 Ry au, 
 
        Potential amp.        0.0474 Ry
        Total length         54.2615 bohr
 

     total cpu time spent up to now is       61.6 secs

     total energy              =   -7286.05509545 Ry
     estimated scf accuracy    <      75.56828862 Ry

     total magnetization       =   102.03 Bohr mag/cell
     absolute magnetization    =   156.82 Bohr mag/cell

     iteration #  5     ecut=    50.00 Ry     beta= 0.10
     Davidson diagonalization with overlap
     ethr =  7.06E-03,  avg # of iterations =  1.0

     negative rho (up, down):  1.100E-01 1.394E-04
 
     Adding external electric field

     Computed dipole along edir(3) : 
        Dipole                0.2241 Ry au,          0.5696 Debye
        Dipole field          0.0001 Ry au, 
 
        Potential amp.       -0.0150 Ry
        Total length         54.2615 bohr
 
 
     Adding external electric field

     Computed dipole along edir(3) : 
        Dipole                0.2241 Ry au,          0.5696 Debye
        Dipole field          0.0001 Ry au, 
 
        Potential amp.       -0.0150 Ry
        Total length         54.2615 bohr
 

     total cpu time spent up to now is       70.9 secs

     total energy              =   -7348.06568163 Ry
     estimated scf accuracy    <      68.24268556 Ry

     total magnetization       =    89.59 Bohr mag/cell
     absolute magnetization    =   145.84 Bohr mag/cell

     iteration #  6     ecut=    50.00 Ry     beta= 0.10
     Davidson diagonalization with overlap
     ethr =  6.37E-03,  avg # of iterations =  1.5

     negative rho (up, down):  3.150E-02 3.202E-02
 
     Adding external electric field

     Computed dipole along edir(3) : 
        Dipole                0.8393 Ry au,          2.1333 Debye
        Dipole field          0.0005 Ry au, 
 
        Potential amp.       -0.0563 Ry
        Total length         54.2615 bohr
 
 
     Adding external electric field

     Computed dipole along edir(3) : 
        Dipole                0.8393 Ry au,          2.1333 Debye
        Dipole field          0.0005 Ry au, 
 
        Potential amp.       -0.0563 Ry
        Total length         54.2615 bohr
 

     total cpu time spent up to now is       81.2 secs

     total energy              =   -7362.38119557 Ry
     estimated scf accuracy    <      15.46374202 Ry

     total magnetization       =    81.00 Bohr mag/cell
     absolute magnetization    =   116.85 Bohr mag/cell

     iteration #  7     ecut=    50.00 Ry     beta= 0.10
     Davidson diagonalization with overlap
     ethr =  1.44E-03,  avg # of iterations =  6.0

     negative rho (up, down):  3.139E-02 3.183E-02
 
     Adding external electric field

     Computed dipole along edir(3) : 
        Dipole                0.8346 Ry au,          2.1212 Debye
        Dipole field          0.0005 Ry au, 
 
        Potential amp.       -0.0560 Ry
        Total length         54.2615 bohr
 
 
     Adding external electric field

     Computed dipole along edir(3) : 
        Dipole                0.8346 Ry au,          2.1212 Debye
        Dipole field          0.0005 Ry au, 
 
        Potential amp.       -0.0560 Ry
        Total length         54.2615 bohr
 

     total cpu time spent up to now is       96.9 secs

     total energy              =   -7364.48232227 Ry
     estimated scf accuracy    <       9.85183476 Ry

     total magnetization       =    70.99 Bohr mag/cell
     absolute magnetization    =    87.26 Bohr mag/cell

     iteration #  8     ecut=    50.00 Ry     beta= 0.10
     Davidson diagonalization with overlap
     ethr =  9.20E-04,  avg # of iterations =  1.0

     negative rho (up, down):  3.254E-02 3.262E-02
 
     Adding external electric field

     Computed dipole along edir(3) : 
        Dipole                0.8659 Ry au,          2.2010 Debye
        Dipole field          0.0005 Ry au, 
 
        Potential amp.       -0.0581 Ry
        Total length         54.2615 bohr
 
 
     Adding external electric field

     Computed dipole along edir(3) : 
        Dipole                0.8659 Ry au,          2.2010 Debye
        Dipole field          0.0005 Ry au, 
 
        Potential amp.       -0.0581 Ry
        Total length         54.2615 bohr
 

     total cpu time spent up to now is      106.7 secs

     total energy              =   -7364.62089520 Ry
     estimated scf accuracy    <       9.83594526 Ry

     total magnetization       =    71.00 Bohr mag/cell
     absolute magnetization    =    86.88 Bohr mag/cell

     iteration #  9     ecut=    50.00 Ry     beta= 0.10
     Davidson diagonalization with overlap
     ethr =  9.18E-04,  avg # of iterations =  1.0

     negative rho (up, down):  2.952E-02 3.092E-02
 
     Adding external electric field

     Computed dipole along edir(3) : 
        Dipole                0.8077 Ry au,          2.0529 Debye
        Dipole field          0.0005 Ry au, 
 
        Potential amp.       -0.0542 Ry
        Total length         54.2615 bohr
 
 
     Adding external electric field

     Computed dipole along edir(3) : 
        Dipole                0.8077 Ry au,          2.0529 Debye
        Dipole field          0.0005 Ry au, 
 
        Potential amp.       -0.0542 Ry
        Total length         54.2615 bohr
 

     total cpu time spent up to now is      116.1 secs

     total energy              =   -7364.41257847 Ry
     estimated scf accuracy    <      11.62245509 Ry

     total magnetization       =    70.37 Bohr mag/cell
     absolute magnetization    =    86.34 Bohr mag/cell

     iteration # 10     ecut=    50.00 Ry     beta= 0.10
     Davidson diagonalization with overlap
     ethr =  9.18E-04,  avg # of iterations =  1.0

     negative rho (up, down):  2.457E-02 2.686E-02
 
     Adding external electric field

     Computed dipole along edir(3) : 
        Dipole                0.6847 Ry au,          1.7403 Debye
        Dipole field          0.0004 Ry au, 
 
        Potential amp.       -0.0460 Ry
        Total length         54.2615 bohr
 
 
     Adding external electric field

     Computed dipole along edir(3) : 
        Dipole                0.6847 Ry au,          1.7403 Debye
        Dipole field          0.0004 Ry au, 
 
        Potential amp.       -0.0460 Ry
        Total length         54.2615 bohr
 

     total cpu time spent up to now is      125.5 secs

     total energy              =   -7364.21453421 Ry
     estimated scf accuracy    <       6.93279411 Ry

     total magnetization       =    71.97 Bohr mag/cell
     absolute magnetization    =    86.19 Bohr mag/cell

     iteration # 11     ecut=    50.00 Ry     beta= 0.10
     Davidson diagonalization with overlap
     ethr =  6.47E-04,  avg # of iterations =  2.0

     negative rho (up, down):  2.056E-02 2.744E-02
 
     Adding external electric field

     Computed dipole along edir(3) : 
        Dipole                0.6782 Ry au,          1.7239 Debye
        Dipole field          0.0004 Ry au, 
 
        Potential amp.       -0.0455 Ry
        Total length         54.2615 bohr
 
 
     Adding external electric field

     Computed dipole along edir(3) : 
        Dipole                0.6782 Ry au,          1.7239 Debye
        Dipole field          0.0004 Ry au, 
 
        Potential amp.       -0.0455 Ry
        Total length         54.2615 bohr
 

     total cpu time spent up to now is      137.7 secs

     total energy              =   -7364.56866476 Ry
     estimated scf accuracy    <       0.80491326 Ry

     total magnetization       =    80.77 Bohr mag/cell
     absolute magnetization    =    91.07 Bohr mag/cell

     iteration # 12     ecut=    50.00 Ry     beta= 0.10
     Davidson diagonalization with overlap
     ethr =  7.52E-05,  avg # of iterations = 13.0

     negative rho (up, down):  1.442E-02 2.236E-02
 
     Adding external electric field

     Computed dipole along edir(3) : 
        Dipole                0.5716 Ry au,          1.4529 Debye
        Dipole field          0.0004 Ry au, 
 
        Potential amp.       -0.0384 Ry
        Total length         54.2615 bohr
 
 
     Adding external electric field

     Computed dipole along edir(3) : 
        Dipole                0.5716 Ry au,          1.4529 Debye
        Dipole field          0.0004 Ry au, 
 
        Potential amp.       -0.0384 Ry
        Total length         54.2615 bohr
 

     total cpu time spent up to now is      157.5 secs

     total energy              =   -7364.65363661 Ry
     estimated scf accuracy    <       0.71857682 Ry

     total magnetization       =    80.19 Bohr mag/cell
     absolute magnetization    =    89.18 Bohr mag/cell

     iteration # 13     ecut=    50.00 Ry     beta= 0.10
     Davidson diagonalization with overlap
     ethr =  6.71E-05,  avg # of iterations =  1.5

     negative rho (up, down):  4.530E-03 6.869E-03
 
     Adding external electric field

     Computed dipole along edir(3) : 
        Dipole                0.2518 Ry au,          0.6400 Debye
        Dipole field          0.0002 Ry au, 
 
        Potential amp.       -0.0169 Ry
        Total length         54.2615 bohr
 
 
     Adding external electric field

     Computed dipole along edir(3) : 
        Dipole                0.2518 Ry au,          0.6400 Debye
        Dipole field          0.0002 Ry au, 
 
        Potential amp.       -0.0169 Ry
        Total length         54.2615 bohr
 

     total cpu time spent up to now is      168.4 secs

     total energy              =   -7364.79686832 Ry
     estimated scf accuracy    <       0.53690036 Ry

     total magnetization       =    80.18 Bohr mag/cell
     absolute magnetization    =    87.43 Bohr mag/cell

     iteration # 14     ecut=    50.00 Ry     beta= 0.10
     Davidson diagonalization with overlap
     c_bands:  5 eigenvalues not converged
     ethr =  5.01E-05,  avg # of iterations = 11.0

     negative rho (up, down):  9.412E-04 1.678E-03
 
     Adding external electric field

     Computed dipole along edir(3) : 
        Dipole                0.0485 Ry au,          0.1232 Debye
        Dipole field          0.0000 Ry au, 
 
        Potential amp.       -0.0033 Ry
        Total length         54.2615 bohr
 
 
     Adding external electric field

     Computed dipole along edir(3) : 
        Dipole                0.0485 Ry au,          0.1232 Debye
        Dipole field          0.0000 Ry au, 
 
        Potential amp.       -0.0033 Ry
        Total length         54.2615 bohr
 

     total cpu time spent up to now is      185.5 secs

     total energy              =   -7364.84015022 Ry
     estimated scf accuracy    <       0.32731938 Ry

     total magnetization       =    80.74 Bohr mag/cell
     absolute magnetization    =    84.92 Bohr mag/cell

     iteration # 15     ecut=    50.00 Ry     beta= 0.10
     Davidson diagonalization with overlap
     ethr =  3.06E-05,  avg # of iterations =  2.0

     negative rho (up, down):  3.405E-04 2.371E-04
 
     Adding external electric field

     Computed dipole along edir(3) : 
        Dipole               -0.1012 Ry au,         -0.2571 Debye
        Dipole field         -0.0001 Ry au, 
 
        Potential amp.        0.0068 Ry
        Total length         54.2615 bohr
 
 
     Adding external electric field

     Computed dipole along edir(3) : 
        Dipole               -0.1012 Ry au,         -0.2571 Debye
        Dipole field         -0.0001 Ry au, 
 
        Potential amp.        0.0068 Ry
        Total length         54.2615 bohr
 

     total cpu time spent up to now is      196.3 secs

     total energy              =   -7364.84884764 Ry
     estimated scf accuracy    <       0.13526271 Ry

     total magnetization       =    80.17 Bohr mag/cell
     absolute magnetization    =    82.90 Bohr mag/cell

     iteration # 16     ecut=    50.00 Ry     beta= 0.10
     Davidson diagonalization with overlap
     ethr =  1.26E-05,  avg # of iterations =  3.0

     negative rho (up, down):  2.361E-04 2.085E-04
 
     Adding external electric field

     Computed dipole along edir(3) : 
        Dipole               -0.1199 Ry au,         -0.3048 Debye
        Dipole field         -0.0001 Ry au, 
 
        Potential amp.        0.0080 Ry
        Total length         54.2615 bohr
 
 
     Adding external electric field

     Computed dipole along edir(3) : 
        Dipole               -0.1199 Ry au,         -0.3048 Debye
        Dipole field         -0.0001 Ry au, 
 
        Potential amp.        0.0080 Ry
        Total length         54.2615 bohr
 

     total cpu time spent up to now is      208.1 secs

     total energy              =   -7364.85929067 Ry
     estimated scf accuracy    <       0.17324295 Ry

     total magnetization       =    79.32 Bohr mag/cell
     absolute magnetization    =    81.83 Bohr mag/cell

     iteration # 17     ecut=    50.00 Ry     beta= 0.10
     Davidson diagonalization with overlap
     ethr =  1.26E-05,  avg # of iterations =  2.0

     negative rho (up, down):  1.641E-04 1.353E-04
 
     Adding external electric field

     Computed dipole along edir(3) : 
        Dipole               -0.1761 Ry au,         -0.4475 Debye
        Dipole field         -0.0001 Ry au, 
 
        Potential amp.        0.0118 Ry
        Total length         54.2615 bohr
 
 
     Adding external electric field

     Computed dipole along edir(3) : 
        Dipole               -0.1761 Ry au,         -0.4475 Debye
        Dipole field         -0.0001 Ry au, 
 
        Potential amp.        0.0118 Ry
        Total length         54.2615 bohr
 

     total cpu time spent up to now is      219.0 secs

     total energy              =   -7364.86050854 Ry
     estimated scf accuracy    <       0.25892182 Ry

     total magnetization       =    78.80 Bohr mag/cell
     absolute magnetization    =    81.12 Bohr mag/cell

     iteration # 18     ecut=    50.00 Ry     beta= 0.10
     Davidson diagonalization with overlap
     ethr =  1.26E-05,  avg # of iterations =  2.0

     negative rho (up, down):  1.784E-04 1.670E-04
 
     Adding external electric field

     Computed dipole along edir(3) : 
        Dipole               -0.2443 Ry au,         -0.6210 Debye
        Dipole field         -0.0002 Ry au, 
 
        Potential amp.        0.0164 Ry
        Total length         54.2615 bohr
 
 
     Adding external electric field

     Computed dipole along edir(3) : 
        Dipole               -0.2443 Ry au,         -0.6210 Debye
        Dipole field         -0.0002 Ry au, 
 
        Potential amp.        0.0164 Ry
        Total length         54.2615 bohr
 

     total cpu time spent up to now is      229.8 secs

     total energy              =   -7364.86209069 Ry
     estimated scf accuracy    <       0.11250986 Ry

     total magnetization       =    79.20 Bohr mag/cell
     absolute magnetization    =    81.20 Bohr mag/cell

     iteration # 19     ecut=    50.00 Ry     beta= 0.10
     Davidson diagonalization with overlap
     ethr =  1.05E-05,  avg # of iterations =  2.0

     negative rho (up, down):  1.227E-04 1.254E-04
 
     Adding external electric field

     Computed dipole along edir(3) : 
        Dipole               -0.2536 Ry au,         -0.6445 Debye
        Dipole field         -0.0002 Ry au, 
 
        Potential amp.        0.0170 Ry
        Total length         54.2615 bohr
 
 
     Adding external electric field

     Computed dipole along edir(3) : 
        Dipole               -0.2536 Ry au,         -0.6445 Debye
        Dipole field         -0.0002 Ry au, 
 
        Potential amp.        0.0170 Ry
        Total length         54.2615 bohr
 

     total cpu time spent up to now is      241.0 secs

     total energy              =   -7364.86230792 Ry
     estimated scf accuracy    <       0.10052191 Ry

     total magnetization       =    79.19 Bohr mag/cell
     absolute magnetization    =    80.83 Bohr mag/cell

     iteration # 20     ecut=    50.00 Ry     beta= 0.10
     Davidson diagonalization with overlap
     ethr =  9.39E-06,  avg # of iterations =  2.0

     negative rho (up, down):  1.069E-04 9.813E-05
 
     Adding external electric field

     Computed dipole along edir(3) : 
        Dipole               -0.2814 Ry au,         -0.7153 Debye
        Dipole field         -0.0002 Ry au, 
 
        Potential amp.        0.0189 Ry
        Total length         54.2615 bohr
 
 
     Adding external electric field

     Computed dipole along edir(3) : 
        Dipole               -0.2814 Ry au,         -0.7153 Debye
        Dipole field         -0.0002 Ry au, 
 
        Potential amp.        0.0189 Ry
        Total length         54.2615 bohr
 

     total cpu time spent up to now is      252.7 secs

     total energy              =   -7364.86239822 Ry
     estimated scf accuracy    <       0.03423368 Ry

     total magnetization       =    79.55 Bohr mag/cell
     absolute magnetization    =    81.15 Bohr mag/cell

     iteration # 21     ecut=    50.00 Ry     beta= 0.10
     Davidson diagonalization with overlap
     c_bands:  1 eigenvalues not converged
     ethr =  3.20E-06,  avg # of iterations = 37.5

     negative rho (up, down):  8.708E-05 8.429E-05
 
     Adding external electric field

     Computed dipole along edir(3) : 
        Dipole               -0.3169 Ry au,         -0.8055 Debye
        Dipole field         -0.0002 Ry au, 
 
        Potential amp.        0.0213 Ry
        Total length         54.2615 bohr
 
 
     Adding external electric field

     Computed dipole along edir(3) : 
        Dipole               -0.3169 Ry au,         -0.8055 Debye
        Dipole field         -0.0002 Ry au, 
 
        Potential amp.        0.0213 Ry
        Total length         54.2615 bohr
 

     total cpu time spent up to now is      289.9 secs

     total energy              =   -7364.86240857 Ry
     estimated scf accuracy    <       0.01902467 Ry

     total magnetization       =    79.85 Bohr mag/cell
     absolute magnetization    =    81.35 Bohr mag/cell

     iteration # 22     ecut=    50.00 Ry     beta= 0.10
     Davidson diagonalization with overlap
     c_bands:  1 eigenvalues not converged
     ethr =  1.78E-06,  avg # of iterations = 11.0

     negative rho (up, down):  8.070E-05 1.108E-04
 
     Adding external electric field

     Computed dipole along edir(3) : 
        Dipole               -0.3147 Ry au,         -0.7999 Debye
        Dipole field         -0.0002 Ry au, 
 
        Potential amp.        0.0211 Ry
        Total length         54.2615 bohr
 
 
     Adding external electric field

     Computed dipole along edir(3) : 
        Dipole               -0.3147 Ry au,         -0.7999 Debye
        Dipole field         -0.0002 Ry au, 
 
        Potential amp.        0.0211 Ry
        Total length         54.2615 bohr
 

     total cpu time spent up to now is      305.6 secs

     total energy              =   -7364.86251098 Ry
     estimated scf accuracy    <       0.08091243 Ry

     total magnetization       =    79.24 Bohr mag/cell
     absolute magnetization    =    80.77 Bohr mag/cell

     iteration # 23     ecut=    50.00 Ry     beta= 0.10
     Davidson diagonalization with overlap
     ethr =  1.78E-06,  avg # of iterations =  2.0

     negative rho (up, down):  1.025E-04 1.583E-04
 
     Adding external electric field

     Computed dipole along edir(3) : 
        Dipole               -0.3268 Ry au,         -0.8307 Debye
        Dipole field         -0.0002 Ry au, 
 
        Potential amp.        0.0219 Ry
        Total length         54.2615 bohr
 
 
     Adding external electric field

     Computed dipole along edir(3) : 
        Dipole               -0.3268 Ry au,         -0.8307 Debye
        Dipole field         -0.0002 Ry au, 
 
        Potential amp.        0.0219 Ry
        Total length         54.2615 bohr
 

     total cpu time spent up to now is      317.0 secs

     total energy              =   -7364.86249820 Ry
     estimated scf accuracy    <       0.02338639 Ry

     total magnetization       =    79.50 Bohr mag/cell
     absolute magnetization    =    80.99 Bohr mag/cell

     iteration # 24     ecut=    50.00 Ry     beta= 0.10
     Davidson diagonalization with overlap
     ethr =  1.78E-06,  avg # of iterations =  2.0

     negative rho (up, down):  9.412E-05 1.948E-04
 
     Adding external electric field

     Computed dipole along edir(3) : 
        Dipole               -0.3126 Ry au,         -0.7946 Debye
        Dipole field         -0.0002 Ry au, 
 
        Potential amp.        0.0210 Ry
        Total length         54.2615 bohr
 
 
     Adding external electric field

     Computed dipole along edir(3) : 
        Dipole               -0.3126 Ry au,         -0.7946 Debye
        Dipole field         -0.0002 Ry au, 
 
        Potential amp.        0.0210 Ry
        Total length         54.2615 bohr
 

     total cpu time spent up to now is      329.6 secs

     total energy              =   -7364.86189320 Ry
     estimated scf accuracy    <       0.01865868 Ry

     total magnetization       =    79.49 Bohr mag/cell
     absolute magnetization    =    81.04 Bohr mag/cell

     iteration # 25     ecut=    50.00 Ry     beta= 0.10
     Davidson diagonalization with overlap
     ethr =  1.74E-06,  avg # of iterations =  1.5

     negative rho (up, down):  6.393E-05 1.692E-04
 
     Adding external electric field

     Computed dipole along edir(3) : 
        Dipole               -0.2979 Ry au,         -0.7572 Debye
        Dipole field         -0.0002 Ry au, 
 
        Potential amp.        0.0200 Ry
        Total length         54.2615 bohr
 
 
     Adding external electric field

     Computed dipole along edir(3) : 
        Dipole               -0.2979 Ry au,         -0.7572 Debye
        Dipole field         -0.0002 Ry au, 
 
        Potential amp.        0.0200 Ry
        Total length         54.2615 bohr
 

     total cpu time spent up to now is      340.3 secs

     total energy              =   -7364.86136043 Ry
     estimated scf accuracy    <       0.01110727 Ry

     total magnetization       =    79.51 Bohr mag/cell
     absolute magnetization    =    81.11 Bohr mag/cell

     iteration # 26     ecut=    50.00 Ry     beta= 0.10
     Davidson diagonalization with overlap
     ethr =  1.04E-06,  avg # of iterations =  2.0

     negative rho (up, down):  4.618E-05 1.364E-04
 
     Adding external electric field

     Computed dipole along edir(3) : 
        Dipole               -0.2954 Ry au,         -0.7507 Debye
        Dipole field         -0.0002 Ry au, 
 
        Potential amp.        0.0198 Ry
        Total length         54.2615 bohr
 
 
     Adding external electric field

     Computed dipole along edir(3) : 
        Dipole               -0.2954 Ry au,         -0.7507 Debye
        Dipole field         -0.0002 Ry au, 
 
        Potential amp.        0.0198 Ry
        Total length         54.2615 bohr
 

     total cpu time spent up to now is      352.7 secs

     total energy              =   -7364.86174709 Ry
     estimated scf accuracy    <       0.00509348 Ry

     total magnetization       =    79.60 Bohr mag/cell
     absolute magnetization    =    81.22 Bohr mag/cell

     iteration # 27     ecut=    50.00 Ry     beta= 0.10
     Davidson diagonalization with overlap
     ethr =  4.76E-07,  avg # of iterations =  2.5

     negative rho (up, down):  6.397E-05 1.122E-04
 
     Adding external electric field

     Computed dipole along edir(3) : 
        Dipole               -0.2828 Ry au,         -0.7188 Debye
        Dipole field         -0.0002 Ry au, 
 
        Potential amp.        0.0190 Ry
        Total length         54.2615 bohr
 
 
     Adding external electric field

     Computed dipole along edir(3) : 
        Dipole               -0.2828 Ry au,         -0.7188 Debye
        Dipole field         -0.0002 Ry au, 
 
        Potential amp.        0.0190 Ry
        Total length         54.2615 bohr
 

     total cpu time spent up to now is      364.8 secs

     total energy              =   -7364.86231612 Ry
     estimated scf accuracy    <       0.00222924 Ry

     total magnetization       =    79.60 Bohr mag/cell
     absolute magnetization    =    81.19 Bohr mag/cell

     iteration # 28     ecut=    50.00 Ry     beta= 0.10
     Davidson diagonalization with overlap
     ethr =  2.08E-07,  avg # of iterations =  6.0

     negative rho (up, down):  1.207E-03 1.468E-03
 
     Adding external electric field

     Computed dipole along edir(3) : 
        Dipole               -0.2723 Ry au,         -0.6921 Debye
        Dipole field         -0.0002 Ry au, 
 
        Potential amp.        0.0183 Ry
        Total length         54.2615 bohr
 
 
     Adding external electric field

     Computed dipole along edir(3) : 
        Dipole               -0.2723 Ry au,         -0.6921 Debye
        Dipole field         -0.0002 Ry au, 
 
        Potential amp.        0.0183 Ry
        Total length         54.2615 bohr
 

     total cpu time spent up to now is      378.7 secs

     total energy              =   -7364.86238587 Ry
     estimated scf accuracy    <       0.00086643 Ry

     total magnetization       =    79.66 Bohr mag/cell
     absolute magnetization    =    81.19 Bohr mag/cell

     iteration # 29     ecut=    50.00 Ry     beta= 0.10
     Davidson diagonalization with overlap
     c_bands:  3 eigenvalues not converged
     ethr =  8.09E-08,  avg # of iterations = 11.0

     negative rho (up, down):  3.618E-04 3.321E-04
 
     Adding external electric field

     Computed dipole along edir(3) : 
        Dipole               -0.2613 Ry au,         -0.6642 Debye
        Dipole field         -0.0002 Ry au, 
 
        Potential amp.        0.0175 Ry
        Total length         54.2615 bohr
 
 
     Adding external electric field

     Computed dipole along edir(3) : 
        Dipole               -0.2613 Ry au,         -0.6642 Debye
        Dipole field         -0.0002 Ry au, 
 
        Potential amp.        0.0175 Ry
        Total length         54.2615 bohr
 

     total cpu time spent up to now is      395.4 secs

     total energy              =   -7364.86257156 Ry
     estimated scf accuracy    <       0.00081116 Ry

     total magnetization       =    79.64 Bohr mag/cell
     absolute magnetization    =    81.13 Bohr mag/cell

     iteration # 30     ecut=    50.00 Ry     beta= 0.10
     Davidson diagonalization with overlap
     ethr =  7.57E-08,  avg # of iterations =  2.0

     negative rho (up, down):  2.500E-04 1.876E-04
 
     Adding external electric field

     Computed dipole along edir(3) : 
        Dipole               -0.2541 Ry au,         -0.6459 Debye
        Dipole field         -0.0002 Ry au, 
 
        Potential amp.        0.0171 Ry
        Total length         54.2615 bohr
 
 
     Adding external electric field

     Computed dipole along edir(3) : 
        Dipole               -0.2541 Ry au,         -0.6459 Debye
        Dipole field         -0.0002 Ry au, 
 
        Potential amp.        0.0171 Ry
        Total length         54.2615 bohr
 

     total cpu time spent up to now is      407.1 secs

     total energy              =   -7364.86259347 Ry
     estimated scf accuracy    <       0.00038942 Ry

     total magnetization       =    79.67 Bohr mag/cell
     absolute magnetization    =    81.17 Bohr mag/cell

     iteration # 31     ecut=    50.00 Ry     beta= 0.10
     Davidson diagonalization with overlap
     ethr =  3.64E-08,  avg # of iterations =  1.5

     negative rho (up, down):  1.066E-04 5.485E-05
 
     Adding external electric field

     Computed dipole along edir(3) : 
        Dipole               -0.2547 Ry au,         -0.6475 Debye
        Dipole field         -0.0002 Ry au, 
 
        Potential amp.        0.0171 Ry
        Total length         54.2615 bohr
 
 
     Adding external electric field

     Computed dipole along edir(3) : 
        Dipole               -0.2547 Ry au,         -0.6475 Debye
        Dipole field         -0.0002 Ry au, 
 
        Potential amp.        0.0171 Ry
        Total length         54.2615 bohr
 

     total cpu time spent up to now is      418.9 secs

     total energy              =   -7364.86258857 Ry
     estimated scf accuracy    <       0.00038845 Ry

     total magnetization       =    79.67 Bohr mag/cell
     absolute magnetization    =    81.17 Bohr mag/cell

     iteration # 32     ecut=    50.00 Ry     beta= 0.10
     Davidson diagonalization with overlap
     ethr =  3.63E-08,  avg # of iterations =  2.0

     negative rho (up, down):  7.094E-05 2.199E-05
 
     Adding external electric field

     Computed dipole along edir(3) : 
        Dipole               -0.2490 Ry au,         -0.6329 Debye
        Dipole field         -0.0002 Ry au, 
 
        Potential amp.        0.0167 Ry
        Total length         54.2615 bohr
 
 
     Adding external electric field

     Computed dipole along edir(3) : 
        Dipole               -0.2490 Ry au,         -0.6329 Debye
        Dipole field         -0.0002 Ry au, 
 
        Potential amp.        0.0167 Ry
        Total length         54.2615 bohr
 

     total cpu time spent up to now is      430.5 secs

     total energy              =   -7364.86257439 Ry
     estimated scf accuracy    <       0.00027274 Ry

     total magnetization       =    79.67 Bohr mag/cell
     absolute magnetization    =    81.16 Bohr mag/cell

     iteration # 33     ecut=    50.00 Ry     beta= 0.10
     Davidson diagonalization with overlap
     ethr =  2.55E-08,  avg # of iterations =  1.5

     negative rho (up, down):  6.728E-05 1.411E-05
 
     Adding external electric field

     Computed dipole along edir(3) : 
        Dipole               -0.2395 Ry au,         -0.6086 Debye
        Dipole field         -0.0001 Ry au, 
 
        Potential amp.        0.0161 Ry
        Total length         54.2615 bohr
 
 
     Adding external electric field

     Computed dipole along edir(3) : 
        Dipole               -0.2395 Ry au,         -0.6086 Debye
        Dipole field         -0.0001 Ry au, 
 
        Potential amp.        0.0161 Ry
        Total length         54.2615 bohr
 

     total cpu time spent up to now is      441.9 secs

     total energy              =   -7364.86257014 Ry
     estimated scf accuracy    <       0.00021719 Ry

     total magnetization       =    79.67 Bohr mag/cell
     absolute magnetization    =    81.16 Bohr mag/cell

     iteration # 34     ecut=    50.00 Ry     beta= 0.10
     Davidson diagonalization with overlap
     ethr =  2.03E-08,  avg # of iterations =  1.5

     negative rho (up, down):  2.888E-05 3.884E-06
 
     Adding external electric field

     Computed dipole along edir(3) : 
        Dipole               -0.2299 Ry au,         -0.5843 Debye
        Dipole field         -0.0001 Ry au, 
 
        Potential amp.        0.0154 Ry
        Total length         54.2615 bohr
 
 
     Adding external electric field

     Computed dipole along edir(3) : 
        Dipole               -0.2299 Ry au,         -0.5843 Debye
        Dipole field         -0.0001 Ry au, 
 
        Potential amp.        0.0154 Ry
        Total length         54.2615 bohr
 

     total cpu time spent up to now is      453.5 secs

     total energy              =   -7364.86256159 Ry
     estimated scf accuracy    <       0.00021528 Ry

     total magnetization       =    79.68 Bohr mag/cell
     absolute magnetization    =    81.17 Bohr mag/cell

     iteration # 35     ecut=    50.00 Ry     beta= 0.10
     Davidson diagonalization with overlap
     ethr =  2.01E-08,  avg # of iterations =  2.0

     negative rho (up, down):  2.949E-05 3.800E-06
 
     Adding external electric field

     Computed dipole along edir(3) : 
        Dipole               -0.2271 Ry au,         -0.5773 Debye
        Dipole field         -0.0001 Ry au, 
 
        Potential amp.        0.0152 Ry
        Total length         54.2615 bohr
 
 
     Adding external electric field

     Computed dipole along edir(3) : 
        Dipole               -0.2271 Ry au,         -0.5773 Debye
        Dipole field         -0.0001 Ry au, 
 
        Potential amp.        0.0152 Ry
        Total length         54.2615 bohr
 

     total cpu time spent up to now is      465.1 secs

     total energy              =   -7364.86256306 Ry
     estimated scf accuracy    <       0.00016122 Ry

     total magnetization       =    79.67 Bohr mag/cell
     absolute magnetization    =    81.17 Bohr mag/cell

     iteration # 36     ecut=    50.00 Ry     beta= 0.10
     Davidson diagonalization with overlap
     ethr =  1.51E-08,  avg # of iterations =  1.0

     negative rho (up, down):  2.651E-05 3.272E-06
 
     Adding external electric field

     Computed dipole along edir(3) : 
        Dipole               -0.2227 Ry au,         -0.5661 Debye
        Dipole field         -0.0001 Ry au, 
 
        Potential amp.        0.0149 Ry
        Total length         54.2615 bohr
 
 
     Adding external electric field

     Computed dipole along edir(3) : 
        Dipole               -0.2227 Ry au,         -0.5661 Debye
        Dipole field         -0.0001 Ry au, 
 
        Potential amp.        0.0149 Ry
        Total length         54.2615 bohr
 

     total cpu time spent up to now is      476.3 secs

     total energy              =   -7364.86256184 Ry
     estimated scf accuracy    <       0.00015716 Ry

     total magnetization       =    79.67 Bohr mag/cell
     absolute magnetization    =    81.17 Bohr mag/cell

     iteration # 37     ecut=    50.00 Ry     beta= 0.10
     Davidson diagonalization with overlap
     ethr =  1.47E-08,  avg # of iterations =  1.0

     negative rho (up, down):  7.178E-05 1.539E-05
 
     Adding external electric field

     Computed dipole along edir(3) : 
        Dipole               -0.2019 Ry au,         -0.5131 Debye
        Dipole field         -0.0001 Ry au, 
 
        Potential amp.        0.0135 Ry
        Total length         54.2615 bohr
 
 
     Adding external electric field

     Computed dipole along edir(3) : 
        Dipole               -0.2019 Ry au,         -0.5131 Debye
        Dipole field         -0.0001 Ry au, 
 
        Potential amp.        0.0135 Ry
        Total length         54.2615 bohr
 

     total cpu time spent up to now is      487.0 secs

     total energy              =   -7364.86258003 Ry
     estimated scf accuracy    <       0.00013085 Ry

     total magnetization       =    79.67 Bohr mag/cell
     absolute magnetization    =    81.17 Bohr mag/cell

     iteration # 38     ecut=    50.00 Ry     beta= 0.10
     Davidson diagonalization with overlap
     ethr =  1.22E-08,  avg # of iterations =  2.0

     negative rho (up, down):  1.032E-04 2.859E-05
 
     Adding external electric field

     Computed dipole along edir(3) : 
        Dipole               -0.1970 Ry au,         -0.5008 Debye
        Dipole field         -0.0001 Ry au, 
 
        Potential amp.        0.0132 Ry
        Total length         54.2615 bohr
 
 
     Adding external electric field

     Computed dipole along edir(3) : 
        Dipole               -0.1970 Ry au,         -0.5008 Debye
        Dipole field         -0.0001 Ry au, 
 
        Potential amp.        0.0132 Ry
        Total length         54.2615 bohr
 

     total cpu time spent up to now is      499.0 secs

     total energy              =   -7364.86258642 Ry
     estimated scf accuracy    <       0.00007798 Ry

     total magnetization       =    79.66 Bohr mag/cell
     absolute magnetization    =    81.16 Bohr mag/cell

     iteration # 39     ecut=    50.00 Ry     beta= 0.10
     Davidson diagonalization with overlap
     ethr =  7.28E-09,  avg # of iterations =  1.0

     negative rho (up, down):  1.119E-04 3.040E-05
 
     Adding external electric field

     Computed dipole along edir(3) : 
        Dipole               -0.1965 Ry au,         -0.4994 Debye
        Dipole field         -0.0001 Ry au, 
 
        Potential amp.        0.0132 Ry
        Total length         54.2615 bohr
 
 
     Adding external electric field

     Computed dipole along edir(3) : 
        Dipole               -0.1965 Ry au,         -0.4994 Debye
        Dipole field         -0.0001 Ry au, 
 
        Potential amp.        0.0132 Ry
        Total length         54.2615 bohr
 

     total cpu time spent up to now is      509.6 secs

     total energy              =   -7364.86258799 Ry
     estimated scf accuracy    <       0.00005640 Ry

     total magnetization       =    79.66 Bohr mag/cell
     absolute magnetization    =    81.16 Bohr mag/cell

     iteration # 40     ecut=    50.00 Ry     beta= 0.10
     Davidson diagonalization with overlap
     ethr =  5.27E-09,  avg # of iterations =  1.0

     negative rho (up, down):  1.678E-04 4.496E-05
 
     Adding external electric field

     Computed dipole along edir(3) : 
        Dipole               -0.1934 Ry au,         -0.4916 Debye
        Dipole field         -0.0001 Ry au, 
 
        Potential amp.        0.0130 Ry
        Total length         54.2615 bohr
 
 
     Adding external electric field

     Computed dipole along edir(3) : 
        Dipole               -0.1934 Ry au,         -0.4916 Debye
        Dipole field         -0.0001 Ry au, 
 
        Potential amp.        0.0130 Ry
        Total length         54.2615 bohr
 

     total cpu time spent up to now is      520.4 secs

     total energy              =   -7364.86259653 Ry
     estimated scf accuracy    <       0.00004240 Ry

     total magnetization       =    79.66 Bohr mag/cell
     absolute magnetization    =    81.16 Bohr mag/cell

     iteration # 41     ecut=    50.00 Ry     beta= 0.10
     Davidson diagonalization with overlap
     ethr =  3.96E-09,  avg # of iterations =  1.0

     negative rho (up, down):  2.860E-04 8.572E-05
 
     Adding external electric field

     Computed dipole along edir(3) : 
        Dipole               -0.1901 Ry au,         -0.4832 Debye
        Dipole field         -0.0001 Ry au, 
 
        Potential amp.        0.0128 Ry
        Total length         54.2615 bohr
 
 
     Adding external electric field

     Computed dipole along edir(3) : 
        Dipole               -0.1901 Ry au,         -0.4832 Debye
        Dipole field         -0.0001 Ry au, 
 
        Potential amp.        0.0128 Ry
        Total length         54.2615 bohr
 

     total cpu time spent up to now is      531.4 secs

     total energy              =   -7364.86260480 Ry
     estimated scf accuracy    <       0.00002705 Ry

     total magnetization       =    79.66 Bohr mag/cell
     absolute magnetization    =    81.17 Bohr mag/cell

     iteration # 42     ecut=    50.00 Ry     beta= 0.10
     Davidson diagonalization with overlap
     ethr =  2.53E-09,  avg # of iterations =  1.0

     negative rho (up, down):  4.606E-04 1.633E-04
 
     Adding external electric field

     Computed dipole along edir(3) : 
        Dipole               -0.1902 Ry au,         -0.4836 Debye
        Dipole field         -0.0001 Ry au, 
 
        Potential amp.        0.0128 Ry
        Total length         54.2615 bohr
 
 
     Adding external electric field

     Computed dipole along edir(3) : 
        Dipole               -0.1902 Ry au,         -0.4836 Debye
        Dipole field         -0.0001 Ry au, 
 
        Potential amp.        0.0128 Ry
        Total length         54.2615 bohr
 

     total cpu time spent up to now is      542.0 secs

     total energy              =   -7364.86261012 Ry
     estimated scf accuracy    <       0.00001450 Ry

     total magnetization       =    79.66 Bohr mag/cell
     absolute magnetization    =    81.18 Bohr mag/cell

     iteration # 43     ecut=    50.00 Ry     beta= 0.10
     Davidson diagonalization with overlap
     ethr =  1.35E-09,  avg # of iterations =  2.0

     negative rho (up, down):  5.249E-04 2.055E-04
 
     Adding external electric field

     Computed dipole along edir(3) : 
        Dipole               -0.1900 Ry au,         -0.4828 Debye
        Dipole field         -0.0001 Ry au, 
 
        Potential amp.        0.0127 Ry
        Total length         54.2615 bohr
 
 
     Adding external electric field

     Computed dipole along edir(3) : 
        Dipole               -0.1900 Ry au,         -0.4828 Debye
        Dipole field         -0.0001 Ry au, 
 
        Potential amp.        0.0127 Ry
        Total length         54.2615 bohr
 

     total cpu time spent up to now is      553.6 secs

     total energy              =   -7364.86261220 Ry
     estimated scf accuracy    <       0.00000662 Ry

     total magnetization       =    79.67 Bohr mag/cell
     absolute magnetization    =    81.18 Bohr mag/cell

     iteration # 44     ecut=    50.00 Ry     beta= 0.10
     Davidson diagonalization with overlap
     ethr =  6.18E-10,  avg # of iterations =  1.5

     negative rho (up, down):  5.837E-04 2.442E-04
 
     Adding external electric field

     Computed dipole along edir(3) : 
        Dipole               -0.1912 Ry au,         -0.4860 Debye
        Dipole field         -0.0001 Ry au, 
 
        Potential amp.        0.0128 Ry
        Total length         54.2615 bohr
 
 
     Adding external electric field

     Computed dipole along edir(3) : 
        Dipole               -0.1912 Ry au,         -0.4860 Debye
        Dipole field         -0.0001 Ry au, 
 
        Potential amp.        0.0128 Ry
        Total length         54.2615 bohr
 

     total cpu time spent up to now is      565.1 secs

     total energy              =   -7364.86261338 Ry
     estimated scf accuracy    <       0.00000404 Ry

     total magnetization       =    79.67 Bohr mag/cell
     absolute magnetization    =    81.18 Bohr mag/cell

     iteration # 45     ecut=    50.00 Ry     beta= 0.10
     Davidson diagonalization with overlap
     ethr =  3.77E-10,  avg # of iterations =  1.5

     negative rho (up, down):  6.843E-04 3.198E-04
 
     Adding external electric field

     Computed dipole along edir(3) : 
        Dipole               -0.1920 Ry au,         -0.4881 Debye
        Dipole field         -0.0001 Ry au, 
 
        Potential amp.        0.0129 Ry
        Total length         54.2615 bohr
 
 
     Adding external electric field

     Computed dipole along edir(3) : 
        Dipole               -0.1920 Ry au,         -0.4881 Debye
        Dipole field         -0.0001 Ry au, 
 
        Potential amp.        0.0129 Ry
        Total length         54.2615 bohr
 

     total cpu time spent up to now is      576.6 secs

     total energy              =   -7364.86261452 Ry
     estimated scf accuracy    <       0.00000279 Ry

     total magnetization       =    79.67 Bohr mag/cell
     absolute magnetization    =    81.18 Bohr mag/cell

     iteration # 46     ecut=    50.00 Ry     beta= 0.10
     Davidson diagonalization with overlap
     ethr =  2.61E-10,  avg # of iterations =  1.5

     negative rho (up, down):  7.900E-04 4.126E-04
 
     Adding external electric field

     Computed dipole along edir(3) : 
        Dipole               -0.1906 Ry au,         -0.4845 Debye
        Dipole field         -0.0001 Ry au, 
 
        Potential amp.        0.0128 Ry
        Total length         54.2615 bohr
 
 
     Adding external electric field

     Computed dipole along edir(3) : 
        Dipole               -0.1906 Ry au,         -0.4845 Debye
        Dipole field         -0.0001 Ry au, 
 
        Potential amp.        0.0128 Ry
        Total length         54.2615 bohr
 

     total cpu time spent up to now is      588.6 secs

     total energy              =   -7364.86261539 Ry
     estimated scf accuracy    <       0.00000175 Ry

     total magnetization       =    79.67 Bohr mag/cell
     absolute magnetization    =    81.19 Bohr mag/cell

     iteration # 47     ecut=    50.00 Ry     beta= 0.10
     Davidson diagonalization with overlap
     ethr =  1.63E-10,  avg # of iterations =  1.5

     negative rho (up, down):  8.711E-04 4.937E-04
 
     Adding external electric field

     Computed dipole along edir(3) : 
        Dipole               -0.1886 Ry au,         -0.4794 Debye
        Dipole field         -0.0001 Ry au, 
 
        Potential amp.        0.0127 Ry
        Total length         54.2615 bohr
 
 
     Adding external electric field

     Computed dipole along edir(3) : 
        Dipole               -0.1886 Ry au,         -0.4794 Debye
        Dipole field         -0.0001 Ry au, 
 
        Potential amp.        0.0127 Ry
        Total length         54.2615 bohr
 

     total cpu time spent up to now is      599.9 secs

     total energy              =   -7364.86261590 Ry
     estimated scf accuracy    <       0.00000105 Ry

     total magnetization       =    79.67 Bohr mag/cell
     absolute magnetization    =    81.19 Bohr mag/cell

     iteration # 48     ecut=    50.00 Ry     beta= 0.10
     Davidson diagonalization with overlap
     ethr =  9.77E-11,  avg # of iterations =  2.0

     negative rho (up, down):  9.426E-04 5.538E-04
 
     Adding external electric field

     Computed dipole along edir(3) : 
        Dipole               -0.1842 Ry au,         -0.4682 Debye
        Dipole field         -0.0001 Ry au, 
 
        Potential amp.        0.0124 Ry
        Total length         54.2615 bohr
 
 
     Adding external electric field

     Computed dipole along edir(3) : 
        Dipole               -0.1842 Ry au,         -0.4682 Debye
        Dipole field         -0.0001 Ry au, 
 
        Potential amp.        0.0124 Ry
        Total length         54.2615 bohr
 
 
     Magnetic moment per site  (integrated on atomic sphere of radius R)
     atom   1 (R=0.087)  charge= 12.0347  magn=  3.8864
     atom   2 (R=0.087)  charge=  7.4396  magn=  1.5752
     atom   3 (R=0.087)  charge=  7.4488  magn=  1.4851
     atom   4 (R=0.087)  charge=  7.4397  magn=  1.5855
     atom   5 (R=0.087)  charge=  7.4756  magn=  1.5381
     atom   6 (R=0.087)  charge=  7.4607  magn=  1.5361
     atom   7 (R=0.087)  charge=  7.4553  magn=  1.4642
     atom   8 (R=0.087)  charge=  7.4428  magn=  1.5733
     atom   9 (R=0.087)  charge=  7.4475  magn=  1.4905
     atom  10 (R=0.087)  charge=  7.4407  magn=  1.5820
     atom  11 (R=0.087)  charge=  7.4690  magn=  1.5347
     atom  12 (R=0.087)  charge=  7.4629  magn=  1.5368
     atom  13 (R=0.065)  charge=  0.7513  magn=  0.0078
     atom  14 (R=0.065)  charge=  0.7308  magn=  0.0042
     atom  15 (R=0.065)  charge=  0.7507  magn=  0.0034
     atom  16 (R=0.065)  charge=  0.7368  magn=  0.0054
     atom  17 (R=0.065)  charge=  4.0442  magn=  0.1100
     atom  18 (R=0.065)  charge=  4.0279  magn=  0.1324
     atom  19 (R=0.065)  charge=  4.0204  magn=  0.1672
     atom  20 (R=0.065)  charge=  4.0207  magn=  0.1374
     atom  21 (R=0.065)  charge=  4.0688  magn=  0.0822
     atom  22 (R=0.065)  charge=  4.0095  magn=  0.0622
     atom  23 (R=0.065)  charge=  4.0049  magn=  0.0897
     atom  24 (R=0.065)  charge=  4.0464  magn=  0.1033
     atom  25 (R=0.065)  charge=  4.0381  magn=  0.1027
     atom  26 (R=0.065)  charge=  4.0976  magn=  0.0740
     atom  27 (R=0.065)  charge=  4.0400  magn=  0.0905
     atom  28 (R=0.065)  charge=  4.0400  magn=  0.0882
     atom  29 (R=0.065)  charge=  4.0734  magn=  0.0657
     atom  30 (R=0.065)  charge=  4.0325  magn=  0.0935
     atom  31 (R=0.065)  charge=  4.0924  magn=  0.0945
     atom  32 (R=0.065)  charge=  4.0453  magn=  0.0837
     atom  33 (R=0.065)  charge=  0.7467  magn=  0.0055
     atom  34 (R=0.065)  charge=  0.7404  magn=  0.0035
     atom  35 (R=0.065)  charge=  0.7497  magn=  0.0026
     atom  36 (R=0.065)  charge=  0.7264  magn=  0.0056
     atom  37 (R=0.065)  charge=  4.0254  magn=  0.1393
     atom  38 (R=0.065)  charge=  4.0202  magn=  0.1674
     atom  39 (R=0.065)  charge=  4.0237  magn=  0.1740
     atom  40 (R=0.065)  charge=  4.0198  magn=  0.1384
     atom  41 (R=0.065)  charge=  4.0462  magn=  0.1021
     atom  42 (R=0.065)  charge=  4.0010  magn=  0.0866
     atom  43 (R=0.065)  charge=  4.0042  magn=  0.0946
     atom  44 (R=0.065)  charge=  4.0458  magn=  0.1026
     atom  45 (R=0.065)  charge=  4.0366  magn=  0.1040
     atom  46 (R=0.065)  charge=  4.0869  magn=  0.0938
     atom  47 (R=0.065)  charge=  4.0688  magn=  0.0845
     atom  48 (R=0.065)  charge=  4.0397  magn=  0.0883
     atom  49 (R=0.065)  charge=  4.0395  magn=  0.0822
     atom  50 (R=0.065)  charge=  4.0368  magn=  0.0896
     atom  51 (R=0.065)  charge=  4.0916  magn=  0.0985
     atom  52 (R=0.065)  charge=  4.0495  magn=  0.0908
     atom  53 (R=0.087)  charge= 12.0531  magn=  3.8583
     atom  54 (R=0.087)  charge=  7.4391  magn=  1.5766
     atom  55 (R=0.087)  charge=  7.4423  magn=  1.5835
     atom  56 (R=0.087)  charge=  7.4405  magn=  1.5824
     atom  57 (R=0.087)  charge=  7.4755  magn=  1.5396
     atom  58 (R=0.087)  charge=  7.4611  magn=  1.5381
     atom  59 (R=0.087)  charge=  7.4391  magn=  1.5793
     atom  60 (R=0.087)  charge=  7.4430  magn=  1.5764
     atom  61 (R=0.087)  charge=  7.4407  magn=  1.5851
     atom  62 (R=0.087)  charge=  7.4418  magn=  1.5788
     atom  63 (R=0.087)  charge=  7.4688  magn=  1.5367
     atom  64 (R=0.087)  charge=  7.4641  magn=  1.5396
     atom  65 (R=0.065)  charge=  0.7503  magn=  0.0079
     atom  66 (R=0.065)  charge=  0.7287  magn=  0.0063
     atom  67 (R=0.065)  charge=  0.7481  magn=  0.0063
     atom  68 (R=0.065)  charge=  0.7363  magn=  0.0055
     atom  69 (R=0.065)  charge=  4.0440  magn=  0.1156
     atom  70 (R=0.065)  charge=  4.0292  magn=  0.1171
     atom  71 (R=0.065)  charge=  4.0230  magn=  0.1397
     atom  72 (R=0.065)  charge=  4.0212  magn=  0.1437
     atom  73 (R=0.065)  charge=  4.0665  magn=  0.0861
     atom  74 (R=0.065)  charge=  4.0526  magn=  0.0840
     atom  75 (R=0.065)  charge=  4.0512  magn=  0.1037
     atom  76 (R=0.065)  charge=  4.0454  magn=  0.1046
     atom  77 (R=0.065)  charge=  4.0392  magn=  0.1040
     atom  78 (R=0.065)  charge=  4.1009  magn=  0.0781
     atom  79 (R=0.065)  charge=  4.0393  magn=  0.0912
     atom  80 (R=0.065)  charge=  4.0436  magn=  0.0895
     atom  81 (R=0.065)  charge=  4.0772  magn=  0.0662
     atom  82 (R=0.065)  charge=  4.0376  magn=  0.1008
     atom  83 (R=0.065)  charge=  4.0944  magn=  0.0959
     atom  84 (R=0.065)  charge=  4.0443  magn=  0.0859
     atom  85 (R=0.065)  charge=  0.7481  magn=  0.0056
     atom  86 (R=0.065)  charge=  0.7370  magn=  0.0064
     atom  87 (R=0.065)  charge=  0.7471  magn=  0.0055
     atom  88 (R=0.065)  charge=  0.7268  magn=  0.0057
     atom  89 (R=0.065)  charge=  4.0259  magn=  0.1452
     atom  90 (R=0.065)  charge=  4.0224  magn=  0.1441
     atom  91 (R=0.065)  charge=  4.0249  magn=  0.1451
     atom  92 (R=0.065)  charge=  4.0211  magn=  0.1437
     atom  93 (R=0.065)  charge=  4.0471  magn=  0.1040
     atom  94 (R=0.065)  charge=  4.0440  magn=  0.1043
     atom  95 (R=0.065)  charge=  4.0499  magn=  0.1056
     atom  96 (R=0.065)  charge=  4.0449  magn=  0.1040
     atom  97 (R=0.065)  charge=  4.0363  magn=  0.1054
     atom  98 (R=0.065)  charge=  4.0918  magn=  0.0993
     atom  99 (R=0.065)  charge=  4.0692  magn=  0.0857
     atom 100 (R=0.065)  charge=  4.0413  magn=  0.0893
     atom 101 (R=0.065)  charge=  4.0430  magn=  0.0875
     atom 102 (R=0.065)  charge=  4.0422  magn=  0.0978
     atom 103 (R=0.065)  charge=  4.0898  magn=  0.0994
     atom 104 (R=0.065)  charge=  4.0482  magn=  0.0920
     atom 105 (R=0.087)  charge= 12.0408  magn=  3.8266
     atom 106 (R=0.087)  charge=  7.4485  magn=  1.4753
     atom 107 (R=0.087)  charge=  7.4406  magn=  1.5825
     atom 108 (R=0.087)  charge=  7.4490  magn=  1.4725
     atom 109 (R=0.087)  charge=  7.4740  magn=  1.5349
     atom 110 (R=0.087)  charge=  7.4604  magn=  1.5355
     atom 111 (R=0.087)  charge=  7.4393  magn=  1.5794
     atom 112 (R=0.087)  charge=  7.4475  magn=  1.4807
     atom 113 (R=0.087)  charge=  7.4394  magn=  1.5884
     atom 114 (R=0.087)  charge=  7.4510  magn=  1.4777
     atom 115 (R=0.087)  charge=  7.4680  magn=  1.5312
     atom 116 (R=0.087)  charge=  7.4630  magn=  1.5298
     atom 117 (R=0.065)  charge=  0.7534  magn=  0.0034
     atom 118 (R=0.065)  charge=  0.7282  magn=  0.0062
     atom 119 (R=0.065)  charge=  0.7477  magn=  0.0063
     atom 120 (R=0.065)  charge=  0.7392  magn=  0.0027
     atom 121 (R=0.065)  charge=  4.0422  magn=  0.1388
     atom 122 (R=0.065)  charge=  4.0264  magn=  0.1099
     atom 123 (R=0.065)  charge=  4.0221  magn=  0.1309
     atom 124 (R=0.065)  charge=  4.0194  magn=  0.1720
     atom 125 (R=0.065)  charge=  4.0098  magn=  0.0910
     atom 126 (R=0.065)  charge=  4.0529  magn=  0.0829
     atom 127 (R=0.065)  charge=  4.0512  magn=  0.1021
     atom 128 (R=0.065)  charge=  4.0003  magn=  0.0909
     atom 129 (R=0.065)  charge=  4.0331  magn=  0.0981
     atom 130 (R=0.065)  charge=  4.0999  magn=  0.0726
     atom 131 (R=0.065)  charge=  4.0374  magn=  0.0880
     atom 132 (R=0.065)  charge=  4.0437  magn=  0.0870
     atom 133 (R=0.065)  charge=  4.0745  magn=  0.0618
     atom 134 (R=0.065)  charge=  4.0377  magn=  0.0992
     atom 135 (R=0.065)  charge=  4.0885  magn=  0.0912
     atom 136 (R=0.065)  charge=  4.0418  magn=  0.0876
     atom 137 (R=0.065)  charge=  0.7493  magn=  0.0026
     atom 138 (R=0.065)  charge=  0.7369  magn=  0.0063
     atom 139 (R=0.065)  charge=  0.7473  magn=  0.0054
     atom 140 (R=0.065)  charge=  0.7290  magn=  0.0027
     atom 141 (R=0.065)  charge=  4.0231  magn=  0.1723
     atom 142 (R=0.065)  charge=  4.0204  magn=  0.1358
     atom 143 (R=0.065)  charge=  4.0265  magn=  0.1390
     atom 144 (R=0.065)  charge=  4.0190  magn=  0.1720
     atom 145 (R=0.065)  charge=  4.0002  magn=  0.0927
     atom 146 (R=0.065)  charge=  4.0454  magn=  0.1020
     atom 147 (R=0.065)  charge=  4.0513  magn=  0.1043
     atom 148 (R=0.065)  charge=  3.9999  magn=  0.0904
     atom 149 (R=0.065)  charge=  4.0326  magn=  0.0977
     atom 150 (R=0.065)  charge=  4.0904  magn=  0.0979
     atom 151 (R=0.065)  charge=  4.0662  magn=  0.0841
     atom 152 (R=0.065)  charge=  4.0431  magn=  0.0874
     atom 153 (R=0.065)  charge=  4.0418  magn=  0.0855
     atom 154 (R=0.065)  charge=  4.0413  magn=  0.0934
     atom 155 (R=0.065)  charge=  4.0885  magn=  0.0945
     atom 156 (R=0.065)  charge=  4.0455  magn=  0.0914

     total cpu time spent up to now is      612.2 secs

     End of self-consistent calculation

 ------ SPIN UP ------------


          k = 0.0000 0.0000 0.0000 ( 60684 PWs)   bands (ev):

   -80.0419 -79.7903 -79.7262 -48.9080 -48.7540 -48.7194 -48.5869 -48.5614
   -48.5299 -48.5032 -48.5006 -48.4480 -21.8185 -21.6747 -21.6355 -21.5048
   -21.4636 -21.4394 -21.4097 -21.3642 -21.3006 -21.2699 -21.2355 -21.1969
   -21.1466 -21.1034 -21.0177 -20.9994 -20.9857 -20.9614 -20.9172 -20.8943
   -20.7891 -20.6723 -20.5658 -20.5046 -19.2693 -19.2310 -19.2095 -19.1915
   -19.1695 -19.0936 -19.0887 -19.0514 -19.0118 -19.0090 -18.9933 -18.9698
   -18.9560 -18.9464 -18.9248 -18.8986 -18.8779 -18.8500 -18.8366 -18.8029
   -18.7938 -18.7876 -18.7636 -18.7512 -18.7401 -18.7343 -18.7290 -18.7129
   -18.7066 -18.7036 -18.6770 -18.6663 -18.6655 -18.6535 -18.6392 -18.6178
   -18.6133 -18.6025 -18.5839 -18.5711 -18.5641 -18.5591 -18.5426 -18.5384
   -18.5348 -18.5256 -18.5093 -18.4828 -18.4751 -18.4614 -18.4603 -18.4445
[...]
     atom   95 type  4   force =    -0.00039862    0.00762416    0.00344491
     atom   96 type  4   force =    -0.00043683    0.00194894   -0.00047398
     atom   97 type  4   force =    -0.00103007    0.00131019    0.00027677
     atom   98 type  4   force =     0.04059686   -0.13905469    0.00508501
     atom   99 type  4   force =    -0.06717214   -0.00088603   -0.00545893
     atom  100 type  4   force =    -0.00039557    0.00281291    0.00310604
     atom  101 type  4   force =    -0.00119917    0.00000035    0.00165570
     atom  102 type  4   force =    -0.00696280    0.00545732    0.00177925
     atom  103 type  4   force =    -0.03979888    0.13579957   -0.00376950
     atom  104 type  4   force =    -0.00597375   -0.01004005    0.00541966
     atom  105 type  2   force =    -0.00035630   -0.00065004    0.00017338
     atom  106 type  1   force =    -0.00049455   -0.00006630   -0.00004430
     atom  107 type  1   force =     0.00019501    0.00018181    0.00031732
     atom  108 type  1   force =     0.00025375   -0.00010086   -0.00000023
     atom  109 type  1   force =     0.00002429   -0.00025884    0.00059107
     atom  110 type  1   force =     0.00059026    0.00047807    0.00008880
     atom  111 type  1   force =    -0.00039981   -0.00053019    0.00029687
     atom  112 type  1   force =    -0.00084009   -0.00038289   -0.00017438
     atom  113 type  1   force =     0.00000467    0.00018065    0.00042281
     atom  114 type  1   force =     0.00023615   -0.00012579    0.00013223
     atom  115 type  1   force =     0.00000551   -0.00040886    0.00034479
     atom  116 type  1   force =     0.00051273    0.00054998    0.00002702
     atom  117 type  3   force =     0.00074212    0.00004605   -0.00014560
     atom  118 type  3   force =    -0.00006370   -0.00010338   -0.00001280
     atom  119 type  3   force =    -0.00009774   -0.00004055   -0.00011044
     atom  120 type  3   force =     0.00048063   -0.00004805   -0.00015029
     atom  121 type  4   force =    -0.00030524    0.00006626    0.00024593
     atom  122 type  4   force =    -0.00017361   -0.00037603    0.00007377
     atom  123 type  4   force =     0.00034077   -0.00033786   -0.00018252
     atom  124 type  4   force =     0.00004659   -0.00058163    0.00008065
     atom  125 type  4   force =    -0.00034670   -0.00018659   -0.00009595
     atom  126 type  4   force =    -0.00015940   -0.00017250   -0.00021173
     atom  127 type  4   force =     0.00011721   -0.00026781   -0.00020710
     atom  128 type  4   force =     0.00002639   -0.00005545   -0.00046161
     atom  129 type  4   force =     0.00038148   -0.00014107    0.00031794
     atom  130 type  4   force =    -0.00016769    0.00009137    0.00055324
     atom  131 type  4   force =     0.00001085   -0.00012055   -0.00027931
     atom  132 type  4   force =    -0.00026089   -0.00040545   -0.00028849
     atom  133 type  4   force =    -0.00017545   -0.00021005   -0.00054042
     atom  134 type  4   force =     0.00036971    0.00010389    0.00040415
     atom  135 type  4   force =    -0.00068532   -0.00021073    0.00020803
     atom  136 type  4   force =    -0.00023601   -0.00027962   -0.00065579
     atom  137 type  3   force =     0.00023414   -0.00043640    0.00008696
     atom  138 type  3   force =    -0.00041824    0.00008447   -0.00014980
     atom  139 type  3   force =    -0.00029817    0.00063403   -0.00030094
     atom  140 type  3   force =    -0.00029007    0.00050919   -0.00058203
     atom  141 type  4   force =    -0.00042271    0.00010456   -0.00010621
     atom  142 type  4   force =     0.00008908   -0.00037616    0.00046026
     atom  143 type  4   force =     0.00049041   -0.00059265    0.00019079
     atom  144 type  4   force =     0.00019362   -0.00046352    0.00023199
     atom  145 type  4   force =     0.00005879    0.00025313   -0.00063347
     atom  146 type  4   force =     0.00014429   -0.00019126    0.00003720
     atom  147 type  4   force =     0.00011451   -0.00040886    0.00012972
     atom  148 type  4   force =     0.00051512   -0.00016950    0.00027365
     atom  149 type  4   force =     0.00034933   -0.00035021    0.00064356
     atom  150 type  4   force =    -0.00008894   -0.00045242    0.00040358
     atom  151 type  4   force =    -0.00020399   -0.00045477   -0.00004432
     atom  152 type  4   force =     0.00018574   -0.00037964   -0.00010435
     atom  153 type  4   force =     0.00002219   -0.00060367   -0.00012469
     atom  154 type  4   force =     0.00009017   -0.00010940    0.00062665
     atom  155 type  4   force =    -0.00055463   -0.00017986   -0.00043619
     atom  156 type  4   force =     0.00015694    0.00014924   -0.00068180

     Total force =     0.004184     Total SCF correction =     0.000235
     Energy error            =      2.6E-05 Ry
     Gradient error          =      8.4E-04 Ry/Bohr

     bfgs converged in  31 scf cycles and  30 bfgs steps
     (criteria: energy <  1.0E-04 Ry, force <  1.0E-03 Ry/Bohr)

     End of BFGS Geometry Optimization

     Final energy             =   -7364.9881062655 Ry

     File ./tmp/pwscf.bfgs deleted, as requested
Begin final coordinates

ATOMIC_POSITIONS (angstrom)
Mn               2.2524368768        7.8410485731        1.0944930079    0   0   0
Ni               4.6534647676        7.2372933759        4.1358828713    0   0   0
Ni               0.0619603813        2.7507417195        1.1624492917    0   0   0
Ni               2.4219525798        2.2066470848        4.1670761125    0   0   0
Ni               9.3547912696       10.0189430711        2.6741067324    0   0   0
Ni               2.3579554440        4.9928972857        2.6501243588    0   0   0
Ni               6.9796879716        7.8094759467        1.1443701289    0   0   0
Ni               9.3096730862        7.2486592073        4.1284351004    0   0   0
Ni               4.7877892837        2.7388876079        1.1725773000    0   0   0
Ni               7.1245715506        2.1723741671        4.1694399165    0   0   0
Ni               4.7058610954       10.0111896155        2.6886960440    0   0   0
Ni               7.0530582306        4.9810850236        2.6650220320    0   0   0
P                1.9603854589        9.1147683914        4.0698380325    0   0   0
P                4.3608513788        5.9567469616        1.1939050591    0   0   0
P                2.7263470654        0.9622942144        1.2140079036    0   0   0
P                0.3711210654        4.0167855221        4.1202335978    0   0   0
O                1.2123972175        8.4423962275        2.8199377132    0   0   0
O                3.6291095674        6.6079529628        2.4699859713    0   0   0
O                3.4680363025        1.6061908509        2.4915522427    0   0   0
O                1.1093829690        3.3560280086        2.8459161781    0   0   0
O                1.3596349964        8.2903015831        5.2336828554    0   0   0
O                3.7923299398        6.7866788753        0.0163844299    0   0   0
O                3.3003412998        1.7802036414        0.0334799257    0   0   0
O                0.9531584297        3.1944778255        5.2983072187    0   0   0
O                0.9136186619        5.4788170066        4.0819089326    0   0   0
O                3.2629172638        9.6616373640        1.1898645376    0   0   0
O                3.5446225228        3.9575161178        4.0360174891    0   0   0
O                1.1879123926        1.0003050009        1.3045328856    0   0   0
O                1.1354873087        6.0172885221        1.2765753734    0   0   0
O                3.7965946052        4.5047793739        1.2182459258    0   0   0
O                1.4392974591        0.4186119975        4.0963933990    0   0   0
O                3.4959570534        9.0216820656        3.9870432133    0   0   0
P                6.6688818178        9.0818697660        4.0960414028    0   0   0
P                9.0062189322        5.9603600909        1.1829425170    0   0   0
P                7.4256001189        0.9086202570        1.2103239064    0   0   0
P                5.0827169838        3.9992509557        4.1313794687    0   0   0
O                5.9261601580        8.4217167502        2.8223938553    0   0   0
O                8.2821359139        6.6345837355        2.4588881476    0   0   0
O                8.1641303211        1.5714890624        2.4854417826    0   0   0
O                5.8185662143        3.3332742464        2.8578411459    0   0   0
O                6.0955409502        8.2542035613        5.2750312498    0   0   0
O                8.4431397248        6.8043561646        0.0100000000    0   0   0
O                8.0075057281        1.7308700581        0.0332247514    0   0   0
O                5.6616365268        3.1647127013        5.3018609112    0   0   0
O                5.6428606763        5.4543254211        4.1016661790    0   0   0
O                7.9606510584        9.6050043719        1.1943929801    0   0   0
O                8.2411397074        3.9394448823        4.0330602016    0   0   0
O                5.8887324813        0.9691066170        1.3088433286    0   0   0
O                5.8962744512        6.0206445220        1.2856208262    0   0   0
O                8.4527730620        4.5056460963        1.2143080338    0   0   0
O                6.1330998669        0.3849570199        4.1181705140    0   0   0
O                8.2056512655        9.0225139588        3.9944100718    0   0   0
Mn               2.2524368768        7.7240452976        6.9007574686    0   0   0
Ni               4.6534647676        7.1202901005        9.9421473320    0   0   0
Ni               0.0619603813        2.6337384440        6.9687137523    0   0   0
Ni               2.4219525798        2.0896438093        9.9733405731    0   0   0
Ni               9.3547912696        9.9019397956        8.4803711930    0   0   0
Ni               2.3579554440        4.8758940102        8.4563888194    0   0   0
Ni               6.9796879716        7.6924726712        6.9506345895    0   0   0
Ni               9.3096730862        7.1316559318        9.9346995611    0   0   0
Ni               4.7877892837        2.6218843324        6.9788417607    0   0   0
Ni               7.1245715506        2.0553708916        9.9757043771    0   0   0
Ni               4.7058610954        9.8941863400        8.4949605046    0   0   0
Ni               7.0530582306        4.8640817481        8.4712864926    0   0   0
P                1.9603854589        8.9977651159        9.8761024931    0   0   0
P                4.3608513788        5.8397436861        7.0001695197    0   0   0
P                2.7263470654        0.8452909389        7.0202723643    0   0   0
P                0.3711210654        3.8997822466        9.9264980585    0   0   0
O                1.2123972175        8.3253929520        8.6262021738    0   0   0
O                3.6291095674        6.4909496873        8.2762504319    0   0   0
O                3.4680363025        1.4891875754        8.2978167034    0   0   0
O                1.1093829690        3.2390247331        8.6521806387    0   0   0
O                1.3596349964        8.1732983076       11.0399473161    0   0   0
O                3.7923299398        6.6696755998        5.8226488906    0   0   0
O                3.3003412998        1.6632003659        5.8397443863    0   0   0
O                0.9531584297        3.0774745500       11.1045716794    0   0   0
O                0.9136186619        5.3618137311        9.8881733933    0   0   0
O                3.2629172638        9.5446340885        6.9961289982    0   0   0
O                3.5446225228        3.8405128423        9.8422819497    0   0   0
O                1.1879123926        0.8833017255        7.1107973462    0   0   0
O                1.1354873087        5.9002852466        7.0828398340    0   0   0
O                3.7965946052        4.3877760984        7.0245103864    0   0   0
O                1.4392974591        0.3016087220        9.9026578597    0   0   0
O                3.4959570534        8.9046787901        9.7933076739    0   0   0
P                6.6688818178        8.9648664905        9.9023058635    0   0   0
P                9.0062189322        5.8433568154        6.9892069777    0   0   0
P                7.4256001189        0.7916169815        7.0165883671    0   0   0
P                5.0827169838        3.8822476802        9.9376439293    0   0   0
O                5.9261601580        8.3047134747        8.6286583160    0   0   0
O                8.2821359139        6.5175804600        8.2651526082    0   0   0
O                8.1641303211        1.4544857869        8.2917062433    0   0   0
O                5.8185662143        3.2162709709        8.6641056065    0   0   0
O                6.0955409502        8.1372002858       11.0812957104    0   0   0
O                8.4431397248        6.6873528892        5.8162644607    0   0   0
O                8.0075057281        1.6138667826        5.8394892121    0   0   0
O                5.6616365268        3.0477094258       11.1081253719    0   0   0
O                5.6428606763        5.3373221456        9.9079306396    0   0   0
O                7.9606510584        9.4880010964        7.0006574408    0   0   0
O                8.2411397074        3.8224416068        9.8393246623    0   0   0
O                5.8887324813        0.8521033415        7.1151077892    0   0   0
O                5.8962744512        5.9036412465        7.0918852869    0   0   0
O                8.4527730620        4.3886428208        7.0205724944    0   0   0
O                6.1330998669        0.2679537444        9.9244349747    0   0   0
O                8.2056512655        8.9055106833        9.8006745325    0   0   0
Mn               2.2107952758        7.5951089824       12.7818673796
Ni               4.7310982182        6.9875975521       15.7044933141
Ni               0.0841027990        2.5142597602       12.8292673726
Ni               2.3370452506        1.9734655014       15.7128935784
Ni               9.4253758770        9.7923922775       14.3873584974
Ni               2.3223406500        4.7453192166       14.3436284877
Ni               6.9605286897        7.5523843773       12.8133110641
Ni               9.4016343163        7.0003620380       15.7308326871
Ni               4.7882095329        2.5044895689       12.8301279901
Ni               7.0182903211        1.9604613441       15.7005750131
Ni               4.7466608043        9.7872961508       14.3786698967
Ni               6.9959397761        4.7441011181       14.3561365579
P                2.0401337689        8.7592078010       15.9129087015
P                4.3252095275        5.7019815982       12.8420519656
P                2.7517700039        0.7059205276       12.8647891733
P                0.3356606283        3.7230955713       15.8496349505
O                1.2991956635        8.1721926699       14.5637209552
O                3.6045903734        6.3568998276       14.1209383597
O                3.4841895575        1.3535590197       14.1407766935
O                1.0713847859        3.1541021472       14.4848060906
O                1.4658955568        7.8545444921       16.9912639009
O                3.7671816707        6.5377367261       11.6621197154
O                3.3175733314        1.5108831086       11.6734328245
O                0.9046699099        2.8115345934       16.9264606545
O                0.8625825822        5.2004043385       15.8331469296
O                3.2951453310        9.3204708548       12.8959970667
O                3.4737543479        3.6873344736       15.7130044140
O                1.2166035330        0.7534699907       12.9776717095
O                1.1349972716        5.7906717368       12.9504214900
O                3.7573227007        4.2528139113       12.8607696103
O                1.5209994920        0.1631646868       15.8670385271
O                3.5839003784        8.7118757949       15.7486400773
P                6.7192386447        8.7461037434       15.8623219715
P                8.9620200760        5.7144096108       12.8385280997
P                7.4435343593        0.6652887911       12.8569771967
P                5.0200704761        3.7099581221       15.8525013922
O                5.9844186889        8.1772176381       14.4957380083
O                8.2577132344        6.3912162961       14.1178656104
O                8.1672201330        1.3418793990       14.1314873181
O                5.7594542832        3.1381370632       14.4894733367
O                6.1535149449        7.8300085574       16.9358319352
O                8.4124384941        6.5439519699       11.6506352503
O                8.0139937607        1.4848238670       11.6720997928
O                5.5768788397        2.7883377449       16.9255332512
O                5.5571391689        5.1831866809       15.8402572306
O                8.0063547276        9.2922288889       12.8933406119
O                8.1567110830        3.6844668955       15.7167019561
O                5.9072125753        0.7316563831       12.9674222915
O                5.8608199800        5.7739469280       12.9515367668
O                8.4148858663        4.2623932310       12.8715886979
O                6.1933444714        0.1488236000       15.8443820521
O                8.2665611132        8.7163290188       15.7379763388
End final coordinates



     Writing all to output data dir ./tmp/pwscf.save/
 
     init_run     :      6.01s CPU      6.68s WALL (       1 calls)
     electrons    :   8324.34s CPU   8777.86s WALL (      31 calls)
     update_pot   :     12.18s CPU     14.08s WALL (      30 calls)
     forces       :    118.49s CPU    133.48s WALL (      31 calls)
     force_london :      2.77s CPU      2.77s WALL (      31 calls)

     Called by init_run:
     wfcinit      :      3.38s CPU      3.51s WALL (       1 calls)
     potinit      :      0.66s CPU      0.86s WALL (       1 calls)
     hinit0       :      1.00s CPU      1.13s WALL (       1 calls)

     Called by electrons:
     c_bands      :   6417.01s CPU   6597.32s WALL (     673 calls)
     sum_band     :   1184.75s CPU   1282.47s WALL (     673 calls)
     v_of_rho     :    210.08s CPU    283.30s WALL (     689 calls)
     newd         :    361.29s CPU    438.92s WALL (     689 calls)
     mix_rho      :    158.75s CPU    161.87s WALL (     673 calls)
     energy_londo :      2.60s CPU      2.60s WALL (      31 calls)

     Called by c_bands:
     init_us_2    :     15.98s CPU     16.33s WALL (    2756 calls)
     init_us_2:cp :     15.97s CPU     16.32s WALL (    2756 calls)
     regterg      :   6277.00s CPU   6455.27s WALL (    1350 calls)

     Called by *egterg:
     rdiaghg      :   1480.00s CPU   1557.45s WALL (    4310 calls)
     h_psi        :   2534.89s CPU   2580.02s WALL (    4404 calls)
     s_psi        :    419.98s CPU    420.22s WALL (    4404 calls)
     g_psi        :      3.20s CPU      3.23s WALL (    3052 calls)

     Called by h_psi:
     h_psi:calbec :    672.19s CPU    708.12s WALL (    4404 calls)
     vloc_psi     :   1435.63s CPU   1440.63s WALL (    4404 calls)
     add_vuspsi   :    422.43s CPU    426.54s WALL (    4404 calls)

     General routines
     calbec       :   1038.75s CPU   1094.11s WALL (    5998 calls)
     fft          :    329.59s CPU    414.96s WALL (   12850 calls)
     ffts         :     99.91s CPU    100.14s WALL (   79172 calls)
     fftw         :   1668.82s CPU   1674.38s WALL ( 2272732 calls)
     interpolate  :     11.18s CPU     12.00s WALL (    1378 calls)
 
     Parallel routines
 
     PWSCF        :      2h21m CPU      2h29m WALL

 
   This run was terminated on:  12:57:21  17Nov2025            

=------------------------------------------------------------------------------=
   JOB DONE.
=------------------------------------------------------------------------------=
