
     Program PWSCF v.7.2 starts on 17Nov2025 at 20:19:36 

     This program is part of the open-source Quantum ESPRESSO suite
     for quantum simulation of materials; please cite
         "P. Giannozzi et al., J. Phys.:Condens. Matter 21 395502 (2009);
         "P. Giannozzi et al., J. Phys.:Condens. Matter 29 465901 (2017);
         "P. Giannozzi et al., J. Chem. Phys. 152 154105 (2020);
          URL http://www.quantum-espresso.org", 
     in publications or presentations arising from this work. More details at
     http://www.quantum-espresso.org/quote

     Parallel version (MPI), running on    64 processors

     MPI processes distributed on     4 nodes
     469516 MiB available memory on the printing compute node when the environment starts
 
     Reading input from PWINPUT_atm158_zp

     Current dimensions of program PWSCF are:
     Max number of different atomic species (ntypx) = 10
     Max number of k-points (npk) =  40000
     Max angular momentum in pseudopotentials (lmaxx) =  4
     Presently no symmetry can be used with electric field

     file Ni.pbe-n-rrkjus_psl.1.0.0.UPF: wavefunction(s)  3D renormalized
     file Mn.pbe-spn-rrkjus_psl.0.3.1.UPF: wavefunction(s)  3D renormalized
     file O.pbe-rrkjus.UPF: wavefunction(s)  2S renormalized
     file H.pbe-rrkjus.UPF: wavefunction(s)  1S renormalized

     gamma-point specific algorithms are used
 
     R & G space division:  proc/nbgrp/npool/nimage =      64
     Subspace diagonalization in iterative solution of the eigenvalue problem:
     one sub-group per band group will be used
     custom distributed-memory algorithm (size of sub-group:  7*  7 procs)

 
     Parallelization info
     --------------------
     sticks:   dense  smooth     PW     G-vecs:    dense   smooth      PW
     Min         214      85     20                61830    15614    1928
     Max         216      86     22                61864    15658    1982
     Sum       13727    5503   1375              3958051  1001255  125211
 
     Using Slab Decomposition
 


     bravais-lattice index     =            0
     lattice parameter (alat)  =      17.8532  a.u.
     unit-cell volume          =   20962.6682 (a.u.)^3
     number of atoms/cell      =          158
     number of atomic types    =            5
     number of electrons       =      1108.00
     number of Kohn-Sham states=          665
     kinetic-energy cutoff     =      50.0000  Ry
     charge density cutoff     =     500.0000  Ry
     scf convergence threshold =      1.0E-06
     mixing beta               =       0.1000
     number of iterations used =            8  local-TF  mixing
     Exchange-correlation=  SLA  PW   PBE  PBE
                           (   1   4   3   4   0   0   0)

     celldm(1)=  17.853155  celldm(2)=   0.000000  celldm(3)=   0.000000
     celldm(4)=   0.000000  celldm(5)=   0.000000  celldm(6)=   0.000000

     crystal axes: (cart. coord. in units of alat)
               a(1) = (   1.000000   0.000000   0.000000 )  
               a(2) = (   0.003237   1.081997   0.000000 )  
               a(3) = (   0.000000   0.000000   3.404673 )  

     reciprocal axes: (cart. coord. in units 2 pi/alat)
               b(1) = (  1.000000 -0.002992  0.000000 )  
               b(2) = (  0.000000  0.924217  0.000000 )  
               b(3) = (  0.000000  0.000000  0.293714 )  


     PseudoPot. # 1 for Ni read from file:
     ~/PSEUDO/Ni.pbe-n-rrkjus_psl.1.0.0.UPF
     MD5 check sum: Not computed, couldn't open file
     Pseudo is Ultrasoft + core correction, Zval = 10.0
     Generated using "atomic" code by A. Dal Corso  v.5.1.2
     Using radial grid of 1195 points,  6 beta functions with: 
                l(1) =   0
                l(2) =   0
                l(3) =   1
                l(4) =   1
                l(5) =   2
                l(6) =   2
     Q(r) pseudized with 0 coefficients 


     PseudoPot. # 2 for Mn read from file:
     ~/PSEUDO/Mn.pbe-spn-rrkjus_psl.0.3.1.UPF
     MD5 check sum: Not computed, couldn't open file
     Pseudo is Ultrasoft + core correction, Zval = 15.0
     Generated using &quot;atomic&quot; code by A. Dal Corso  v.6.2.2
     Using radial grid of 1187 points,  6 beta functions with: 
                l(1) =   0
                l(2) =   0
                l(3) =   1
                l(4) =   1
                l(5) =   2
                l(6) =   2
     Q(r) pseudized with 0 coefficients 


     PseudoPot. # 3 for P  read from file:
     ~/PSEUDO/P.pbe-n-rrkjus_psl.1.0.0.UPF
     MD5 check sum: Not computed, couldn't open file
     Pseudo is Ultrasoft + core correction, Zval =  5.0
     Generated using "atomic" code by A. Dal Corso  v.5.1
     Using radial grid of 1147 points,  6 beta functions with: 
                l(1) =   0
                l(2) =   0
                l(3) =   1
                l(4) =   1
                l(5) =   2
                l(6) =   2
     Q(r) pseudized with 0 coefficients 


     PseudoPot. # 4 for O  read from file:
     ~/PSEUDO/O.pbe-rrkjus.UPF
     MD5 check sum: Not computed, couldn't open file
     Pseudo is Ultrasoft, Zval =  6.0
     Generated by new atomic code, or converted to UPF format
     Using radial grid of 1269 points,  4 beta functions with: 
                l(1) =   0
                l(2) =   0
                l(3) =   1
                l(4) =   1
     Q(r) pseudized with 0 coefficients 


     PseudoPot. # 5 for H  read from file:
     ~/PSEUDO/H.pbe-rrkjus.UPF
     MD5 check sum: Not computed, couldn't open file
     Pseudo is Ultrasoft, Zval =  1.0
     Generated by new atomic code, or converted to UPF format
     Using radial grid of 1061 points,  2 beta functions with: 
                l(1) =   0
                l(2) =   0
     Q(r) pseudized with 0 coefficients 


     atomic species   valence    mass     pseudopotential
     Ni               10.00    58.69300     Ni( 1.00)
     Mn               15.00    54.93800     Mn( 1.00)
     P                 5.00    30.97300     P ( 1.00)
     O                 6.00    15.99900     O ( 1.00)
     H                 1.00     1.00790     H ( 1.00)

     Starting magnetic structure 
     atomic species   magnetization
     Ni              1.000
     Mn              1.000
     P               1.000
     O               1.000
     H               0.000

     No symmetry found



   Cartesian axes

     site n.     atom                  positions (alat units)
         1        Ni     tau(   1) = (   0.2448189   0.8359134   0.1216996  )
         2        Ni     tau(   2) = (   0.4920952   0.7731948   0.4438949  )
         3        Mn     tau(   3) = (   0.0113021   0.2918949   0.1160512  )
         4        Ni     tau(   4) = (   0.2586115   0.2268566   0.4417628  )
         5        Ni     tau(   5) = (   1.0019827   1.0705803   0.2835623  )
         6        Ni     tau(   6) = (   0.2518099   0.5339061   0.2823483  )
         7        Ni     tau(   7) = (   0.7400999   0.8349186   0.1225624  )
         8        Mn     tau(   8) = (   0.9886961   0.7700845   0.4492175  )
         9        Mn     tau(   9) = (   0.5113421   0.2944667   0.1158892  )
        10        Ni     tau(  10) = (   0.7560857   0.2263843   0.4422798  )
        11        Ni     tau(  11) = (   0.5009386   1.0712238   0.2822610  )
        12        Ni     tau(  12) = (   0.7496978   0.5336600   0.2834396  )
        13        P      tau(  13) = (   0.2147792   0.9686896   0.4382665  )
        14        P      tau(  14) = (   0.4607377   0.6441916   0.1265334  )
        15        P      tau(  15) = (   0.2883218   0.0913464   0.1265752  )
        16        P      tau(  16) = (   0.0408981   0.4221836   0.4354960  )
        17        O      tau(  17) = (   0.1380864   0.9007819   0.3023220  )
        18        O      tau(  18) = (   0.3817439   0.7113683   0.2624610  )
        19        O      tau(  19) = (   0.3638364   0.1608547   0.2624417  )
        20        O      tau(  20) = (   0.1207568   0.3545755   0.3021219  )
        21        O      tau(  21) = (   0.1552194   0.8797563   0.5625160  )
        22        O      tau(  22) = (   0.4022820   0.7317969   0.0010585  )
        23        O      tau(  23) = (   0.3454844   0.1823965   0.0026336  )
        24        O      tau(  24) = (   0.1017019   0.3344979   0.5594858  )
        25        O      tau(  25) = (   0.0970074   0.5770714   0.4346455  )
        26        O      tau(  26) = (   0.3534166   1.0203677   0.1270707  )
        27        O      tau(  27) = (   0.3778024   0.4172402   0.4261028  )
        28        O      tau(  28) = (   0.1256171   0.0954063   0.1372153  )
        29        O      tau(  29) = (   0.1232168   0.6482422   0.1385172  )
        30        O      tau(  30) = (   0.4028533   0.4897833   0.1289718  )
        31        O      tau(  31) = (   0.1511050   0.0405554   0.4369979  )
        32        O      tau(  32) = (   0.3776556   0.9624293   0.4288159  )
        33        P      tau(  33) = (   0.7084770   0.9682119   0.4394551  )
        34        P      tau(  34) = (   0.9603154   0.6409658   0.1292469  )
        35        P      tau(  35) = (   0.7875734   0.0899770   0.1274098  )
        36        P      tau(  36) = (   0.5405152   0.4272620   0.4364455  )
        37        O      tau(  37) = (   0.6323583   0.8977630   0.3036670  )
        38        O      tau(  38) = (   0.8809646   0.7091921   0.2627111  )
        39        O      tau(  39) = (   0.8631054   0.1587239   0.2636487  )
        40        O      tau(  40) = (   0.6202581   0.3578380   0.3034239  )
        41        O      tau(  41) = (   0.6499160   0.8772596   0.5630912  )
        42        O      tau(  42) = (   0.8990171   0.7283464   0.0054426  )
        43        O      tau(  43) = (   0.8448361   0.1806154   0.0030658  )
        44        O      tau(  44) = (   0.6023096   0.3392612   0.5600469  )
        45        O      tau(  45) = (   0.5960222   0.5826131   0.4346340  )
        46        O      tau(  46) = (   0.8515023   1.0184215   0.1281632  )
        47        O      tau(  47) = (   0.8779640   0.4148900   0.4260983  )
        48        O      tau(  48) = (   0.6251159   0.0957170   0.1376895  )
        49        O      tau(  49) = (   0.6237654   0.6481585   0.1378370  )
        50        O      tau(  50) = (   0.9038046   0.4863338   0.1307354  )
        51        O      tau(  51) = (   0.6458737   0.0402574   0.4377979  )
        52        O      tau(  52) = (   0.8712434   0.9635255   0.4285638  )
        53        Ni     tau(  53) = (   0.2420320   0.8169913   0.7491577  )
        54        Ni     tau(  54) = (   0.4893084   0.7542727   1.0713530  )
        55        Mn     tau(  55) = (   0.0085152   0.2729728   0.7435093  )
        56        Ni     tau(  56) = (   0.2558246   0.2079345   1.0692209  )
        57        Ni     tau(  57) = (   0.9991959   1.0516583   0.9110204  )
        58        Ni     tau(  58) = (   0.2490231   0.5149840   0.9098064  )
        59        Ni     tau(  59) = (   0.7373131   0.8159965   0.7500205  )
        60        Mn     tau(  60) = (   0.9859093   0.7511625   1.0766756  )
        61        Mn     tau(  61) = (   0.5085552   0.2755447   0.7433473  )
        62        Ni     tau(  62) = (   0.7532989   0.2074622   1.0697379  )
        63        Ni     tau(  63) = (   0.4981517   1.0523018   0.9097191  )
        64        Ni     tau(  64) = (   0.7469109   0.5147379   0.9108977  )
        65        P      tau(  65) = (   0.2119924   0.9497675   1.0657246  )
        66        P      tau(  66) = (   0.4579509   0.6252695   0.7539915  )
        67        P      tau(  67) = (   0.2855349   0.0724244   0.7540333  )
        68        P      tau(  68) = (   0.0381112   0.4032615   1.0629541  )
        69        O      tau(  69) = (   0.1352995   0.8818598   0.9297801  )
        70        O      tau(  70) = (   0.3789570   0.6924463   0.8899191  )
        71        O      tau(  71) = (   0.3610496   0.1419327   0.8898998  )
        72        O      tau(  72) = (   0.1179700   0.3356534   0.9295800  )
        73        O      tau(  73) = (   0.1524325   0.8608343   1.1899741  )
        74        O      tau(  74) = (   0.3994952   0.7128748   0.6285166  )
        75        O      tau(  75) = (   0.3426976   0.1634744   0.6300917  )
        76        O      tau(  76) = (   0.0989151   0.3155758   1.1869439  )
        77        O      tau(  77) = (   0.0942206   0.5581494   1.0621036  )
        78        O      tau(  78) = (   0.3506297   1.0014456   0.7545288  )
        79        O      tau(  79) = (   0.3750155   0.3983181   1.0535609  )
        80        O      tau(  80) = (   0.1228303   0.0764842   0.7646734  )
        81        O      tau(  81) = (   0.1204299   0.6293201   0.7659753  )
        82        O      tau(  82) = (   0.4000664   0.4708612   0.7564299  )
        83        O      tau(  83) = (   0.1483182   0.0216333   1.0644560  )
        84        O      tau(  84) = (   0.3748687   0.9435072   1.0562740  )
        85        P      tau(  85) = (   0.7056901   0.9492898   1.0669132  )
        86        P      tau(  86) = (   0.9575286   0.6220438   0.7567050  )
        87        P      tau(  87) = (   0.7847866   0.0710549   0.7548679  )
        88        P      tau(  88) = (   0.5377283   0.4083400   1.0639036  )
        89        O      tau(  89) = (   0.6295714   0.8788409   0.9311251  )
        90        O      tau(  90) = (   0.8781778   0.6902700   0.8901692  )
        91        O      tau(  91) = (   0.8603186   0.1398018   0.8911068  )
        92        O      tau(  92) = (   0.6174712   0.3389159   0.9308820  )
        93        O      tau(  93) = (   0.6471291   0.8583376   1.1905493  )
        94        O      tau(  94) = (   0.8962302   0.7094244   0.6329007  )
        95        O      tau(  95) = (   0.8420493   0.1616933   0.6305239  )
        96        O      tau(  96) = (   0.5995227   0.3203391   1.1875050  )
        97        O      tau(  97) = (   0.5932354   0.5636910   1.0620921  )
        98        O      tau(  98) = (   0.8487155   0.9994995   0.7556213  )
        99        O      tau(  99) = (   0.8751772   0.3959680   1.0535564  )
       100        O      tau( 100) = (   0.6223291   0.0767949   0.7651476  )
       101        O      tau( 101) = (   0.6209785   0.6292365   0.7652951  )
       102        O      tau( 102) = (   0.9010178   0.4674118   0.7581935  )
       103        O      tau( 103) = (   0.6430869   0.0213354   1.0652560  )
       104        O      tau( 104) = (   0.8684566   0.9446034   1.0560219  )
       105        Ni     tau( 105) = (   0.2423630   0.7994359   1.3760354  )
       106        Ni     tau( 106) = (   0.4993973   0.7391311   1.6804864  )
       107        Mn     tau( 107) = (   0.0089498   0.2581752   1.3751757  )
       108        Ni     tau( 108) = (   0.2555203   0.1875480   1.7147440  )
       109        Ni     tau( 109) = (   1.0007969   1.0339332   1.5383184  )
       110        Ni     tau( 110) = (   0.2460225   0.4956919   1.5440603  )
       111        Ni     tau( 111) = (   0.7359931   0.8001260   1.3774046  )
       112        Mn     tau( 112) = (   0.9973763   0.7324626   1.6978130  )
       113        Mn     tau( 113) = (   0.5067604   0.2591059   1.3740250  )
       114        Ni     tau( 114) = (   0.7428480   0.1952512   1.6837944  )
       115        Ni     tau( 115) = (   0.4987731   1.0381547   1.5410978  )
       116        Ni     tau( 116) = (   0.7427219   0.4966249   1.5424991  )
       117        P      tau( 117) = (   0.2131870   0.9257933   1.6916587  )
       118        P      tau( 118) = (   0.4559119   0.6044880   1.3805992  )
       119        P      tau( 119) = (   0.2850881   0.0578616   1.3821893  )
       120        P      tau( 120) = (   0.0323162   0.3787027   1.6982374  )
       121        O      tau( 121) = (   0.1347071   0.8640073   1.5492256  )
       122        O      tau( 122) = (   0.3772882   0.6717903   1.5162818  )
       123        O      tau( 123) = (   0.3593898   0.1286559   1.5165302  )
       124        O      tau( 124) = (   0.1109838   0.3262818   1.5555432  )
       125        O      tau( 125) = (   0.1539942   0.8264869   1.8062921  )
       126        O      tau( 126) = (   0.3971693   0.6924762   1.2552325  )
       127        O      tau( 127) = (   0.3421563   0.1469372   1.2562216  )
       128        O      tau( 128) = (   0.0898411   0.2811759   1.8130034  )
       129        O      tau( 129) = (   0.0853118   0.5370915   1.7040182  )
       130        O      tau( 130) = (   0.3491208   0.9864055   1.3828534  )
       131        O      tau( 131) = (   0.3706482   0.3857699   1.6886489  )
       132        O      tau( 132) = (   0.1216767   0.0634913   1.3916025  )
       133        O      tau( 133) = (   0.1193436   0.6078482   1.3967511  )
       134        O      tau( 134) = (   0.3973442   0.4503950   1.3837012  )
       135        O      tau( 135) = (   0.1487970  -0.0030508   1.6922434  )
       136        O      tau( 136) = (   0.3761859   0.9190075   1.6784506  )
       137        P      tau( 137) = (   0.7099731   0.9276212   1.6969971  )
       138        P      tau( 138) = (   0.9565988   0.6017915   1.3869988  )
       139        P      tau( 139) = (   0.7850320   0.0557964   1.3814017  )
       140        P      tau( 140) = (   0.5341584   0.3909479   1.7019963  )
       141        O      tau( 141) = (   0.6329335   0.8686924   1.5518520  )
       142        O      tau( 142) = (   0.8798187   0.6672706   1.5242031  )
       143        O      tau( 143) = (   0.8611821   0.1236672   1.5173706  )
       144        O      tau( 144) = (   0.6104268   0.3268639   1.5598222  )
       145        O      tau( 145) = (   0.6499567   0.8294727   1.8098310  )
       146        O      tau( 146) = (   0.8965323   0.6932672   1.2652725  )
       147        O      tau( 147) = (   0.8423135   0.1469704   1.2572506  )
       148        O      tau( 148) = (   0.5974078   0.2970599   1.8177101  )
       149        O      tau( 149) = (   0.5903229   0.5473287   1.6970866  )
       150        O      tau( 150) = (   0.8477944   0.9841351   1.3810722  )
       151        O      tau( 151) = (   0.8683058   0.3760079   1.6828064  )
       152        O      tau( 152) = (   0.6224566   0.0643770   1.3939749  )
       153        O      tau( 153) = (   0.6187923   0.6106371   1.3938596  )
       154        O      tau( 154) = (   0.8971193   0.4481891   1.3841611  )
       155        O      tau( 155) = (   0.6540414   0.0026232   1.6976259  )
       156        O      tau( 156) = (   0.8743841   0.9191802   1.6841294  )
       157        O      tau( 157) = (   0.3743733   0.1030868   1.8397344  )
       158        H      tau( 158) = (   0.4562925   0.1635293   1.8658773  )

     -------------------------------------------------
     Parameters for Dispersion (Grimme-D2) Correction:
     -------------------------------------------------
       atom      VdW radius       C_6     

        Ni         2.952        374.666
        Mn         2.952        374.666
        P          3.222        271.980
        O          2.536         24.284
        H          1.892          4.857

     number of k points=     1  Gaussian smearing, width (Ry)=  0.0100
                       cart. coord. in units 2pi/alat
        k(    1) = (   0.0000000   0.0000000   0.0000000), wk =   1.0000000

     Dense  grid:  1979026 G-vectors     FFT dimensions: ( 128, 144, 450)

     Smooth grid:   500628 G-vectors     FFT dimensions: (  81,  90, 288)

     Estimated max dynamical RAM per process >     333.40 MB

     Estimated total dynamical RAM >      20.84 GB

     Check: negative core charge=   -0.000002
     Generating pointlists ...
     new r_m :   0.0792 (alat units)  1.4143 (a.u.) for type    1
     new r_m :   0.0876 (alat units)  1.5646 (a.u.) for type    2
     new r_m :   0.0665 (alat units)  1.1867 (a.u.) for type    3
     new r_m :   0.0434 (alat units)  0.7741 (a.u.) for type    4
     new r_m :   0.0434 (alat units)  0.7741 (a.u.) for type    5

     Initial potential from superposition of free atoms

     starting charge    1107.8886, renormalised to    1108.0000

     negative rho (up, down):  1.529E-03 4.672E-04
 
     Adding external electric field

     Computed dipole along edir(3) : 
        Dipole                1.6326 Ry au,          4.1495 Debye
        Dipole field          0.0010 Ry au, 
 
        Potential amp.       -0.1071 Ry
        Total length         54.7057 bohr
 
 
     Adding external electric field

     Computed dipole along edir(3) : 
        Dipole                1.6326 Ry au,          4.1495 Debye
        Dipole field          0.0010 Ry au, 
 
        Potential amp.       -0.1071 Ry
        Total length         54.7057 bohr
 
     Starting wfcs are  818 randomized atomic wfcs

     total cpu time spent up to now is       10.7 secs

     Self-consistent Calculation

     iteration #  1     ecut=    50.00 Ry     beta= 0.10
     Davidson diagonalization with overlap
     ethr =  1.00E-02,  avg # of iterations =  5.5

     negative rho (up, down):  4.297E-01 4.091E-07
 
     Adding external electric field

     Computed dipole along edir(3) : 
        Dipole               -3.8157 Ry au,         -9.6985 Debye
        Dipole field         -0.0023 Ry au, 
 
        Potential amp.        0.2503 Ry
        Total length         54.7057 bohr
 
 
     Adding external electric field

     Computed dipole along edir(3) : 
        Dipole               -3.8157 Ry au,         -9.6985 Debye
        Dipole field         -0.0023 Ry au, 
 
        Potential amp.        0.2503 Ry
        Total length         54.7057 bohr
 

     total cpu time spent up to now is       39.1 secs

     total energy              =   -7856.63167771 Ry
     estimated scf accuracy    <     749.75006714 Ry

     total magnetization       =   222.00 Bohr mag/cell
     absolute magnetization    =   319.66 Bohr mag/cell

     iteration #  2     ecut=    50.00 Ry     beta= 0.10
     Davidson diagonalization with overlap
     ethr =  1.00E-02,  avg # of iterations =  2.0

     negative rho (up, down):  4.070E-01 2.492E-07
 
     Adding external electric field

     Computed dipole along edir(3) : 
        Dipole               -2.5414 Ry au,         -6.4596 Debye
        Dipole field         -0.0015 Ry au, 
 
        Potential amp.        0.1667 Ry
        Total length         54.7057 bohr
 
 
     Adding external electric field

     Computed dipole along edir(3) : 
        Dipole               -2.5414 Ry au,         -6.4596 Debye
        Dipole field         -0.0015 Ry au, 
 
        Potential amp.        0.1667 Ry
        Total length         54.7057 bohr
 

     total cpu time spent up to now is       56.3 secs

     total energy              =   -7939.01124056 Ry
     estimated scf accuracy    <     220.65984409 Ry

     total magnetization       =   168.43 Bohr mag/cell
     absolute magnetization    =   214.61 Bohr mag/cell

     iteration #  3     ecut=    50.00 Ry     beta= 0.10
     Davidson diagonalization with overlap
     ethr =  1.00E-02,  avg # of iterations =  1.5

     negative rho (up, down):  3.653E-01 2.333E-07
 
     Adding external electric field

     Computed dipole along edir(3) : 
        Dipole               -2.2478 Ry au,         -5.7134 Debye
        Dipole field         -0.0013 Ry au, 
 
        Potential amp.        0.1474 Ry
        Total length         54.7057 bohr
 
 
     Adding external electric field

     Computed dipole along edir(3) : 
        Dipole               -2.2478 Ry au,         -5.7134 Debye
        Dipole field         -0.0013 Ry au, 
 
        Potential amp.        0.1474 Ry
        Total length         54.7057 bohr
 

     total cpu time spent up to now is       70.0 secs

     total energy              =   -7967.26604804 Ry
     estimated scf accuracy    <     104.96989517 Ry

     total magnetization       =   144.12 Bohr mag/cell
     absolute magnetization    =   192.87 Bohr mag/cell

     iteration #  4     ecut=    50.00 Ry     beta= 0.10
     Davidson diagonalization with overlap
     ethr =  9.47E-03,  avg # of iterations =  1.0

     negative rho (up, down):  2.920E-01 8.169E-08
 
     Adding external electric field

     Computed dipole along edir(3) : 
        Dipole               -2.0445 Ry au,         -5.1967 Debye
        Dipole field         -0.0012 Ry au, 
 
        Potential amp.        0.1341 Ry
        Total length         54.7057 bohr
 
 
     Adding external electric field

     Computed dipole along edir(3) : 
        Dipole               -2.0445 Ry au,         -5.1967 Debye
        Dipole field         -0.0012 Ry au, 
 
        Potential amp.        0.1341 Ry
        Total length         54.7057 bohr
 

     total cpu time spent up to now is       82.9 secs

     total energy              =   -7999.62882395 Ry
     estimated scf accuracy    <      86.34784462 Ry

     total magnetization       =   128.95 Bohr mag/cell
     absolute magnetization    =   179.22 Bohr mag/cell

     iteration #  5     ecut=    50.00 Ry     beta= 0.10
     Davidson diagonalization with overlap
     ethr =  7.79E-03,  avg # of iterations =  1.0

     negative rho (up, down):  6.350E-02 1.216E-08
 
     Adding external electric field

     Computed dipole along edir(3) : 
        Dipole               -1.6071 Ry au,         -4.0848 Debye
        Dipole field         -0.0010 Ry au, 
 
        Potential amp.        0.1054 Ry
        Total length         54.7057 bohr
 
 
     Adding external electric field

     Computed dipole along edir(3) : 
        Dipole               -1.6071 Ry au,         -4.0848 Debye
        Dipole field         -0.0010 Ry au, 
 
        Potential amp.        0.1054 Ry
        Total length         54.7057 bohr
 

     total cpu time spent up to now is       95.8 secs

     total energy              =   -8058.77836737 Ry
     estimated scf accuracy    <      69.99349992 Ry

     total magnetization       =   106.83 Bohr mag/cell
     absolute magnetization    =   160.51 Bohr mag/cell

     iteration #  6     ecut=    50.00 Ry     beta= 0.10
     Davidson diagonalization with overlap
     ethr =  6.32E-03,  avg # of iterations =  1.0

     negative rho (up, down):  9.379E-04 1.641E-03
 
     Adding external electric field

     Computed dipole along edir(3) : 
        Dipole               -1.1829 Ry au,         -3.0066 Debye
        Dipole field         -0.0007 Ry au, 
 
        Potential amp.        0.0776 Ry
        Total length         54.7057 bohr
 
 
     Adding external electric field

     Computed dipole along edir(3) : 
        Dipole               -1.1829 Ry au,         -3.0066 Debye
        Dipole field         -0.0007 Ry au, 
 
        Potential amp.        0.0776 Ry
        Total length         54.7057 bohr
 

     total cpu time spent up to now is      108.5 secs

     total energy              =   -8076.04165254 Ry
     estimated scf accuracy    <      19.32144242 Ry

     total magnetization       =   100.00 Bohr mag/cell
     absolute magnetization    =   134.91 Bohr mag/cell

     iteration #  7     ecut=    50.00 Ry     beta= 0.10
     Davidson diagonalization with overlap
     ethr =  1.74E-03,  avg # of iterations =  6.0

     negative rho (up, down):  9.253E-04 1.624E-03
 
     Adding external electric field

     Computed dipole along edir(3) : 
        Dipole               -1.1819 Ry au,         -3.0040 Debye
        Dipole field         -0.0007 Ry au, 
 
        Potential amp.        0.0775 Ry
        Total length         54.7057 bohr
 
 
     Adding external electric field

     Computed dipole along edir(3) : 
        Dipole               -1.1819 Ry au,         -3.0040 Debye
        Dipole field         -0.0007 Ry au, 
 
        Potential amp.        0.0775 Ry
        Total length         54.7057 bohr
 

     total cpu time spent up to now is      129.3 secs

     total energy              =   -8078.85437644 Ry
     estimated scf accuracy    <      28.97719015 Ry

     total magnetization       =    69.73 Bohr mag/cell
     absolute magnetization    =    87.30 Bohr mag/cell

     iteration #  8     ecut=    50.00 Ry     beta= 0.10
     Davidson diagonalization with overlap
     ethr =  1.74E-03,  avg # of iterations =  1.0

     negative rho (up, down):  9.349E-04 1.733E-03
 
     Adding external electric field

     Computed dipole along edir(3) : 
        Dipole               -1.1738 Ry au,         -2.9835 Debye
        Dipole field         -0.0007 Ry au, 
 
        Potential amp.        0.0770 Ry
        Total length         54.7057 bohr
 
 
     Adding external electric field

     Computed dipole along edir(3) : 
        Dipole               -1.1738 Ry au,         -2.9835 Debye
        Dipole field         -0.0007 Ry au, 
 
        Potential amp.        0.0770 Ry
        Total length         54.7057 bohr
 

     total cpu time spent up to now is      141.7 secs

     total energy              =   -8079.05934333 Ry
     estimated scf accuracy    <      28.92708117 Ry

     total magnetization       =    69.80 Bohr mag/cell
     absolute magnetization    =    86.91 Bohr mag/cell

     iteration #  9     ecut=    50.00 Ry     beta= 0.10
     Davidson diagonalization with overlap
     ethr =  1.74E-03,  avg # of iterations =  1.0

     negative rho (up, down):  8.435E-04 1.613E-03
 
     Adding external electric field

     Computed dipole along edir(3) : 
        Dipole               -1.1793 Ry au,         -2.9976 Debye
        Dipole field         -0.0007 Ry au, 
 
        Potential amp.        0.0774 Ry
        Total length         54.7057 bohr
 
 
     Adding external electric field

     Computed dipole along edir(3) : 
        Dipole               -1.1793 Ry au,         -2.9976 Debye
        Dipole field         -0.0007 Ry au, 
 
        Potential amp.        0.0774 Ry
        Total length         54.7057 bohr
 

     total cpu time spent up to now is      154.3 secs

     total energy              =   -8078.89802408 Ry
     estimated scf accuracy    <      31.46112235 Ry

     total magnetization       =    68.69 Bohr mag/cell
     absolute magnetization    =    85.59 Bohr mag/cell

     iteration # 10     ecut=    50.00 Ry     beta= 0.10
     Davidson diagonalization with overlap
     ethr =  1.74E-03,  avg # of iterations =  1.0

     negative rho (up, down):  4.631E-04 1.051E-03
 
     Adding external electric field

     Computed dipole along edir(3) : 
        Dipole               -1.2186 Ry au,         -3.0973 Debye
        Dipole field         -0.0007 Ry au, 
 
        Potential amp.        0.0799 Ry
        Total length         54.7057 bohr
 
 
     Adding external electric field

     Computed dipole along edir(3) : 
        Dipole               -1.2186 Ry au,         -3.0973 Debye
        Dipole field         -0.0007 Ry au, 
 
        Potential amp.        0.0799 Ry
        Total length         54.7057 bohr
 

     total cpu time spent up to now is      167.0 secs

     total energy              =   -8078.13307947 Ry
     estimated scf accuracy    <      27.84294558 Ry

     total magnetization       =    69.92 Bohr mag/cell
     absolute magnetization    =    86.13 Bohr mag/cell

     iteration # 11     ecut=    50.00 Ry     beta= 0.10
     Davidson diagonalization with overlap
     ethr =  1.74E-03,  avg # of iterations =  1.0

     negative rho (up, down):  3.706E-04 8.993E-04
 
     Adding external electric field

     Computed dipole along edir(3) : 
        Dipole               -1.2589 Ry au,         -3.1998 Debye
        Dipole field         -0.0008 Ry au, 
 
        Potential amp.        0.0826 Ry
        Total length         54.7057 bohr
 
 
     Adding external electric field

     Computed dipole along edir(3) : 
        Dipole               -1.2589 Ry au,         -3.1998 Debye
        Dipole field         -0.0008 Ry au, 
 
        Potential amp.        0.0826 Ry
        Total length         54.7057 bohr
 

     total cpu time spent up to now is      179.0 secs

     total energy              =   -8078.09224851 Ry
     estimated scf accuracy    <      13.70311462 Ry

     total magnetization       =    81.41 Bohr mag/cell
     absolute magnetization    =    93.99 Bohr mag/cell

     iteration # 12     ecut=    50.00 Ry     beta= 0.10
     Davidson diagonalization with overlap
     ethr =  1.24E-03,  avg # of iterations =  1.0

     negative rho (up, down):  3.276E-04 8.691E-04
 
     Adding external electric field

     Computed dipole along edir(3) : 
        Dipole               -1.2350 Ry au,         -3.1391 Debye
        Dipole field         -0.0007 Ry au, 
 
        Potential amp.        0.0810 Ry
        Total length         54.7057 bohr
 
 
     Adding external electric field

     Computed dipole along edir(3) : 
        Dipole               -1.2350 Ry au,         -3.1391 Debye
        Dipole field         -0.0007 Ry au, 
 
        Potential amp.        0.0810 Ry
        Total length         54.7057 bohr
 

     total cpu time spent up to now is      190.8 secs

     total energy              =   -8078.23920759 Ry
     estimated scf accuracy    <       4.57875795 Ry

     total magnetization       =    90.56 Bohr mag/cell
     absolute magnetization    =   100.18 Bohr mag/cell

     iteration # 13     ecut=    50.00 Ry     beta= 0.10
     Davidson diagonalization with overlap
     ethr =  4.13E-04,  avg # of iterations =  5.5

     negative rho (up, down):  2.628E-04 9.394E-04
 
     Adding external electric field

     Computed dipole along edir(3) : 
        Dipole               -1.1954 Ry au,         -3.0384 Debye
        Dipole field         -0.0007 Ry au, 
 
        Potential amp.        0.0784 Ry
        Total length         54.7057 bohr
 
 
     Adding external electric field

     Computed dipole along edir(3) : 
        Dipole               -1.1954 Ry au,         -3.0384 Debye
        Dipole field         -0.0007 Ry au, 
 
        Potential amp.        0.0784 Ry
        Total length         54.7057 bohr
 

     total cpu time spent up to now is      205.4 secs

     total energy              =   -8078.26867586 Ry
     estimated scf accuracy    <       2.32864195 Ry

     total magnetization       =    93.61 Bohr mag/cell
     absolute magnetization    =   102.28 Bohr mag/cell

     iteration # 14     ecut=    50.00 Ry     beta= 0.10
     Davidson diagonalization with overlap
     ethr =  2.10E-04,  avg # of iterations =  2.0

     negative rho (up, down):  2.122E-04 7.204E-04
 
     Adding external electric field

     Computed dipole along edir(3) : 
        Dipole               -1.1699 Ry au,         -2.9737 Debye
        Dipole field         -0.0007 Ry au, 
 
        Potential amp.        0.0767 Ry
        Total length         54.7057 bohr
 
 
     Adding external electric field

     Computed dipole along edir(3) : 
        Dipole               -1.1699 Ry au,         -2.9737 Debye
        Dipole field         -0.0007 Ry au, 
 
        Potential amp.        0.0767 Ry
        Total length         54.7057 bohr
 

     total cpu time spent up to now is      218.9 secs

     total energy              =   -8078.34643382 Ry
     estimated scf accuracy    <       1.36348414 Ry

     total magnetization       =    95.66 Bohr mag/cell
     absolute magnetization    =   103.06 Bohr mag/cell

     iteration # 15     ecut=    50.00 Ry     beta= 0.10
     Davidson diagonalization with overlap
     ethr =  1.23E-04,  avg # of iterations = 12.0

     negative rho (up, down):  1.515E-04 4.273E-04
 
     Adding external electric field

     Computed dipole along edir(3) : 
        Dipole               -1.1466 Ry au,         -2.9144 Debye
        Dipole field         -0.0007 Ry au, 
 
        Potential amp.        0.0752 Ry
        Total length         54.7057 bohr
 
 
     Adding external electric field

     Computed dipole along edir(3) : 
        Dipole               -1.1466 Ry au,         -2.9144 Debye
        Dipole field         -0.0007 Ry au, 
 
        Potential amp.        0.0752 Ry
        Total length         54.7057 bohr
 

     total cpu time spent up to now is      243.6 secs

     total energy              =   -8078.40072197 Ry
     estimated scf accuracy    <       1.02824410 Ry

     total magnetization       =    97.98 Bohr mag/cell
     absolute magnetization    =   104.31 Bohr mag/cell

     iteration # 16     ecut=    50.00 Ry     beta= 0.10
     Davidson diagonalization with overlap
     ethr =  9.28E-05,  avg # of iterations =  1.5

     negative rho (up, down):  2.836E-05 7.308E-05
 
     Adding external electric field

     Computed dipole along edir(3) : 
        Dipole               -1.0494 Ry au,         -2.6673 Debye
        Dipole field         -0.0006 Ry au, 
 
        Potential amp.        0.0688 Ry
        Total length         54.7057 bohr
 
 
     Adding external electric field

     Computed dipole along edir(3) : 
        Dipole               -1.0494 Ry au,         -2.6673 Debye
        Dipole field         -0.0006 Ry au, 
 
        Potential amp.        0.0688 Ry
        Total length         54.7057 bohr
 

     total cpu time spent up to now is      256.4 secs

     total energy              =   -8078.44165772 Ry
     estimated scf accuracy    <       0.86081544 Ry

     total magnetization       =    97.95 Bohr mag/cell
     absolute magnetization    =   103.94 Bohr mag/cell

     iteration # 17     ecut=    50.00 Ry     beta= 0.10
     Davidson diagonalization with overlap
     ethr =  7.77E-05,  avg # of iterations =  2.0

     negative rho (up, down):  1.809E-05 6.170E-05
 
     Adding external electric field

     Computed dipole along edir(3) : 
        Dipole               -1.0128 Ry au,         -2.5742 Debye
        Dipole field         -0.0006 Ry au, 
 
        Potential amp.        0.0664 Ry
        Total length         54.7057 bohr
 
 
     Adding external electric field

     Computed dipole along edir(3) : 
        Dipole               -1.0128 Ry au,         -2.5742 Debye
        Dipole field         -0.0006 Ry au, 
 
        Potential amp.        0.0664 Ry
        Total length         54.7057 bohr
 

     total cpu time spent up to now is      269.8 secs

     total energy              =   -8078.45506233 Ry
     estimated scf accuracy    <       0.60464710 Ry

     total magnetization       =    96.57 Bohr mag/cell
     absolute magnetization    =   101.43 Bohr mag/cell

     iteration # 18     ecut=    50.00 Ry     beta= 0.10
     Davidson diagonalization with overlap
     ethr =  5.46E-05,  avg # of iterations =  2.0

     negative rho (up, down):  2.928E-05 7.572E-05
 
     Adding external electric field

     Computed dipole along edir(3) : 
        Dipole               -1.0367 Ry au,         -2.6351 Debye
        Dipole field         -0.0006 Ry au, 
 
        Potential amp.        0.0680 Ry
        Total length         54.7057 bohr
 
 
     Adding external electric field

     Computed dipole along edir(3) : 
        Dipole               -1.0367 Ry au,         -2.6351 Debye
        Dipole field         -0.0006 Ry au, 
 
        Potential amp.        0.0680 Ry
        Total length         54.7057 bohr
 

     total cpu time spent up to now is      283.4 secs

     total energy              =   -8078.45400838 Ry
     estimated scf accuracy    <       0.62157694 Ry

     total magnetization       =    95.69 Bohr mag/cell
     absolute magnetization    =   100.24 Bohr mag/cell

     iteration # 19     ecut=    50.00 Ry     beta= 0.10
     Davidson diagonalization with overlap
     ethr =  5.46E-05,  avg # of iterations =  2.0

     negative rho (up, down):  5.741E-06 1.658E-05
 
     Adding external electric field

     Computed dipole along edir(3) : 
        Dipole               -0.8893 Ry au,         -2.2604 Debye
        Dipole field         -0.0005 Ry au, 
 
        Potential amp.        0.0583 Ry
        Total length         54.7057 bohr
 
 
     Adding external electric field

     Computed dipole along edir(3) : 
        Dipole               -0.8893 Ry au,         -2.2604 Debye
        Dipole field         -0.0005 Ry au, 
 
        Potential amp.        0.0583 Ry
        Total length         54.7057 bohr
 

     total cpu time spent up to now is      296.9 secs

     total energy              =   -8078.50135101 Ry
     estimated scf accuracy    <       0.43542890 Ry

     total magnetization       =    96.90 Bohr mag/cell
     absolute magnetization    =   101.45 Bohr mag/cell

     iteration # 20     ecut=    50.00 Ry     beta= 0.10
     Davidson diagonalization with overlap
     ethr =  3.93E-05,  avg # of iterations =  2.0

     negative rho (up, down):  2.982E-06 9.074E-06
 
     Adding external electric field

     Computed dipole along edir(3) : 
        Dipole               -0.9086 Ry au,         -2.3094 Debye
        Dipole field         -0.0005 Ry au, 
 
        Potential amp.        0.0596 Ry
        Total length         54.7057 bohr
 
 
     Adding external electric field

     Computed dipole along edir(3) : 
        Dipole               -0.9086 Ry au,         -2.3094 Debye
        Dipole field         -0.0005 Ry au, 
 
        Potential amp.        0.0596 Ry
        Total length         54.7057 bohr
 

     total cpu time spent up to now is      311.2 secs

     total energy              =   -8078.53560326 Ry
     estimated scf accuracy    <       1.16335894 Ry

     total magnetization       =    94.28 Bohr mag/cell
     absolute magnetization    =    97.34 Bohr mag/cell

     iteration # 21     ecut=    50.00 Ry     beta= 0.10
     Davidson diagonalization with overlap
     ethr =  3.93E-05,  avg # of iterations =  1.5

     negative rho (up, down):  5.577E-06 8.810E-06
 
     Adding external electric field

     Computed dipole along edir(3) : 
        Dipole               -0.8951 Ry au,         -2.2751 Debye
        Dipole field         -0.0005 Ry au, 
 
        Potential amp.        0.0587 Ry
        Total length         54.7057 bohr
 
 
     Adding external electric field

     Computed dipole along edir(3) : 
        Dipole               -0.8951 Ry au,         -2.2751 Debye
        Dipole field         -0.0005 Ry au, 
 
        Potential amp.        0.0587 Ry
        Total length         54.7057 bohr
 

     total cpu time spent up to now is      323.8 secs

     total energy              =   -8078.54604170 Ry
     estimated scf accuracy    <       0.64612940 Ry

     total magnetization       =    95.39 Bohr mag/cell
     absolute magnetization    =    98.33 Bohr mag/cell

     iteration # 22     ecut=    50.00 Ry     beta= 0.10
     Davidson diagonalization with overlap
     ethr =  3.93E-05,  avg # of iterations =  1.5

     negative rho (up, down):  2.476E-06 3.424E-06
 
     Adding external electric field

     Computed dipole along edir(3) : 
        Dipole               -0.8880 Ry au,         -2.2572 Debye
        Dipole field         -0.0005 Ry au, 
 
        Potential amp.        0.0582 Ry
        Total length         54.7057 bohr
 
 
     Adding external electric field

     Computed dipole along edir(3) : 
        Dipole               -0.8880 Ry au,         -2.2572 Debye
        Dipole field         -0.0005 Ry au, 
 
        Potential amp.        0.0582 Ry
        Total length         54.7057 bohr
 

     total cpu time spent up to now is      336.4 secs

     total energy              =   -8078.54741141 Ry
     estimated scf accuracy    <       0.67155094 Ry

     total magnetization       =    95.26 Bohr mag/cell
     absolute magnetization    =    97.98 Bohr mag/cell

     iteration # 23     ecut=    50.00 Ry     beta= 0.10
     Davidson diagonalization with overlap
     ethr =  3.93E-05,  avg # of iterations =  1.5

     negative rho (up, down):  1.348E-05 3.190E-06
 
     Adding external electric field

     Computed dipole along edir(3) : 
        Dipole               -0.8653 Ry au,         -2.1993 Debye
        Dipole field         -0.0005 Ry au, 
 
        Potential amp.        0.0568 Ry
        Total length         54.7057 bohr
 
 
     Adding external electric field

     Computed dipole along edir(3) : 
        Dipole               -0.8653 Ry au,         -2.1993 Debye
        Dipole field         -0.0005 Ry au, 
 
        Potential amp.        0.0568 Ry
        Total length         54.7057 bohr
 

     total cpu time spent up to now is      349.3 secs

     total energy              =   -8078.55005582 Ry
     estimated scf accuracy    <       0.40644482 Ry

     total magnetization       =    96.02 Bohr mag/cell
     absolute magnetization    =    98.43 Bohr mag/cell

     iteration # 24     ecut=    50.00 Ry     beta= 0.10
     Davidson diagonalization with overlap
     ethr =  3.67E-05,  avg # of iterations =  1.5

     negative rho (up, down):  2.252E-05 1.879E-06
 
     Adding external electric field

     Computed dipole along edir(3) : 
        Dipole               -0.8546 Ry au,         -2.1723 Debye
        Dipole field         -0.0005 Ry au, 
 
        Potential amp.        0.0561 Ry
        Total length         54.7057 bohr
 
 
     Adding external electric field

     Computed dipole along edir(3) : 
        Dipole               -0.8546 Ry au,         -2.1723 Debye
        Dipole field         -0.0005 Ry au, 
 
        Potential amp.        0.0561 Ry
        Total length         54.7057 bohr
 

     total cpu time spent up to now is      361.9 secs

     total energy              =   -8078.54506546 Ry
     estimated scf accuracy    <       0.38254857 Ry

     total magnetization       =    96.13 Bohr mag/cell
     absolute magnetization    =    98.25 Bohr mag/cell

     iteration # 25     ecut=    50.00 Ry     beta= 0.10
     Davidson diagonalization with overlap
     ethr =  3.45E-05,  avg # of iterations =  1.5

     negative rho (up, down):  6.566E-06 2.658E-07
 
     Adding external electric field

     Computed dipole along edir(3) : 
        Dipole               -0.8361 Ry au,         -2.1251 Debye
        Dipole field         -0.0005 Ry au, 
 
        Potential amp.        0.0548 Ry
        Total length         54.7057 bohr
 
 
     Adding external electric field

     Computed dipole along edir(3) : 
        Dipole               -0.8361 Ry au,         -2.1251 Debye
        Dipole field         -0.0005 Ry au, 
 
        Potential amp.        0.0548 Ry
        Total length         54.7057 bohr
 

     total cpu time spent up to now is      374.7 secs

     total energy              =   -8078.53267954 Ry
     estimated scf accuracy    <       0.30074299 Ry

     total magnetization       =    96.49 Bohr mag/cell
     absolute magnetization    =    98.47 Bohr mag/cell

     iteration # 26     ecut=    50.00 Ry     beta= 0.10
     Davidson diagonalization with overlap
     ethr =  2.71E-05,  avg # of iterations =  3.0

     negative rho (up, down):  1.947E-07 0.000E+00
 
     Adding external electric field

     Computed dipole along edir(3) : 
        Dipole               -0.8025 Ry au,         -2.0398 Debye
        Dipole field         -0.0005 Ry au, 
 
        Potential amp.        0.0526 Ry
        Total length         54.7057 bohr
 
 
     Adding external electric field

     Computed dipole along edir(3) : 
        Dipole               -0.8025 Ry au,         -2.0398 Debye
        Dipole field         -0.0005 Ry au, 
 
        Potential amp.        0.0526 Ry
        Total length         54.7057 bohr
 

     total cpu time spent up to now is      388.8 secs

     total energy              =   -8078.52933683 Ry
     estimated scf accuracy    <       0.18930039 Ry

     total magnetization       =    96.90 Bohr mag/cell
     absolute magnetization    =    98.88 Bohr mag/cell

     iteration # 27     ecut=    50.00 Ry     beta= 0.10
     Davidson diagonalization with overlap
     ethr =  1.71E-05,  avg # of iterations = 12.5

     negative rho (up, down):  5.543E-07 2.652E-07
 
     Adding external electric field

     Computed dipole along edir(3) : 
        Dipole               -0.7603 Ry au,         -1.9325 Debye
        Dipole field         -0.0005 Ry au, 
 
        Potential amp.        0.0499 Ry
        Total length         54.7057 bohr
 
 
     Adding external electric field

     Computed dipole along edir(3) : 
        Dipole               -0.7603 Ry au,         -1.9325 Debye
        Dipole field         -0.0005 Ry au, 
 
        Potential amp.        0.0499 Ry
        Total length         54.7057 bohr
 

     total cpu time spent up to now is      415.4 secs

     total energy              =   -8078.53433673 Ry
     estimated scf accuracy    <       0.13765453 Ry

     total magnetization       =    97.09 Bohr mag/cell
     absolute magnetization    =    99.00 Bohr mag/cell

     iteration # 28     ecut=    50.00 Ry     beta= 0.10
     Davidson diagonalization with overlap
     ethr =  1.24E-05,  avg # of iterations =  2.0

     negative rho (up, down):  2.287E-07 6.405E-08
 
     Adding external electric field

     Computed dipole along edir(3) : 
        Dipole               -0.7746 Ry au,         -1.9689 Debye
        Dipole field         -0.0005 Ry au, 
 
        Potential amp.        0.0508 Ry
        Total length         54.7057 bohr
 
 
     Adding external electric field

     Computed dipole along edir(3) : 
        Dipole               -0.7746 Ry au,         -1.9689 Debye
        Dipole field         -0.0005 Ry au, 
 
        Potential amp.        0.0508 Ry
        Total length         54.7057 bohr
 

     total cpu time spent up to now is      429.0 secs

     total energy              =   -8078.54323089 Ry
     estimated scf accuracy    <       0.14468365 Ry

     total magnetization       =    96.78 Bohr mag/cell
     absolute magnetization    =    98.73 Bohr mag/cell

     iteration # 29     ecut=    50.00 Ry     beta= 0.10
     Davidson diagonalization with overlap
     ethr =  1.24E-05,  avg # of iterations =  2.0

     negative rho (up, down):  1.228E-06 4.794E-07
 
     Adding external electric field

     Computed dipole along edir(3) : 
        Dipole               -0.7147 Ry au,         -1.8165 Debye
        Dipole field         -0.0004 Ry au, 
 
        Potential amp.        0.0469 Ry
        Total length         54.7057 bohr
 
 
     Adding external electric field

     Computed dipole along edir(3) : 
        Dipole               -0.7147 Ry au,         -1.8165 Debye
        Dipole field         -0.0004 Ry au, 
 
        Potential amp.        0.0469 Ry
        Total length         54.7057 bohr
 

     total cpu time spent up to now is      442.7 secs

     total energy              =   -8078.54920659 Ry
     estimated scf accuracy    <       0.13466246 Ry

     total magnetization       =    96.94 Bohr mag/cell
     absolute magnetization    =    98.91 Bohr mag/cell

     iteration # 30     ecut=    50.00 Ry     beta= 0.10
     Davidson diagonalization with overlap
     ethr =  1.22E-05,  avg # of iterations =  1.5

     negative rho (up, down):  1.455E-06 5.863E-07
 
     Adding external electric field

     Computed dipole along edir(3) : 
        Dipole               -0.6959 Ry au,         -1.7689 Debye
        Dipole field         -0.0004 Ry au, 
 
        Potential amp.        0.0456 Ry
        Total length         54.7057 bohr
 
 
     Adding external electric field

     Computed dipole along edir(3) : 
        Dipole               -0.6959 Ry au,         -1.7689 Debye
        Dipole field         -0.0004 Ry au, 
 
        Potential amp.        0.0456 Ry
        Total length         54.7057 bohr
 

     total cpu time spent up to now is      455.4 secs

     total energy              =   -8078.54960276 Ry
     estimated scf accuracy    <       0.13151229 Ry

     total magnetization       =    96.97 Bohr mag/cell
     absolute magnetization    =    98.83 Bohr mag/cell

     iteration # 31     ecut=    50.00 Ry     beta= 0.10
     Davidson diagonalization with overlap
     ethr =  1.19E-05,  avg # of iterations =  1.0

     negative rho (up, down):  2.372E-06 1.514E-06
 
     Adding external electric field

     Computed dipole along edir(3) : 
        Dipole               -0.6293 Ry au,         -1.5996 Debye
        Dipole field         -0.0004 Ry au, 
 
        Potential amp.        0.0413 Ry
        Total length         54.7057 bohr
 
 
     Adding external electric field

     Computed dipole along edir(3) : 
        Dipole               -0.6293 Ry au,         -1.5996 Debye
        Dipole field         -0.0004 Ry au, 
 
        Potential amp.        0.0413 Ry
        Total length         54.7057 bohr
 

     total cpu time spent up to now is      467.4 secs

     total energy              =   -8078.54906984 Ry
     estimated scf accuracy    <       0.12513552 Ry

     total magnetization       =    96.96 Bohr mag/cell
     absolute magnetization    =    98.78 Bohr mag/cell

     iteration # 32     ecut=    50.00 Ry     beta= 0.10
     Davidson diagonalization with overlap
     ethr =  1.13E-05,  avg # of iterations =  2.0

     negative rho (up, down):  2.262E-06 1.322E-06
 
     Adding external electric field

     Computed dipole along edir(3) : 
        Dipole               -0.5604 Ry au,         -1.4244 Debye
        Dipole field         -0.0003 Ry au, 
 
        Potential amp.        0.0368 Ry
        Total length         54.7057 bohr
 
 
     Adding external electric field

     Computed dipole along edir(3) : 
        Dipole               -0.5604 Ry au,         -1.4244 Debye
        Dipole field         -0.0003 Ry au, 
 
        Potential amp.        0.0368 Ry
        Total length         54.7057 bohr
 

     total cpu time spent up to now is      481.0 secs

     total energy              =   -8078.54456761 Ry
     estimated scf accuracy    <       0.10247041 Ry

     total magnetization       =    97.01 Bohr mag/cell
     absolute magnetization    =    98.81 Bohr mag/cell

     iteration # 33     ecut=    50.00 Ry     beta= 0.10
     Davidson diagonalization with overlap
     ethr =  9.25E-06,  avg # of iterations =  2.0

     negative rho (up, down):  2.282E-06 1.387E-06
 
     Adding external electric field

     Computed dipole along edir(3) : 
        Dipole               -0.5494 Ry au,         -1.3965 Debye
        Dipole field         -0.0003 Ry au, 
 
        Potential amp.        0.0360 Ry
        Total length         54.7057 bohr
 
 
     Adding external electric field

     Computed dipole along edir(3) : 
        Dipole               -0.5494 Ry au,         -1.3965 Debye
        Dipole field         -0.0003 Ry au, 
 
        Potential amp.        0.0360 Ry
        Total length         54.7057 bohr
 

     total cpu time spent up to now is      494.6 secs

     total energy              =   -8078.54180687 Ry
     estimated scf accuracy    <       0.09553943 Ry

     total magnetization       =    97.12 Bohr mag/cell
     absolute magnetization    =    98.88 Bohr mag/cell

     iteration # 34     ecut=    50.00 Ry     beta= 0.10
     Davidson diagonalization with overlap
     ethr =  8.62E-06,  avg # of iterations = 12.0

     negative rho (up, down):  1.311E-05 9.661E-06
 
     Adding external electric field

     Computed dipole along edir(3) : 
        Dipole               -0.5608 Ry au,         -1.4253 Debye
        Dipole field         -0.0003 Ry au, 
 
        Potential amp.        0.0368 Ry
        Total length         54.7057 bohr
 
 
     Adding external electric field

     Computed dipole along edir(3) : 
        Dipole               -0.5608 Ry au,         -1.4253 Debye
        Dipole field         -0.0003 Ry au, 
 
        Potential amp.        0.0368 Ry
        Total length         54.7057 bohr
 

     total cpu time spent up to now is      519.3 secs

     total energy              =   -8078.56019469 Ry
     estimated scf accuracy    <       0.09768763 Ry

     total magnetization       =    97.21 Bohr mag/cell
     absolute magnetization    =    98.98 Bohr mag/cell

     iteration # 35     ecut=    50.00 Ry     beta= 0.10
     Davidson diagonalization with overlap
     ethr =  8.62E-06,  avg # of iterations =  1.0

     negative rho (up, down):  1.104E-05 7.506E-06
 
     Adding external electric field

     Computed dipole along edir(3) : 
        Dipole               -0.5514 Ry au,         -1.4016 Debye
        Dipole field         -0.0003 Ry au, 
 
        Potential amp.        0.0362 Ry
        Total length         54.7057 bohr
 
 
     Adding external electric field

     Computed dipole along edir(3) : 
        Dipole               -0.5514 Ry au,         -1.4016 Debye
        Dipole field         -0.0003 Ry au, 
 
        Potential amp.        0.0362 Ry
        Total length         54.7057 bohr
 

     total cpu time spent up to now is      531.4 secs

     total energy              =   -8078.55948070 Ry
     estimated scf accuracy    <       0.08641200 Ry

     total magnetization       =    96.82 Bohr mag/cell
     absolute magnetization    =    98.24 Bohr mag/cell

     iteration # 36     ecut=    50.00 Ry     beta= 0.10
     Davidson diagonalization with overlap
     ethr =  7.80E-06,  avg # of iterations =  2.0

     negative rho (up, down):  7.175E-06 6.490E-06
 
     Adding external electric field

     Computed dipole along edir(3) : 
        Dipole               -0.5263 Ry au,         -1.3378 Debye
        Dipole field         -0.0003 Ry au, 
 
        Potential amp.        0.0345 Ry
        Total length         54.7057 bohr
 
 
     Adding external electric field

     Computed dipole along edir(3) : 
        Dipole               -0.5263 Ry au,         -1.3378 Debye
        Dipole field         -0.0003 Ry au, 
 
        Potential amp.        0.0345 Ry
        Total length         54.7057 bohr
 

     total cpu time spent up to now is      544.9 secs

     total energy              =   -8078.56327310 Ry
     estimated scf accuracy    <       0.08571210 Ry

     total magnetization       =    96.93 Bohr mag/cell
     absolute magnetization    =    98.40 Bohr mag/cell

     iteration # 37     ecut=    50.00 Ry     beta= 0.10
     Davidson diagonalization with overlap
     ethr =  7.74E-06,  avg # of iterations =  1.5

     negative rho (up, down):  9.167E-06 6.798E-06
 
     Adding external electric field

     Computed dipole along edir(3) : 
        Dipole               -0.5716 Ry au,         -1.4530 Debye
        Dipole field         -0.0003 Ry au, 
 
        Potential amp.        0.0375 Ry
        Total length         54.7057 bohr
 
 
     Adding external electric field

     Computed dipole along edir(3) : 
        Dipole               -0.5716 Ry au,         -1.4530 Debye
        Dipole field         -0.0003 Ry au, 
 
        Potential amp.        0.0375 Ry
        Total length         54.7057 bohr
 

     total cpu time spent up to now is      557.7 secs

     total energy              =   -8078.56055770 Ry
     estimated scf accuracy    <       0.08771491 Ry

     total magnetization       =    96.86 Bohr mag/cell
     absolute magnetization    =    98.38 Bohr mag/cell

     iteration # 38     ecut=    50.00 Ry     beta= 0.10
     Davidson diagonalization with overlap
     ethr =  7.74E-06,  avg # of iterations =  1.0

     negative rho (up, down):  4.469E-06 3.778E-06
 
     Adding external electric field

     Computed dipole along edir(3) : 
        Dipole               -0.5584 Ry au,         -1.4192 Debye
        Dipole field         -0.0003 Ry au, 
 
        Potential amp.        0.0366 Ry
        Total length         54.7057 bohr
 
 
     Adding external electric field

     Computed dipole along edir(3) : 
        Dipole               -0.5584 Ry au,         -1.4192 Debye
        Dipole field         -0.0003 Ry au, 
 
        Potential amp.        0.0366 Ry
        Total length         54.7057 bohr
 

     total cpu time spent up to now is      569.6 secs

     total energy              =   -8078.55969162 Ry
     estimated scf accuracy    <       0.08744859 Ry

     total magnetization       =    96.98 Bohr mag/cell
     absolute magnetization    =    98.46 Bohr mag/cell

     iteration # 39     ecut=    50.00 Ry     beta= 0.10
     Davidson diagonalization with overlap
     ethr =  7.74E-06,  avg # of iterations =  1.0

     negative rho (up, down):  5.499E-06 4.705E-06
 
     Adding external electric field

     Computed dipole along edir(3) : 
        Dipole               -0.5583 Ry au,         -1.4191 Debye
        Dipole field         -0.0003 Ry au, 
 
        Potential amp.        0.0366 Ry
        Total length         54.7057 bohr
 
 
     Adding external electric field

     Computed dipole along edir(3) : 
        Dipole               -0.5583 Ry au,         -1.4191 Debye
        Dipole field         -0.0003 Ry au, 
 
        Potential amp.        0.0366 Ry
        Total length         54.7057 bohr
 

     total cpu time spent up to now is      581.6 secs

     total energy              =   -8078.56074846 Ry
     estimated scf accuracy    <       0.08592274 Ry

     total magnetization       =    96.99 Bohr mag/cell
     absolute magnetization    =    98.57 Bohr mag/cell

     iteration # 40     ecut=    50.00 Ry     beta= 0.10
     Davidson diagonalization with overlap
     ethr =  7.74E-06,  avg # of iterations =  1.5

     negative rho (up, down):  4.365E-06 2.977E-06
 
     Adding external electric field

     Computed dipole along edir(3) : 
        Dipole               -0.4966 Ry au,         -1.2623 Debye
        Dipole field         -0.0003 Ry au, 
 
        Potential amp.        0.0326 Ry
        Total length         54.7057 bohr
 
 
     Adding external electric field

     Computed dipole along edir(3) : 
        Dipole               -0.4966 Ry au,         -1.2623 Debye
        Dipole field         -0.0003 Ry au, 
 
        Potential amp.        0.0326 Ry
        Total length         54.7057 bohr
 

     total cpu time spent up to now is      594.5 secs

     total energy              =   -8078.55890514 Ry
     estimated scf accuracy    <       0.08595150 Ry

     total magnetization       =    96.86 Bohr mag/cell
     absolute magnetization    =    98.43 Bohr mag/cell

     iteration # 41     ecut=    50.00 Ry     beta= 0.10
     Davidson diagonalization with overlap
     ethr =  7.74E-06,  avg # of iterations =  1.0

     negative rho (up, down):  1.919E-06 1.242E-06
 
     Adding external electric field

     Computed dipole along edir(3) : 
        Dipole               -0.4501 Ry au,         -1.1441 Debye
        Dipole field         -0.0003 Ry au, 
 
        Potential amp.        0.0295 Ry
        Total length         54.7057 bohr
 
 
     Adding external electric field

     Computed dipole along edir(3) : 
        Dipole               -0.4501 Ry au,         -1.1441 Debye
        Dipole field         -0.0003 Ry au, 
 
        Potential amp.        0.0295 Ry
        Total length         54.7057 bohr
 

     total cpu time spent up to now is      606.0 secs

     total energy              =   -8078.55877891 Ry
     estimated scf accuracy    <       0.08192135 Ry

     total magnetization       =    96.97 Bohr mag/cell
     absolute magnetization    =    98.42 Bohr mag/cell

     iteration # 42     ecut=    50.00 Ry     beta= 0.10
     Davidson diagonalization with overlap
     ethr =  7.39E-06,  avg # of iterations =  1.5

     negative rho (up, down):  1.057E-06 8.478E-07
 
     Adding external electric field

     Computed dipole along edir(3) : 
        Dipole               -0.4698 Ry au,         -1.1941 Debye
        Dipole field         -0.0003 Ry au, 
 
        Potential amp.        0.0308 Ry
        Total length         54.7057 bohr
 
 
     Adding external electric field

     Computed dipole along edir(3) : 
        Dipole               -0.4698 Ry au,         -1.1941 Debye
        Dipole field         -0.0003 Ry au, 
 
        Potential amp.        0.0308 Ry
        Total length         54.7057 bohr
 

     total cpu time spent up to now is      619.7 secs

     total energy              =   -8078.56153953 Ry
     estimated scf accuracy    <       0.07808753 Ry

     total magnetization       =    96.91 Bohr mag/cell
     absolute magnetization    =    98.28 Bohr mag/cell

     iteration # 43     ecut=    50.00 Ry     beta= 0.10
     Davidson diagonalization with overlap
     ethr =  7.05E-06,  avg # of iterations =  1.0

     negative rho (up, down):  1.324E-06 1.083E-06
 
     Adding external electric field

     Computed dipole along edir(3) : 
        Dipole               -0.4531 Ry au,         -1.1517 Debye
        Dipole field         -0.0003 Ry au, 
 
        Potential amp.        0.0297 Ry
        Total length         54.7057 bohr
 
 
     Adding external electric field

     Computed dipole along edir(3) : 
        Dipole               -0.4531 Ry au,         -1.1517 Debye
        Dipole field         -0.0003 Ry au, 
 
        Potential amp.        0.0297 Ry
        Total length         54.7057 bohr
 

     total cpu time spent up to now is      632.7 secs

     total energy              =   -8078.56345613 Ry
     estimated scf accuracy    <       0.07239252 Ry

     total magnetization       =    96.90 Bohr mag/cell
     absolute magnetization    =    98.29 Bohr mag/cell

     iteration # 44     ecut=    50.00 Ry     beta= 0.10
     Davidson diagonalization with overlap
     ethr =  6.53E-06,  avg # of iterations =  1.5

     negative rho (up, down):  2.602E-06 2.554E-06
 
     Adding external electric field

     Computed dipole along edir(3) : 
        Dipole               -0.5124 Ry au,         -1.3024 Debye
        Dipole field         -0.0003 Ry au, 
 
        Potential amp.        0.0336 Ry
        Total length         54.7057 bohr
 
 
     Adding external electric field

     Computed dipole along edir(3) : 
        Dipole               -0.5124 Ry au,         -1.3024 Debye
        Dipole field         -0.0003 Ry au, 
 
        Potential amp.        0.0336 Ry
        Total length         54.7057 bohr
 

     total cpu time spent up to now is      646.9 secs

     total energy              =   -8078.56498426 Ry
     estimated scf accuracy    <       0.07119460 Ry

     total magnetization       =    96.84 Bohr mag/cell
     absolute magnetization    =    98.19 Bohr mag/cell

     iteration # 45     ecut=    50.00 Ry     beta= 0.10
     Davidson diagonalization with overlap
     ethr =  6.43E-06,  avg # of iterations =  1.5

     negative rho (up, down):  3.464E-06 3.326E-06
 
     Adding external electric field

     Computed dipole along edir(3) : 
        Dipole               -0.5278 Ry au,         -1.3415 Debye
        Dipole field         -0.0003 Ry au, 
 
        Potential amp.        0.0346 Ry
        Total length         54.7057 bohr
 
 
     Adding external electric field

     Computed dipole along edir(3) : 
        Dipole               -0.5278 Ry au,         -1.3415 Debye
        Dipole field         -0.0003 Ry au, 
 
        Potential amp.        0.0346 Ry
        Total length         54.7057 bohr
 

     total cpu time spent up to now is      661.2 secs

     total energy              =   -8078.56521105 Ry
     estimated scf accuracy    <       0.06749963 Ry

     total magnetization       =    96.85 Bohr mag/cell
     absolute magnetization    =    98.14 Bohr mag/cell

     iteration # 46     ecut=    50.00 Ry     beta= 0.10
     Davidson diagonalization with overlap
     ethr =  6.09E-06,  avg # of iterations =  1.0

     negative rho (up, down):  2.492E-03 2.838E-03
 
     Adding external electric field

     Computed dipole along edir(3) : 
        Dipole               -0.2652 Ry au,         -0.6740 Debye
        Dipole field         -0.0002 Ry au, 
 
        Potential amp.        0.0174 Ry
        Total length         54.7057 bohr
 
 
     Adding external electric field

     Computed dipole along edir(3) : 
        Dipole               -0.2652 Ry au,         -0.6740 Debye
        Dipole field         -0.0002 Ry au, 
 
        Potential amp.        0.0174 Ry
        Total length         54.7057 bohr
 

     total cpu time spent up to now is      674.4 secs

     total energy              =   -8078.56201718 Ry
     estimated scf accuracy    <       0.06946258 Ry

     total magnetization       =    96.88 Bohr mag/cell
     absolute magnetization    =    98.19 Bohr mag/cell

     iteration # 47     ecut=    50.00 Ry     beta= 0.10
     Davidson diagonalization with overlap
     ethr =  6.09E-06,  avg # of iterations =  3.0

     negative rho (up, down):  1.724E-04 1.950E-04
 
     Adding external electric field

     Computed dipole along edir(3) : 
        Dipole               -0.3643 Ry au,         -0.9260 Debye
        Dipole field         -0.0002 Ry au, 
 
        Potential amp.        0.0239 Ry
        Total length         54.7057 bohr
 
 
     Adding external electric field

     Computed dipole along edir(3) : 
        Dipole               -0.3643 Ry au,         -0.9260 Debye
        Dipole field         -0.0002 Ry au, 
 
        Potential amp.        0.0239 Ry
        Total length         54.7057 bohr
 

     total cpu time spent up to now is      690.3 secs

     total energy              =   -8078.56372995 Ry
     estimated scf accuracy    <       0.06388708 Ry

     total magnetization       =    96.77 Bohr mag/cell
     absolute magnetization    =    98.10 Bohr mag/cell

     iteration # 48     ecut=    50.00 Ry     beta= 0.10
     Davidson diagonalization with overlap
     ethr =  5.77E-06,  avg # of iterations =  2.0

     negative rho (up, down):  7.187E-04 8.062E-04
 
     Adding external electric field

     Computed dipole along edir(3) : 
        Dipole               -0.2727 Ry au,         -0.6930 Debye
        Dipole field         -0.0002 Ry au, 
 
        Potential amp.        0.0179 Ry
        Total length         54.7057 bohr
 
 
     Adding external electric field

     Computed dipole along edir(3) : 
        Dipole               -0.2727 Ry au,         -0.6930 Debye
        Dipole field         -0.0002 Ry au, 
 
        Potential amp.        0.0179 Ry
        Total length         54.7057 bohr
 

     total cpu time spent up to now is      705.8 secs

     total energy              =   -8078.56072077 Ry
     estimated scf accuracy    <       0.07306225 Ry

     total magnetization       =    96.81 Bohr mag/cell
     absolute magnetization    =    98.08 Bohr mag/cell

     iteration # 49     ecut=    50.00 Ry     beta= 0.10
     Davidson diagonalization with overlap
     ethr =  5.77E-06,  avg # of iterations =  1.0

     negative rho (up, down):  1.005E-03 1.013E-03
 
     Adding external electric field

     Computed dipole along edir(3) : 
        Dipole               -0.2562 Ry au,         -0.6512 Debye
        Dipole field         -0.0002 Ry au, 
 
        Potential amp.        0.0168 Ry
        Total length         54.7057 bohr
 
 
     Adding external electric field

     Computed dipole along edir(3) : 
        Dipole               -0.2562 Ry au,         -0.6512 Debye
        Dipole field         -0.0002 Ry au, 
 
        Potential amp.        0.0168 Ry
        Total length         54.7057 bohr
 

     total cpu time spent up to now is      718.7 secs

     total energy              =   -8078.56159959 Ry
     estimated scf accuracy    <       0.04574426 Ry

     total magnetization       =    96.91 Bohr mag/cell
     absolute magnetization    =    98.30 Bohr mag/cell

     iteration # 50     ecut=    50.00 Ry     beta= 0.10
     Davidson diagonalization with overlap
     ethr =  4.13E-06,  avg # of iterations =  2.0

     negative rho (up, down):  1.721E-03 1.599E-03
 
     Adding external electric field

     Computed dipole along edir(3) : 
        Dipole               -0.2096 Ry au,         -0.5329 Debye
        Dipole field         -0.0001 Ry au, 
 
        Potential amp.        0.0137 Ry
        Total length         54.7057 bohr
 
 
     Adding external electric field

     Computed dipole along edir(3) : 
        Dipole               -0.2096 Ry au,         -0.5329 Debye
        Dipole field         -0.0001 Ry au, 
 
        Potential amp.        0.0137 Ry
        Total length         54.7057 bohr
 

     total cpu time spent up to now is      733.9 secs

     total energy              =   -8078.56159814 Ry
     estimated scf accuracy    <       0.03483733 Ry

     total magnetization       =    97.13 Bohr mag/cell
     absolute magnetization    =    98.53 Bohr mag/cell

     iteration # 51     ecut=    50.00 Ry     beta= 0.10
     Davidson diagonalization with overlap
     ethr =  3.14E-06,  avg # of iterations =  2.0

     negative rho (up, down):  3.804E-03 3.405E-03
 
     Adding external electric field

     Computed dipole along edir(3) : 
        Dipole               -0.1258 Ry au,         -0.3198 Debye
        Dipole field         -0.0001 Ry au, 
 
        Potential amp.        0.0083 Ry
        Total length         54.7057 bohr
 
 
     Adding external electric field

     Computed dipole along edir(3) : 
        Dipole               -0.1258 Ry au,         -0.3198 Debye
        Dipole field         -0.0001 Ry au, 
 
        Potential amp.        0.0083 Ry
        Total length         54.7057 bohr
 

     total cpu time spent up to now is      748.7 secs

     total energy              =   -8078.56102334 Ry
     estimated scf accuracy    <       0.02346477 Ry

     total magnetization       =    97.27 Bohr mag/cell
     absolute magnetization    =    98.55 Bohr mag/cell

     iteration # 52     ecut=    50.00 Ry     beta= 0.10
     Davidson diagonalization with overlap
     ethr =  2.12E-06,  avg # of iterations =  2.0

     negative rho (up, down):  6.785E-04 4.649E-04
 
     Adding external electric field

     Computed dipole along edir(3) : 
        Dipole               -0.1318 Ry au,         -0.3350 Debye
        Dipole field         -0.0001 Ry au, 
 
        Potential amp.        0.0086 Ry
        Total length         54.7057 bohr
 
 
     Adding external electric field

     Computed dipole along edir(3) : 
        Dipole               -0.1318 Ry au,         -0.3350 Debye
        Dipole field         -0.0001 Ry au, 
 
        Potential amp.        0.0086 Ry
        Total length         54.7057 bohr
 

     total cpu time spent up to now is      764.0 secs

     total energy              =   -8078.56144057 Ry
     estimated scf accuracy    <       0.01560730 Ry

     total magnetization       =    97.34 Bohr mag/cell
     absolute magnetization    =    98.53 Bohr mag/cell

     iteration # 53     ecut=    50.00 Ry     beta= 0.10
     Davidson diagonalization with overlap
     ethr =  1.41E-06,  avg # of iterations =  3.0

     negative rho (up, down):  3.954E-04 2.442E-04
 
     Adding external electric field

     Computed dipole along edir(3) : 
        Dipole               -0.1223 Ry au,         -0.3108 Debye
        Dipole field         -0.0001 Ry au, 
 
        Potential amp.        0.0080 Ry
        Total length         54.7057 bohr
 
 
     Adding external electric field

     Computed dipole along edir(3) : 
        Dipole               -0.1223 Ry au,         -0.3108 Debye
        Dipole field         -0.0001 Ry au, 
 
        Potential amp.        0.0080 Ry
        Total length         54.7057 bohr
 

     total cpu time spent up to now is      780.4 secs

     total energy              =   -8078.56187737 Ry
     estimated scf accuracy    <       0.00909560 Ry

     total magnetization       =    97.31 Bohr mag/cell
     absolute magnetization    =    98.48 Bohr mag/cell

     iteration # 54     ecut=    50.00 Ry     beta= 0.10
     Davidson diagonalization with overlap
     ethr =  8.21E-07,  avg # of iterations =  2.0

     negative rho (up, down):  1.350E-04 6.824E-05
 
     Adding external electric field

     Computed dipole along edir(3) : 
        Dipole               -0.1247 Ry au,         -0.3169 Debye
        Dipole field         -0.0001 Ry au, 
 
        Potential amp.        0.0082 Ry
        Total length         54.7057 bohr
 
 
     Adding external electric field

     Computed dipole along edir(3) : 
        Dipole               -0.1247 Ry au,         -0.3169 Debye
        Dipole field         -0.0001 Ry au, 
 
        Potential amp.        0.0082 Ry
        Total length         54.7057 bohr
 

     total cpu time spent up to now is      795.7 secs

     total energy              =   -8078.56151938 Ry
     estimated scf accuracy    <       0.00674489 Ry

     total magnetization       =    97.31 Bohr mag/cell
     absolute magnetization    =    98.47 Bohr mag/cell

     iteration # 55     ecut=    50.00 Ry     beta= 0.10
     Davidson diagonalization with overlap
     ethr =  6.09E-07,  avg # of iterations =  2.0

     negative rho (up, down):  6.348E-05 3.645E-05
 
     Adding external electric field

     Computed dipole along edir(3) : 
        Dipole               -0.1451 Ry au,         -0.3689 Debye
        Dipole field         -0.0001 Ry au, 
 
        Potential amp.        0.0095 Ry
        Total length         54.7057 bohr
 
 
     Adding external electric field

     Computed dipole along edir(3) : 
        Dipole               -0.1451 Ry au,         -0.3689 Debye
        Dipole field         -0.0001 Ry au, 
 
        Potential amp.        0.0095 Ry
        Total length         54.7057 bohr
 

     total cpu time spent up to now is      810.5 secs

     total energy              =   -8078.56118880 Ry
     estimated scf accuracy    <       0.00359179 Ry

     total magnetization       =    97.25 Bohr mag/cell
     absolute magnetization    =    98.44 Bohr mag/cell

     iteration # 56     ecut=    50.00 Ry     beta= 0.10
     Davidson diagonalization with overlap
     ethr =  3.24E-07,  avg # of iterations =  2.0

     negative rho (up, down):  2.450E-05 1.435E-05
 
     Adding external electric field

     Computed dipole along edir(3) : 
        Dipole               -0.1852 Ry au,         -0.4707 Debye
        Dipole field         -0.0001 Ry au, 
 
        Potential amp.        0.0121 Ry
        Total length         54.7057 bohr
 
 
     Adding external electric field

     Computed dipole along edir(3) : 
        Dipole               -0.1852 Ry au,         -0.4707 Debye
        Dipole field         -0.0001 Ry au, 
 
        Potential amp.        0.0121 Ry
        Total length         54.7057 bohr
 

     total cpu time spent up to now is      826.0 secs

     total energy              =   -8078.56118298 Ry
     estimated scf accuracy    <       0.00201434 Ry

     total magnetization       =    97.21 Bohr mag/cell
     absolute magnetization    =    98.42 Bohr mag/cell

     iteration # 57     ecut=    50.00 Ry     beta= 0.10
     Davidson diagonalization with overlap
     ethr =  1.82E-07,  avg # of iterations =  2.0

     negative rho (up, down):  1.476E-05 7.723E-06
 
     Adding external electric field

     Computed dipole along edir(3) : 
        Dipole               -0.1810 Ry au,         -0.4599 Debye
        Dipole field         -0.0001 Ry au, 
 
        Potential amp.        0.0119 Ry
        Total length         54.7057 bohr
 
 
     Adding external electric field

     Computed dipole along edir(3) : 
        Dipole               -0.1810 Ry au,         -0.4599 Debye
        Dipole field         -0.0001 Ry au, 
 
        Potential amp.        0.0119 Ry
        Total length         54.7057 bohr
 

     total cpu time spent up to now is      841.3 secs

     total energy              =   -8078.56126700 Ry
     estimated scf accuracy    <       0.00156475 Ry

     total magnetization       =    97.19 Bohr mag/cell
     absolute magnetization    =    98.42 Bohr mag/cell

     iteration # 58     ecut=    50.00 Ry     beta= 0.10
     Davidson diagonalization with overlap
     ethr =  1.41E-07,  avg # of iterations =  2.0

     negative rho (up, down):  2.994E-06 3.979E-07
 
     Adding external electric field

     Computed dipole along edir(3) : 
        Dipole               -0.1774 Ry au,         -0.4508 Debye
        Dipole field         -0.0001 Ry au, 
 
        Potential amp.        0.0116 Ry
        Total length         54.7057 bohr
 
 
     Adding external electric field

[...]
    -5.9966  -5.9877  -5.9754  -5.9516  -5.9078  -5.8964  -5.8643  -5.8431
    -5.8373  -5.8264  -5.8208  -5.7747  -5.7628  -5.7588  -5.6936  -5.6778
    -5.6714  -5.6495  -5.6239  -5.6125  -5.5883  -5.5789  -5.5646  -5.5425
    -5.5403  -5.5141  -5.5035  -5.5014  -5.4814  -5.4771  -5.4582  -5.3745
    -5.3555  -5.3249  -5.2786  -5.2589  -5.2504  -5.2442  -5.2294  -5.1630
    -5.1527  -5.1141  -5.0747  -5.0481  -5.0403  -4.9947  -4.9247  -4.9020
    -4.8687  -4.8544  -4.8093  -4.8009  -4.7829  -4.7778  -4.7449  -4.7351
    -4.6592  -4.6381  -4.5991  -4.5768  -4.5493  -4.4767  -4.4457  -4.4073
    -4.3934  -4.3795  -4.3133  -4.2910  -4.2841  -4.2399  -4.2190  -4.2040
    -4.1726  -4.1483  -4.1109  -4.0651  -4.0589  -4.0083  -3.9785  -3.9687
    -3.8945  -3.8655  -3.8523  -3.8414  -3.8108  -3.7613  -3.7457  -3.7394
    -3.7178  -3.7123  -3.6768  -3.6749  -3.6203  -3.6179  -3.6007  -3.5895
    -3.5414  -3.5350  -3.5279  -3.5121  -3.4998  -3.4833  -3.4701  -3.4295
    -3.4170  -3.4135  -3.3860  -3.3766  -3.3667  -3.3456  -3.3303  -3.3215
    -3.2913  -3.2823  -3.2763  -3.2577  -3.2147  -3.1976  -3.1828  -3.1566
    -3.1412  -3.0986  -3.0930  -3.0732  -3.0538  -3.0355  -3.0290  -3.0015
    -2.9770  -2.9448  -2.9398  -2.9106  -2.8850  -2.8599  -2.8539  -2.8261
    -2.8135  -2.7795  -2.7389  -2.7158  -2.7073  -2.6923  -2.6872  -2.6867
    -2.6725  -2.6576  -2.6420  -2.6288  -2.6240  -2.6093  -2.5907  -2.5819
    -2.5597  -2.5470  -2.5217  -2.5180  -2.5100  -2.4991  -2.4720  -2.4660
    -2.4350  -2.4198  -2.4027  -2.3916  -2.3735  -2.3494  -2.3419  -2.3174
    -2.3000  -2.2883  -2.2779  -2.2671  -2.2320  -2.2039  -2.1910  -2.1843
    -2.1595  -2.1506  -2.1341  -2.0879  -2.0867  -2.0670  -2.0441  -2.0254
    -2.0144  -2.0031  -1.9832  -1.9666  -1.9632  -1.9355  -1.9062  -1.8834
    -1.8747  -1.8646  -1.8556  -1.8344  -1.8243  -1.8174  -1.8057  -1.7933
    -1.7275  -1.6913  -1.6806  -1.6748  -1.6529  -1.6280  -1.6241  -1.6085
    -1.6027  -1.5828  -1.5762  -1.5359  -1.5331  -1.5150  -1.4915  -1.4489
    -1.4418  -1.4317  -1.4074  -1.3793  -1.3735  -1.3484  -1.3400  -1.3222
    -1.3110  -1.3002  -1.2568  -1.2160  -1.1765  -1.1695  -1.1463  -1.1106
    -1.0680  -1.0376  -1.0022  -0.9992  -0.9905  -0.8819  -0.8395  -0.7965
    -0.7651  -0.6368  -0.6194  -0.6114  -0.4533  -0.4105  -0.2719  -0.2118
     0.1813   0.1958   0.2378   0.2613   0.2685   0.2933   0.3000   0.3094
     0.3190   0.3308   0.3431   0.3712   0.3731   0.3844   0.3925   0.4063
     0.4112   0.4153   0.4251   0.4350   0.4400   0.4474   0.4695   0.4719
     0.4802   0.4838   0.4939   0.4974   0.5099   0.5176   0.5204   0.5299
     0.5379   0.5444   0.5561   0.5588   0.5655   0.5724   0.5851   0.5939
     0.6093   0.6146   0.6240   0.6371   0.6430   0.6474   0.6569   0.6625
     0.6685   0.6822   0.7048   0.7125   0.7230   0.7312   0.7354   0.7434
     0.7499   0.7741   0.7849   0.7937   0.7980   0.8122   0.8130   0.8242
     0.8306   0.8501   0.8525   0.8664   0.8763   0.8787   0.8840   0.9038
     0.9104   0.9714   0.9842   0.9979   1.0307   1.1101   1.1340   1.1533
     1.6983   1.7629   1.7767   1.7857   1.7997   1.8264   1.8411   1.8692
     1.8791   1.9074   1.9403   1.9572   1.9732   1.9934   2.0167   2.0231
     2.0561   2.0792   2.0854   2.1013   2.1062   2.1261   2.1422   2.1613
     2.1910   2.2053   2.2080   2.2184   2.2291   2.2618   2.2692   2.2826
     2.2884   2.3002   2.3078   2.3483   2.3663   2.3706   2.4055   2.4339
     2.4600   2.4636   2.4877   2.5111   2.5194   2.5280   2.5673   2.6077
     2.6218   2.6629   2.7294   2.7735   2.8067   2.8654   2.8882   3.4354
     3.5054   3.6776   3.6982   3.7368   3.7615   3.7910   3.8220   3.8543
     3.8889   3.9467   3.9523   3.9560   3.9919   3.9991   4.0091   4.0267
     4.0489   4.0791   4.0936   4.1089   4.1385   4.1537   4.1623   4.2019
     4.2089   4.2198   4.2539   4.2690   4.3084   4.5985   4.6039   4.7500
     4.7908   4.8493   4.8933   4.9196   4.9603   4.9908   4.9977   5.0533
     5.0772   5.0921   5.1564   5.1736   5.2167   5.2227   5.3880   6.1801
     6.3612   6.4437   6.5828   6.6556   6.7184   6.7369   6.8508   6.9066
     6.9413   6.9593   7.0044   7.1078   7.2211   7.2716   7.3251   7.3661
     7.3898   7.4136   7.4762   7.5070   7.5702   7.5888   7.7023   7.7277
     7.7682   7.8694   7.9014   7.9228   7.9550   7.9947   8.0158   8.0443
     8.0759   8.0984   8.1253   8.1634   8.1697   8.2148   8.2405   8.3040
     8.3234   8.3330   8.3538   8.3727   8.3858   8.4084   8.4345   8.4438
     8.4686   8.4904   8.5066   8.5474   8.5660   8.5792   8.6310   8.6333
     8.6641

     the Fermi energy is     1.6932 ev

!    total energy              =   -8078.56151092 Ry
     estimated scf accuracy    <       0.00000080 Ry
     smearing contrib. (-TS)   =      -0.02484983 Ry
     internal energy E=F+TS    =   -8078.53666109 Ry

     The total energy is F=E-TS. E is the sum of the following terms:
     one-electron contribution =  -94703.60222678 Ry
     hartree contribution      =   47936.46915268 Ry
     xc contribution           =   -2177.35877902 Ry
     ewald contribution        =   40867.72535089 Ry
     Dispersion Correction     =      -1.77017008 Ry
     electric field correction =       0.00001121 Ry

     total magnetization       =    97.12 Bohr mag/cell
     absolute magnetization    =    98.34 Bohr mag/cell

     convergence has been achieved in  74 iterations

     negative rho (up, down):  1.166E-03 6.275E-04

     Forces acting on atoms (cartesian axes, Ry/au):

     atom    1 type  1   force =     0.02415910   -0.01778060    0.01980997
     atom    2 type  1   force =    -0.00193279    0.00018830   -0.00577294
     atom    3 type  2   force =    -0.03034805   -0.01558880   -0.00865031
     atom    4 type  1   force =     0.00180319   -0.00332926   -0.00471493
     atom    5 type  1   force =    -0.00383865    0.00225577   -0.00205866
     atom    6 type  1   force =     0.00244062    0.00751993   -0.00456350
     atom    7 type  1   force =     0.03193236   -0.01959684    0.01763587
     atom    8 type  2   force =    -0.00195294    0.00012238   -0.00921256
     atom    9 type  2   force =    -0.02892682   -0.01521945   -0.00868325
     atom   10 type  1   force =     0.00212198   -0.00315717   -0.00447975
     atom   11 type  1   force =    -0.00335518    0.00262741   -0.00123068
     atom   12 type  1   force =     0.00372266    0.00688255   -0.00401451
     atom   13 type  3   force =     0.00213091    0.00064223   -0.00759817
     atom   14 type  3   force =    -0.02975858    0.04991515   -0.06595609
     atom   15 type  3   force =     0.03462316    0.03755877   -0.05987466
     atom   16 type  3   force =    -0.00446767    0.00316183   -0.00091354
     atom   17 type  4   force =    -0.00200092    0.00136965    0.00280271
     atom   18 type  4   force =    -0.00161609   -0.00517378    0.02734010
     atom   19 type  4   force =     0.00396812    0.00284639    0.02953182
     atom   20 type  4   force =     0.00016213   -0.00280753   -0.00478364
     atom   21 type  4   force =    -0.00305683   -0.00230454    0.00338337
     atom   22 type  4   force =     0.00474191   -0.00332435    0.03430106
     atom   23 type  4   force =    -0.00599094   -0.00110265    0.03252581
     atom   24 type  4   force =     0.00071377   -0.00101681    0.00000783
     atom   25 type  4   force =    -0.00133166    0.00076672    0.00216419
     atom   26 type  4   force =    -0.01452696   -0.02267347   -0.00181311
     atom   27 type  4   force =     0.00168805   -0.00074047    0.00119974
     atom   28 type  4   force =    -0.01762009    0.00341151    0.00120890
     atom   29 type  4   force =     0.02062276   -0.00460321    0.00829622
     atom   30 type  4   force =     0.01242019   -0.03404958    0.00114510
     atom   31 type  4   force =     0.00049957    0.00105463    0.00232030
     atom   32 type  4   force =    -0.00209771    0.00007508    0.00265494
     atom   33 type  3   force =    -0.00054295   -0.00164144   -0.00506813
     atom   34 type  3   force =    -0.03023666    0.05982516   -0.08313663
     atom   35 type  3   force =     0.03460674    0.03341369   -0.05925612
     atom   36 type  3   force =    -0.00378264    0.00470783   -0.00075855
     atom   37 type  4   force =    -0.00108963    0.00134125    0.00305031
     atom   38 type  4   force =    -0.00306635   -0.00558096    0.03292993
     atom   39 type  4   force =     0.00443513    0.00393256    0.02922742
     atom   40 type  4   force =     0.00019307   -0.00322175   -0.00494920
     atom   41 type  4   force =    -0.00006663    0.00003493    0.00359594
     atom   42 type  4   force =     0.00544814    0.00024299    0.02003273
     atom   43 type  4   force =    -0.00179619    0.00036218    0.03458609
     atom   44 type  4   force =     0.00092445   -0.00087027    0.00012000
     atom   45 type  4   force =    -0.00020333   -0.00269187    0.00128393
     atom   46 type  4   force =    -0.01510882   -0.02034421   -0.00047551
     atom   47 type  4   force =     0.00191839   -0.00060135    0.00126084
     atom   48 type  4   force =    -0.01798785    0.00403053    0.00163301
     atom   49 type  4   force =     0.01642496   -0.00277998    0.00500296
     atom   50 type  4   force =     0.01182604   -0.03674265    0.00438227
     atom   51 type  4   force =     0.00103896    0.00096871    0.00171280
     atom   52 type  4   force =     0.00098667   -0.00221816    0.00362228
     atom   53 type  1   force =     0.00138157    0.00042948   -0.00064239
     atom   54 type  1   force =     0.00120211    0.00019743    0.00034812
     atom   55 type  2   force =     0.00011202   -0.00020577   -0.00006060
     atom   56 type  1   force =    -0.00011847   -0.00035995    0.00170037
     atom   57 type  1   force =     0.00045967    0.00025098    0.00048563
     atom   58 type  1   force =     0.00009608   -0.00054926    0.00046029
     atom   59 type  1   force =     0.00049521    0.00087036   -0.00087412
     atom   60 type  2   force =    -0.00132948   -0.00147656    0.00615691
     atom   61 type  2   force =    -0.00042707   -0.00025464   -0.00019603
     atom   62 type  1   force =     0.00030625    0.00155825    0.00111698
     atom   63 type  1   force =    -0.00048523    0.00044557    0.00032288
     atom   64 type  1   force =     0.00030593   -0.00047201    0.00006864
     atom   65 type  3   force =    -0.00024994    0.00195395    0.00210347
     atom   66 type  3   force =    -0.00003606   -0.00026764   -0.00170297
     atom   67 type  3   force =     0.00038219    0.00073904   -0.00064896
     atom   68 type  3   force =    -0.00049461   -0.00200145    0.00210444
     atom   69 type  4   force =    -0.00092351   -0.00002341   -0.00086599
     atom   70 type  4   force =    -0.00011137    0.00016050    0.00042693
     atom   71 type  4   force =     0.00020620   -0.00039533   -0.00008569
     atom   72 type  4   force =    -0.00066720    0.00078996   -0.00181675
     atom   73 type  4   force =     0.00155583    0.00006545    0.00057271
     atom   74 type  4   force =    -0.00020870   -0.00062210    0.00183698
     atom   75 type  4   force =     0.00003413    0.00014882    0.00019403
     atom   76 type  4   force =    -0.00098385   -0.00060574    0.00034020
     atom   77 type  4   force =    -0.00113703    0.00119323    0.00006875
     atom   78 type  4   force =    -0.00027037   -0.00010487    0.00032136
     atom   79 type  4   force =     0.00097508    0.00171908   -0.00176863
     atom   80 type  4   force =    -0.00001987    0.00058464    0.00012895
     atom   81 type  4   force =    -0.00043217   -0.00021478    0.00036305
     atom   82 type  4   force =     0.00023805   -0.00010226    0.00001434
     atom   83 type  4   force =     0.00042263   -0.00076337   -0.00031099
     atom   84 type  4   force =    -0.00031859   -0.00039425   -0.00040613
     atom   85 type  3   force =     0.00050993    0.00041225    0.00012838
     atom   86 type  3   force =     0.00067469   -0.00067562   -0.00064593
     atom   87 type  3   force =    -0.00017109   -0.00004913   -0.00101714
     atom   88 type  3   force =    -0.00198330   -0.00170170    0.00163903
     atom   89 type  4   force =    -0.00001236   -0.00001935    0.00012326
     atom   90 type  4   force =     0.00004517   -0.00044770    0.00179789
     atom   91 type  4   force =     0.00019075    0.00002188    0.00034758
     atom   92 type  4   force =     0.00058756   -0.00061969   -0.00127929
     atom   93 type  4   force =     0.00122136    0.00031343    0.00069740
     atom   94 type  4   force =    -0.00029086    0.00005634    0.00140730
     atom   95 type  4   force =     0.00023768    0.00017368    0.00052058
     atom   96 type  4   force =    -0.00108245   -0.00073094    0.00166928
     atom   97 type  4   force =     0.00060135    0.00027465   -0.00067913
     atom   98 type  4   force =    -0.00063086   -0.00016734    0.00034675
     atom   99 type  4   force =     0.00023185    0.00118023   -0.00165196
     atom  100 type  4   force =     0.00048954    0.00039048    0.00054426
     atom  101 type  4   force =    -0.00026590   -0.00015921    0.00057278
     atom  102 type  4   force =     0.00079793   -0.00032223    0.00039887
     atom  103 type  4   force =     0.00147985    0.00008833    0.00110968
     atom  104 type  4   force =    -0.00073872   -0.00082274    0.00032372
     atom  105 type  1   force =    -0.00021181   -0.00010839   -0.00006141
     atom  106 type  1   force =     0.00051502   -0.00017487   -0.00007940
     atom  107 type  2   force =     0.00012421    0.00039998    0.00044167
     atom  108 type  1   force =     0.00009307   -0.00045167    0.00050432
     atom  109 type  1   force =    -0.00016313   -0.00037354   -0.00003221
     atom  110 type  1   force =    -0.00047875    0.00034633   -0.00024228
     atom  111 type  1   force =     0.00004778   -0.00043082    0.00017253
     atom  112 type  2   force =    -0.00003331    0.00038859   -0.00006168
     atom  113 type  2   force =     0.00028442    0.00028908   -0.00022867
     atom  114 type  1   force =    -0.00000385    0.00008808    0.00025646
     atom  115 type  1   force =     0.00037219    0.00042415   -0.00036082
     atom  116 type  1   force =     0.00019146    0.00027694   -0.00000021
     atom  117 type  3   force =    -0.00059412   -0.00007284    0.00021441
     atom  118 type  3   force =    -0.00051643    0.00012997    0.00019102
     atom  119 type  3   force =    -0.00013976   -0.00007249   -0.00025985
     atom  120 type  3   force =     0.00015838    0.00032287   -0.00050510
     atom  121 type  4   force =     0.00038714   -0.00011311    0.00035981
     atom  122 type  4   force =    -0.00030160    0.00017014    0.00024682
     atom  123 type  4   force =    -0.00012066    0.00007085    0.00001077
     atom  124 type  4   force =    -0.00001228   -0.00052967   -0.00011452
     atom  125 type  4   force =     0.00069798    0.00018459    0.00030740
     atom  126 type  4   force =    -0.00003759   -0.00041812    0.00008817
     atom  127 type  4   force =     0.00025917    0.00015188   -0.00023994
     atom  128 type  4   force =    -0.00005382    0.00027022   -0.00023735
     atom  129 type  4   force =     0.00015213    0.00007038    0.00023004
     atom  130 type  4   force =    -0.00006997   -0.00008389    0.00023037
     atom  131 type  4   force =    -0.00022270   -0.00029871    0.00026841
     atom  132 type  4   force =     0.00022272    0.00018645    0.00019401
     atom  133 type  4   force =    -0.00027519    0.00002935    0.00021558
     atom  134 type  4   force =    -0.00018488    0.00024724   -0.00011146
     atom  135 type  4   force =     0.00009378    0.00070842    0.00010518
     atom  136 type  4   force =    -0.00050185   -0.00010131    0.00017007
     atom  137 type  3   force =    -0.00001283   -0.00000156   -0.00002081
     atom  138 type  3   force =    -0.00030614    0.00015020    0.00026099
     atom  139 type  3   force =     0.00003512   -0.00023109   -0.00003159
     atom  140 type  3   force =    -0.00016812   -0.00051502    0.00009882
     atom  141 type  4   force =     0.00015628   -0.00020671    0.00026343
     atom  142 type  4   force =     0.00007638    0.00011881    0.00040714
     atom  143 type  4   force =     0.00001545    0.00003596   -0.00018164
     atom  144 type  4   force =     0.00023740   -0.00038041   -0.00060011
     atom  145 type  4   force =    -0.00010933   -0.00041413   -0.00023210
     atom  146 type  4   force =    -0.00017698   -0.00017057    0.00019801
     atom  147 type  4   force =     0.00024071   -0.00026576    0.00006409
     atom  148 type  4   force =    -0.00044818    0.00022335   -0.00001975
     atom  149 type  4   force =     0.00084533    0.00021715    0.00019269
     atom  150 type  4   force =     0.00012622   -0.00022684   -0.00020913
     atom  151 type  4   force =     0.00005283   -0.00022032    0.00048785
     atom  152 type  4   force =    -0.00008414   -0.00020380    0.00009135
     atom  153 type  4   force =     0.00008060    0.00031806   -0.00008242
     atom  154 type  4   force =    -0.00015938    0.00017729    0.00022628
     atom  155 type  4   force =     0.00011271   -0.00016786    0.00003276
     atom  156 type  4   force =     0.00005358    0.00008777    0.00006520
     atom  157 type  4   force =     0.00315923    0.00229227    0.00204597
     atom  158 type  5   force =    -0.00410618   -0.00172885   -0.00164226

     Total force =     0.225397     Total SCF correction =     0.003565
 
     init_run     :      8.05s CPU      8.63s WALL (       1 calls)
     electrons    :   1032.10s CPU   1077.54s WALL (       1 calls)
     forces       :      4.64s CPU      4.97s WALL (       1 calls)
     force_london :      0.08s CPU      0.08s WALL (       1 calls)

     Called by init_run:
     wfcinit      :      4.73s CPU      4.86s WALL (       1 calls)
     potinit      :      0.61s CPU      0.80s WALL (       1 calls)
     hinit0       :      1.60s CPU      1.70s WALL (       1 calls)

     Called by electrons:
     c_bands      :    798.18s CPU    822.65s WALL (      74 calls)
     sum_band     :    144.61s CPU    155.92s WALL (      74 calls)
     v_of_rho     :     20.34s CPU     21.35s WALL (      75 calls)
     newd         :     47.23s CPU     55.63s WALL (      75 calls)
     mix_rho      :     20.70s CPU     20.77s WALL (      74 calls)
     energy_londo :      0.07s CPU      0.07s WALL (       1 calls)

     Called by c_bands:
     init_us_2    :      1.91s CPU      1.96s WALL (     300 calls)
     init_us_2:cp :      1.91s CPU      1.96s WALL (     300 calls)
     regterg      :    782.62s CPU    806.21s WALL (     151 calls)

     Called by *egterg:
     rdiaghg      :    177.30s CPU    188.13s WALL (     524 calls)
     h_psi        :    305.94s CPU    312.09s WALL (     526 calls)
     s_psi        :     46.25s CPU     46.28s WALL (     526 calls)
     g_psi        :      0.34s CPU      0.34s WALL (     373 calls)

     Called by h_psi:
     h_psi:calbec :     80.75s CPU     85.54s WALL (     526 calls)
     vloc_psi     :    175.87s CPU    176.68s WALL (     526 calls)
     add_vuspsi   :     48.68s CPU     49.23s WALL (     526 calls)

     General routines
     calbec       :    119.93s CPU    127.13s WALL (     682 calls)
     fft          :     36.36s CPU     37.90s WALL (    1363 calls)
     ffts         :     12.34s CPU     12.36s WALL (    9203 calls)
     fftw         :    201.62s CPU    202.48s WALL (  257408 calls)
     interpolate  :      1.58s CPU      1.86s WALL (     150 calls)
 
     Parallel routines
 
     PWSCF        :  17m26.69s CPU  18m13.37s WALL

 
   This run was terminated on:  20:37:49  17Nov2025            

=------------------------------------------------------------------------------=
   JOB DONE.
=------------------------------------------------------------------------------=
