
     Program PWSCF v.7.2 starts on 17Nov2025 at 18:42:26 

     This program is part of the open-source Quantum ESPRESSO suite
     for quantum simulation of materials; please cite
         "P. Giannozzi et al., J. Phys.:Condens. Matter 21 395502 (2009);
         "P. Giannozzi et al., J. Phys.:Condens. Matter 29 465901 (2017);
         "P. Giannozzi et al., J. Chem. Phys. 152 154105 (2020);
          URL http://www.quantum-espresso.org", 
     in publications or presentations arising from this work. More details at
     http://www.quantum-espresso.org/quote

     Parallel version (MPI), running on    64 processors

     MPI processes distributed on     4 nodes
     451043 MiB available memory on the printing compute node when the environment starts
 
     Reading input from PWINPUT_atm157_zm

     Current dimensions of program PWSCF are:
     Max number of different atomic species (ntypx) = 10
     Max number of k-points (npk) =  40000
     Max angular momentum in pseudopotentials (lmaxx) =  4
     Presently no symmetry can be used with electric field

     file Ni.pbe-n-rrkjus_psl.1.0.0.UPF: wavefunction(s)  3D renormalized
     file Mn.pbe-spn-rrkjus_psl.0.3.1.UPF: wavefunction(s)  3D renormalized
     file O.pbe-rrkjus.UPF: wavefunction(s)  2S renormalized
     file H.pbe-rrkjus.UPF: wavefunction(s)  1S renormalized

     gamma-point specific algorithms are used
 
     R & G space division:  proc/nbgrp/npool/nimage =      64
     Subspace diagonalization in iterative solution of the eigenvalue problem:
     one sub-group per band group will be used
     custom distributed-memory algorithm (size of sub-group:  7*  7 procs)

 
     Parallelization info
     --------------------
     sticks:   dense  smooth     PW     G-vecs:    dense   smooth      PW
     Min         214      85     20                61830    15614    1928
     Max         216      86     22                61864    15658    1982
     Sum       13727    5503   1375              3958051  1001255  125211
 
     Using Slab Decomposition
 


     bravais-lattice index     =            0
     lattice parameter (alat)  =      17.8532  a.u.
     unit-cell volume          =   20962.6682 (a.u.)^3
     number of atoms/cell      =          158
     number of atomic types    =            5
     number of electrons       =      1108.00
     number of Kohn-Sham states=          665
     kinetic-energy cutoff     =      50.0000  Ry
     charge density cutoff     =     500.0000  Ry
     scf convergence threshold =      1.0E-06
     mixing beta               =       0.1000
     number of iterations used =            8  local-TF  mixing
     Exchange-correlation=  SLA  PW   PBE  PBE
                           (   1   4   3   4   0   0   0)

     celldm(1)=  17.853155  celldm(2)=   0.000000  celldm(3)=   0.000000
     celldm(4)=   0.000000  celldm(5)=   0.000000  celldm(6)=   0.000000

     crystal axes: (cart. coord. in units of alat)
               a(1) = (   1.000000   0.000000   0.000000 )  
               a(2) = (   0.003237   1.081997   0.000000 )  
               a(3) = (   0.000000   0.000000   3.404673 )  

     reciprocal axes: (cart. coord. in units 2 pi/alat)
               b(1) = (  1.000000 -0.002992  0.000000 )  
               b(2) = (  0.000000  0.924217  0.000000 )  
               b(3) = (  0.000000  0.000000  0.293714 )  


     PseudoPot. # 1 for Ni read from file:
     ~/PSEUDO/Ni.pbe-n-rrkjus_psl.1.0.0.UPF
     MD5 check sum: Not computed, couldn't open file
     Pseudo is Ultrasoft + core correction, Zval = 10.0
     Generated using "atomic" code by A. Dal Corso  v.5.1.2
     Using radial grid of 1195 points,  6 beta functions with: 
                l(1) =   0
                l(2) =   0
                l(3) =   1
                l(4) =   1
                l(5) =   2
                l(6) =   2
     Q(r) pseudized with 0 coefficients 


     PseudoPot. # 2 for Mn read from file:
     ~/PSEUDO/Mn.pbe-spn-rrkjus_psl.0.3.1.UPF
     MD5 check sum: Not computed, couldn't open file
     Pseudo is Ultrasoft + core correction, Zval = 15.0
     Generated using &quot;atomic&quot; code by A. Dal Corso  v.6.2.2
     Using radial grid of 1187 points,  6 beta functions with: 
                l(1) =   0
                l(2) =   0
                l(3) =   1
                l(4) =   1
                l(5) =   2
                l(6) =   2
     Q(r) pseudized with 0 coefficients 


     PseudoPot. # 3 for P  read from file:
     ~/PSEUDO/P.pbe-n-rrkjus_psl.1.0.0.UPF
     MD5 check sum: Not computed, couldn't open file
     Pseudo is Ultrasoft + core correction, Zval =  5.0
     Generated using "atomic" code by A. Dal Corso  v.5.1
     Using radial grid of 1147 points,  6 beta functions with: 
                l(1) =   0
                l(2) =   0
                l(3) =   1
                l(4) =   1
                l(5) =   2
                l(6) =   2
     Q(r) pseudized with 0 coefficients 


     PseudoPot. # 4 for O  read from file:
     ~/PSEUDO/O.pbe-rrkjus.UPF
     MD5 check sum: Not computed, couldn't open file
     Pseudo is Ultrasoft, Zval =  6.0
     Generated by new atomic code, or converted to UPF format
     Using radial grid of 1269 points,  4 beta functions with: 
                l(1) =   0
                l(2) =   0
                l(3) =   1
                l(4) =   1
     Q(r) pseudized with 0 coefficients 


     PseudoPot. # 5 for H  read from file:
     ~/PSEUDO/H.pbe-rrkjus.UPF
     MD5 check sum: Not computed, couldn't open file
     Pseudo is Ultrasoft, Zval =  1.0
     Generated by new atomic code, or converted to UPF format
     Using radial grid of 1061 points,  2 beta functions with: 
                l(1) =   0
                l(2) =   0
     Q(r) pseudized with 0 coefficients 


     atomic species   valence    mass     pseudopotential
     Ni               10.00    58.69300     Ni( 1.00)
     Mn               15.00    54.93800     Mn( 1.00)
     P                 5.00    30.97300     P ( 1.00)
     O                 6.00    15.99900     O ( 1.00)
     H                 1.00     1.00790     H ( 1.00)

     Starting magnetic structure 
     atomic species   magnetization
     Ni              1.000
     Mn              1.000
     P               1.000
     O               1.000
     H               0.000

     No symmetry found



   Cartesian axes

     site n.     atom                  positions (alat units)
         1        Ni     tau(   1) = (   0.2448189   0.8359134   0.1216996  )
         2        Ni     tau(   2) = (   0.4920952   0.7731948   0.4438949  )
         3        Mn     tau(   3) = (   0.0113021   0.2918949   0.1160512  )
         4        Ni     tau(   4) = (   0.2586115   0.2268566   0.4417628  )
         5        Ni     tau(   5) = (   1.0019827   1.0705803   0.2835623  )
         6        Ni     tau(   6) = (   0.2518099   0.5339061   0.2823483  )
         7        Ni     tau(   7) = (   0.7400999   0.8349186   0.1225624  )
         8        Mn     tau(   8) = (   0.9886961   0.7700845   0.4492175  )
         9        Mn     tau(   9) = (   0.5113421   0.2944667   0.1158892  )
        10        Ni     tau(  10) = (   0.7560857   0.2263843   0.4422798  )
        11        Ni     tau(  11) = (   0.5009386   1.0712238   0.2822610  )
        12        Ni     tau(  12) = (   0.7496978   0.5336600   0.2834396  )
        13        P      tau(  13) = (   0.2147792   0.9686896   0.4382665  )
        14        P      tau(  14) = (   0.4607377   0.6441916   0.1265334  )
        15        P      tau(  15) = (   0.2883218   0.0913464   0.1265752  )
        16        P      tau(  16) = (   0.0408981   0.4221836   0.4354960  )
        17        O      tau(  17) = (   0.1380864   0.9007819   0.3023220  )
        18        O      tau(  18) = (   0.3817439   0.7113683   0.2624610  )
        19        O      tau(  19) = (   0.3638364   0.1608547   0.2624417  )
        20        O      tau(  20) = (   0.1207568   0.3545755   0.3021219  )
        21        O      tau(  21) = (   0.1552194   0.8797563   0.5625160  )
        22        O      tau(  22) = (   0.4022820   0.7317969   0.0010585  )
        23        O      tau(  23) = (   0.3454844   0.1823965   0.0026336  )
        24        O      tau(  24) = (   0.1017019   0.3344979   0.5594858  )
        25        O      tau(  25) = (   0.0970074   0.5770714   0.4346455  )
        26        O      tau(  26) = (   0.3534166   1.0203677   0.1270707  )
        27        O      tau(  27) = (   0.3778024   0.4172402   0.4261028  )
        28        O      tau(  28) = (   0.1256171   0.0954063   0.1372153  )
        29        O      tau(  29) = (   0.1232168   0.6482422   0.1385172  )
        30        O      tau(  30) = (   0.4028533   0.4897833   0.1289718  )
        31        O      tau(  31) = (   0.1511050   0.0405554   0.4369979  )
        32        O      tau(  32) = (   0.3776556   0.9624293   0.4288159  )
        33        P      tau(  33) = (   0.7084770   0.9682119   0.4394551  )
        34        P      tau(  34) = (   0.9603154   0.6409658   0.1292469  )
        35        P      tau(  35) = (   0.7875734   0.0899770   0.1274098  )
        36        P      tau(  36) = (   0.5405152   0.4272620   0.4364455  )
        37        O      tau(  37) = (   0.6323583   0.8977630   0.3036670  )
        38        O      tau(  38) = (   0.8809646   0.7091921   0.2627111  )
        39        O      tau(  39) = (   0.8631054   0.1587239   0.2636487  )
        40        O      tau(  40) = (   0.6202581   0.3578380   0.3034239  )
        41        O      tau(  41) = (   0.6499160   0.8772596   0.5630912  )
        42        O      tau(  42) = (   0.8990171   0.7283464   0.0054426  )
        43        O      tau(  43) = (   0.8448361   0.1806154   0.0030658  )
        44        O      tau(  44) = (   0.6023096   0.3392612   0.5600469  )
        45        O      tau(  45) = (   0.5960222   0.5826131   0.4346340  )
        46        O      tau(  46) = (   0.8515023   1.0184215   0.1281632  )
        47        O      tau(  47) = (   0.8779640   0.4148900   0.4260983  )
        48        O      tau(  48) = (   0.6251159   0.0957170   0.1376895  )
        49        O      tau(  49) = (   0.6237654   0.6481585   0.1378370  )
        50        O      tau(  50) = (   0.9038046   0.4863338   0.1307354  )
        51        O      tau(  51) = (   0.6458737   0.0402574   0.4377979  )
        52        O      tau(  52) = (   0.8712434   0.9635255   0.4285638  )
        53        Ni     tau(  53) = (   0.2420320   0.8169913   0.7491577  )
        54        Ni     tau(  54) = (   0.4893084   0.7542727   1.0713530  )
        55        Mn     tau(  55) = (   0.0085152   0.2729728   0.7435093  )
        56        Ni     tau(  56) = (   0.2558246   0.2079345   1.0692209  )
        57        Ni     tau(  57) = (   0.9991959   1.0516583   0.9110204  )
        58        Ni     tau(  58) = (   0.2490231   0.5149840   0.9098064  )
        59        Ni     tau(  59) = (   0.7373131   0.8159965   0.7500205  )
        60        Mn     tau(  60) = (   0.9859093   0.7511625   1.0766756  )
        61        Mn     tau(  61) = (   0.5085552   0.2755447   0.7433473  )
        62        Ni     tau(  62) = (   0.7532989   0.2074622   1.0697379  )
        63        Ni     tau(  63) = (   0.4981517   1.0523018   0.9097191  )
        64        Ni     tau(  64) = (   0.7469109   0.5147379   0.9108977  )
        65        P      tau(  65) = (   0.2119924   0.9497675   1.0657246  )
        66        P      tau(  66) = (   0.4579509   0.6252695   0.7539915  )
        67        P      tau(  67) = (   0.2855349   0.0724244   0.7540333  )
        68        P      tau(  68) = (   0.0381112   0.4032615   1.0629541  )
        69        O      tau(  69) = (   0.1352995   0.8818598   0.9297801  )
        70        O      tau(  70) = (   0.3789570   0.6924463   0.8899191  )
        71        O      tau(  71) = (   0.3610496   0.1419327   0.8898998  )
        72        O      tau(  72) = (   0.1179700   0.3356534   0.9295800  )
        73        O      tau(  73) = (   0.1524325   0.8608343   1.1899741  )
        74        O      tau(  74) = (   0.3994952   0.7128748   0.6285166  )
        75        O      tau(  75) = (   0.3426976   0.1634744   0.6300917  )
        76        O      tau(  76) = (   0.0989151   0.3155758   1.1869439  )
        77        O      tau(  77) = (   0.0942206   0.5581494   1.0621036  )
        78        O      tau(  78) = (   0.3506297   1.0014456   0.7545288  )
        79        O      tau(  79) = (   0.3750155   0.3983181   1.0535609  )
        80        O      tau(  80) = (   0.1228303   0.0764842   0.7646734  )
        81        O      tau(  81) = (   0.1204299   0.6293201   0.7659753  )
        82        O      tau(  82) = (   0.4000664   0.4708612   0.7564299  )
        83        O      tau(  83) = (   0.1483182   0.0216333   1.0644560  )
        84        O      tau(  84) = (   0.3748687   0.9435072   1.0562740  )
        85        P      tau(  85) = (   0.7056901   0.9492898   1.0669132  )
        86        P      tau(  86) = (   0.9575286   0.6220438   0.7567050  )
        87        P      tau(  87) = (   0.7847866   0.0710549   0.7548679  )
        88        P      tau(  88) = (   0.5377283   0.4083400   1.0639036  )
        89        O      tau(  89) = (   0.6295714   0.8788409   0.9311251  )
        90        O      tau(  90) = (   0.8781778   0.6902700   0.8901692  )
        91        O      tau(  91) = (   0.8603186   0.1398018   0.8911068  )
        92        O      tau(  92) = (   0.6174712   0.3389159   0.9308820  )
        93        O      tau(  93) = (   0.6471291   0.8583376   1.1905493  )
        94        O      tau(  94) = (   0.8962302   0.7094244   0.6329007  )
        95        O      tau(  95) = (   0.8420493   0.1616933   0.6305239  )
        96        O      tau(  96) = (   0.5995227   0.3203391   1.1875050  )
        97        O      tau(  97) = (   0.5932354   0.5636910   1.0620921  )
        98        O      tau(  98) = (   0.8487155   0.9994995   0.7556213  )
        99        O      tau(  99) = (   0.8751772   0.3959680   1.0535564  )
       100        O      tau( 100) = (   0.6223291   0.0767949   0.7651476  )
       101        O      tau( 101) = (   0.6209785   0.6292365   0.7652951  )
       102        O      tau( 102) = (   0.9010178   0.4674118   0.7581935  )
       103        O      tau( 103) = (   0.6430869   0.0213354   1.0652560  )
       104        O      tau( 104) = (   0.8684566   0.9446034   1.0560219  )
       105        Ni     tau( 105) = (   0.2423630   0.7994359   1.3760354  )
       106        Ni     tau( 106) = (   0.4993973   0.7391311   1.6804864  )
       107        Mn     tau( 107) = (   0.0089498   0.2581752   1.3751757  )
       108        Ni     tau( 108) = (   0.2555203   0.1875480   1.7147440  )
       109        Ni     tau( 109) = (   1.0007969   1.0339332   1.5383184  )
       110        Ni     tau( 110) = (   0.2460225   0.4956919   1.5440603  )
       111        Ni     tau( 111) = (   0.7359931   0.8001260   1.3774046  )
       112        Mn     tau( 112) = (   0.9973763   0.7324626   1.6978130  )
       113        Mn     tau( 113) = (   0.5067604   0.2591059   1.3740250  )
       114        Ni     tau( 114) = (   0.7428480   0.1952512   1.6837944  )
       115        Ni     tau( 115) = (   0.4987731   1.0381547   1.5410978  )
       116        Ni     tau( 116) = (   0.7427219   0.4966249   1.5424991  )
       117        P      tau( 117) = (   0.2131870   0.9257933   1.6916587  )
       118        P      tau( 118) = (   0.4559119   0.6044880   1.3805992  )
       119        P      tau( 119) = (   0.2850881   0.0578616   1.3821893  )
       120        P      tau( 120) = (   0.0323162   0.3787027   1.6982374  )
       121        O      tau( 121) = (   0.1347071   0.8640073   1.5492256  )
       122        O      tau( 122) = (   0.3772882   0.6717903   1.5162818  )
       123        O      tau( 123) = (   0.3593898   0.1286559   1.5165302  )
       124        O      tau( 124) = (   0.1109838   0.3262818   1.5555432  )
       125        O      tau( 125) = (   0.1539942   0.8264869   1.8062921  )
       126        O      tau( 126) = (   0.3971693   0.6924762   1.2552325  )
       127        O      tau( 127) = (   0.3421563   0.1469372   1.2562216  )
       128        O      tau( 128) = (   0.0898411   0.2811759   1.8130034  )
       129        O      tau( 129) = (   0.0853118   0.5370915   1.7040182  )
       130        O      tau( 130) = (   0.3491208   0.9864055   1.3828534  )
       131        O      tau( 131) = (   0.3706482   0.3857699   1.6886489  )
       132        O      tau( 132) = (   0.1216767   0.0634913   1.3916025  )
       133        O      tau( 133) = (   0.1193436   0.6078482   1.3967511  )
       134        O      tau( 134) = (   0.3973442   0.4503950   1.3837012  )
       135        O      tau( 135) = (   0.1487970  -0.0030508   1.6922434  )
       136        O      tau( 136) = (   0.3761859   0.9190075   1.6784506  )
       137        P      tau( 137) = (   0.7099731   0.9276212   1.6969971  )
       138        P      tau( 138) = (   0.9565988   0.6017915   1.3869988  )
       139        P      tau( 139) = (   0.7850320   0.0557964   1.3814017  )
       140        P      tau( 140) = (   0.5341584   0.3909479   1.7019963  )
       141        O      tau( 141) = (   0.6329335   0.8686924   1.5518520  )
       142        O      tau( 142) = (   0.8798187   0.6672706   1.5242031  )
       143        O      tau( 143) = (   0.8611821   0.1236672   1.5173706  )
       144        O      tau( 144) = (   0.6104268   0.3268639   1.5598222  )
       145        O      tau( 145) = (   0.6499567   0.8294727   1.8098310  )
       146        O      tau( 146) = (   0.8965323   0.6932672   1.2652725  )
       147        O      tau( 147) = (   0.8423135   0.1469704   1.2572506  )
       148        O      tau( 148) = (   0.5974078   0.2970599   1.8177101  )
       149        O      tau( 149) = (   0.5903229   0.5473287   1.6970866  )
       150        O      tau( 150) = (   0.8477944   0.9841351   1.3810722  )
       151        O      tau( 151) = (   0.8683058   0.3760079   1.6828064  )
       152        O      tau( 152) = (   0.6224566   0.0643770   1.3939749  )
       153        O      tau( 153) = (   0.6187923   0.6106371   1.3938596  )
       154        O      tau( 154) = (   0.8971193   0.4481891   1.3841611  )
       155        O      tau( 155) = (   0.6540414   0.0026232   1.6976259  )
       156        O      tau( 156) = (   0.8743841   0.9191802   1.6841294  )
       157        O      tau( 157) = (   0.3743733   0.1030868   1.8386759  )
       158        H      tau( 158) = (   0.4562925   0.1635293   1.8648188  )

     -------------------------------------------------
     Parameters for Dispersion (Grimme-D2) Correction:
     -------------------------------------------------
       atom      VdW radius       C_6     

        Ni         2.952        374.666
        Mn         2.952        374.666
        P          3.222        271.980
        O          2.536         24.284
        H          1.892          4.857

     number of k points=     1  Gaussian smearing, width (Ry)=  0.0100
                       cart. coord. in units 2pi/alat
        k(    1) = (   0.0000000   0.0000000   0.0000000), wk =   1.0000000

     Dense  grid:  1979026 G-vectors     FFT dimensions: ( 128, 144, 450)

     Smooth grid:   500628 G-vectors     FFT dimensions: (  81,  90, 288)

     Estimated max dynamical RAM per process >     333.40 MB

     Estimated total dynamical RAM >      20.84 GB

     Check: negative core charge=   -0.000002
     Generating pointlists ...
     new r_m :   0.0789 (alat units)  1.4093 (a.u.) for type    1
     new r_m :   0.0876 (alat units)  1.5646 (a.u.) for type    2
     new r_m :   0.0665 (alat units)  1.1867 (a.u.) for type    3
     new r_m :   0.0434 (alat units)  0.7741 (a.u.) for type    4
     new r_m :   0.0434 (alat units)  0.7741 (a.u.) for type    5

     Initial potential from superposition of free atoms

     starting charge    1107.8886, renormalised to    1108.0000

     negative rho (up, down):  1.530E-03 4.672E-04
 
     Adding external electric field

     Computed dipole along edir(3) : 
        Dipole                1.6307 Ry au,          4.1449 Debye
        Dipole field          0.0010 Ry au, 
 
        Potential amp.       -0.1070 Ry
        Total length         54.7057 bohr
 
 
     Adding external electric field

     Computed dipole along edir(3) : 
        Dipole                1.6307 Ry au,          4.1449 Debye
        Dipole field          0.0010 Ry au, 
 
        Potential amp.       -0.1070 Ry
        Total length         54.7057 bohr
 
     Starting wfcs are  818 randomized atomic wfcs

     total cpu time spent up to now is       11.2 secs

     Self-consistent Calculation

     iteration #  1     ecut=    50.00 Ry     beta= 0.10
     Davidson diagonalization with overlap
     ethr =  1.00E-02,  avg # of iterations =  5.5

     negative rho (up, down):  4.574E-01 1.387E-06
 
     Adding external electric field

     Computed dipole along edir(3) : 
        Dipole               -3.1630 Ry au,         -8.0395 Debye
        Dipole field         -0.0019 Ry au, 
 
        Potential amp.        0.2075 Ry
        Total length         54.7057 bohr
 
 
     Adding external electric field

     Computed dipole along edir(3) : 
        Dipole               -3.1630 Ry au,         -8.0395 Debye
        Dipole field         -0.0019 Ry au, 
 
        Potential amp.        0.2075 Ry
        Total length         54.7057 bohr
 

     total cpu time spent up to now is       40.7 secs

     total energy              =   -7860.40388028 Ry
     estimated scf accuracy    <     749.31584106 Ry

     total magnetization       =   222.00 Bohr mag/cell
     absolute magnetization    =   319.60 Bohr mag/cell

     iteration #  2     ecut=    50.00 Ry     beta= 0.10
     Davidson diagonalization with overlap
     ethr =  1.00E-02,  avg # of iterations =  2.0

     negative rho (up, down):  4.132E-01 1.337E-06
 
     Adding external electric field

     Computed dipole along edir(3) : 
        Dipole               -2.4968 Ry au,         -6.3462 Debye
        Dipole field         -0.0015 Ry au, 
 
        Potential amp.        0.1638 Ry
        Total length         54.7057 bohr
 
 
     Adding external electric field

     Computed dipole along edir(3) : 
        Dipole               -2.4968 Ry au,         -6.3462 Debye
        Dipole field         -0.0015 Ry au, 
 
        Potential amp.        0.1638 Ry
        Total length         54.7057 bohr
 

     total cpu time spent up to now is       58.1 secs

     total energy              =   -7943.42581620 Ry
     estimated scf accuracy    <     141.79487892 Ry

     total magnetization       =   158.89 Bohr mag/cell
     absolute magnetization    =   208.40 Bohr mag/cell

     iteration #  3     ecut=    50.00 Ry     beta= 0.10
     Davidson diagonalization with overlap
     ethr =  1.00E-02,  avg # of iterations =  1.0

     negative rho (up, down):  3.567E-01 1.737E-06
 
     Adding external electric field

     Computed dipole along edir(3) : 
        Dipole               -2.0188 Ry au,         -5.1313 Debye
        Dipole field         -0.0012 Ry au, 
 
        Potential amp.        0.1324 Ry
        Total length         54.7057 bohr
 
 
     Adding external electric field

     Computed dipole along edir(3) : 
        Dipole               -2.0188 Ry au,         -5.1313 Debye
        Dipole field         -0.0012 Ry au, 
 
        Potential amp.        0.1324 Ry
        Total length         54.7057 bohr
 

     total cpu time spent up to now is       72.0 secs

     total energy              =   -7977.58907980 Ry
     estimated scf accuracy    <     102.34914696 Ry

     total magnetization       =   138.29 Bohr mag/cell
     absolute magnetization    =   188.87 Bohr mag/cell

     iteration #  4     ecut=    50.00 Ry     beta= 0.10
     Davidson diagonalization with overlap
     ethr =  9.24E-03,  avg # of iterations =  1.0

     negative rho (up, down):  2.789E-01 5.672E-08
 
     Adding external electric field

     Computed dipole along edir(3) : 
        Dipole               -1.9916 Ry au,         -5.0622 Debye
        Dipole field         -0.0012 Ry au, 
 
        Potential amp.        0.1306 Ry
        Total length         54.7057 bohr
 
 
     Adding external electric field

     Computed dipole along edir(3) : 
        Dipole               -1.9916 Ry au,         -5.0622 Debye
        Dipole field         -0.0012 Ry au, 
 
        Potential amp.        0.1306 Ry
        Total length         54.7057 bohr
 

     total cpu time spent up to now is       86.5 secs

     total energy              =   -8008.24014817 Ry
     estimated scf accuracy    <      80.45478406 Ry

     total magnetization       =   119.99 Bohr mag/cell
     absolute magnetization    =   173.51 Bohr mag/cell

     iteration #  5     ecut=    50.00 Ry     beta= 0.10
     Davidson diagonalization with overlap
     ethr =  7.26E-03,  avg # of iterations =  1.0

     negative rho (up, down):  1.114E-02 1.153E-09
 
     Adding external electric field

     Computed dipole along edir(3) : 
        Dipole               -1.3089 Ry au,         -3.3269 Debye
        Dipole field         -0.0008 Ry au, 
 
        Potential amp.        0.0858 Ry
        Total length         54.7057 bohr
 
 
     Adding external electric field

     Computed dipole along edir(3) : 
        Dipole               -1.3089 Ry au,         -3.3269 Debye
        Dipole field         -0.0008 Ry au, 
 
        Potential amp.        0.0858 Ry
        Total length         54.7057 bohr
 

     total cpu time spent up to now is       99.3 secs

     total energy              =   -8068.36004810 Ry
     estimated scf accuracy    <      62.76285398 Ry

     total magnetization       =   106.00 Bohr mag/cell
     absolute magnetization    =   157.96 Bohr mag/cell

     iteration #  6     ecut=    50.00 Ry     beta= 0.10
     Davidson diagonalization with overlap
     ethr =  5.66E-03,  avg # of iterations =  1.0

     negative rho (up, down):  1.031E-04 2.926E-04
 
     Adding external electric field

     Computed dipole along edir(3) : 
        Dipole               -0.9258 Ry au,         -2.3531 Debye
        Dipole field         -0.0006 Ry au, 
 
        Potential amp.        0.0607 Ry
        Total length         54.7057 bohr
 
 
     Adding external electric field

     Computed dipole along edir(3) : 
        Dipole               -0.9258 Ry au,         -2.3531 Debye
        Dipole field         -0.0006 Ry au, 
 
        Potential amp.        0.0607 Ry
        Total length         54.7057 bohr
 

     total cpu time spent up to now is      112.3 secs

     total energy              =   -8076.67779075 Ry
     estimated scf accuracy    <       8.94154913 Ry

     total magnetization       =    98.67 Bohr mag/cell
     absolute magnetization    =   127.25 Bohr mag/cell

     iteration #  7     ecut=    50.00 Ry     beta= 0.10
     Davidson diagonalization with overlap
     ethr =  8.07E-04,  avg # of iterations =  6.0

     negative rho (up, down):  1.007E-04 2.542E-04
 
     Adding external electric field

     Computed dipole along edir(3) : 
        Dipole               -0.9385 Ry au,         -2.3855 Debye
        Dipole field         -0.0006 Ry au, 
 
        Potential amp.        0.0616 Ry
        Total length         54.7057 bohr
 
 
     Adding external electric field

     Computed dipole along edir(3) : 
        Dipole               -0.9385 Ry au,         -2.3855 Debye
        Dipole field         -0.0006 Ry au, 
 
        Potential amp.        0.0616 Ry
        Total length         54.7057 bohr
 

     total cpu time spent up to now is      136.5 secs

     total energy              =   -8078.84520789 Ry
     estimated scf accuracy    <      27.31583907 Ry

     total magnetization       =    69.94 Bohr mag/cell
     absolute magnetization    =    87.47 Bohr mag/cell

     iteration #  8     ecut=    50.00 Ry     beta= 0.10
     Davidson diagonalization with overlap
     ethr =  8.07E-04,  avg # of iterations =  1.0

     negative rho (up, down):  9.451E-05 2.549E-04
 
     Adding external electric field

     Computed dipole along edir(3) : 
        Dipole               -0.9324 Ry au,         -2.3700 Debye
        Dipole field         -0.0006 Ry au, 
 
        Potential amp.        0.0612 Ry
        Total length         54.7057 bohr
 
 
     Adding external electric field

     Computed dipole along edir(3) : 
        Dipole               -0.9324 Ry au,         -2.3700 Debye
        Dipole field         -0.0006 Ry au, 
 
        Potential amp.        0.0612 Ry
        Total length         54.7057 bohr
 

     total cpu time spent up to now is      151.0 secs

     total energy              =   -8078.63520503 Ry
     estimated scf accuracy    <      28.15265806 Ry

     total magnetization       =    69.88 Bohr mag/cell
     absolute magnetization    =    87.09 Bohr mag/cell

     iteration #  9     ecut=    50.00 Ry     beta= 0.10
     Davidson diagonalization with overlap
     ethr =  8.07E-04,  avg # of iterations =  1.0

     negative rho (up, down):  9.101E-05 2.720E-04
 
     Adding external electric field

     Computed dipole along edir(3) : 
        Dipole               -0.9456 Ry au,         -2.4035 Debye
        Dipole field         -0.0006 Ry au, 
 
        Potential amp.        0.0620 Ry
        Total length         54.7057 bohr
 
 
     Adding external electric field

     Computed dipole along edir(3) : 
        Dipole               -0.9456 Ry au,         -2.4035 Debye
        Dipole field         -0.0006 Ry au, 
 
        Potential amp.        0.0620 Ry
        Total length         54.7057 bohr
 

     total cpu time spent up to now is      164.3 secs

     total energy              =   -8078.09389478 Ry
     estimated scf accuracy    <      25.55330884 Ry

     total magnetization       =    70.26 Bohr mag/cell
     absolute magnetization    =    86.90 Bohr mag/cell

     iteration # 10     ecut=    50.00 Ry     beta= 0.10
     Davidson diagonalization with overlap
     ethr =  8.07E-04,  avg # of iterations =  1.0

     negative rho (up, down):  8.507E-05 2.061E-04
 
     Adding external electric field

     Computed dipole along edir(3) : 
        Dipole               -0.9561 Ry au,         -2.4301 Debye
        Dipole field         -0.0006 Ry au, 
 
        Potential amp.        0.0627 Ry
        Total length         54.7057 bohr
 
 
     Adding external electric field

     Computed dipole along edir(3) : 
        Dipole               -0.9561 Ry au,         -2.4301 Debye
        Dipole field         -0.0006 Ry au, 
 
        Potential amp.        0.0627 Ry
        Total length         54.7057 bohr
 

     total cpu time spent up to now is      177.1 secs

     total energy              =   -8078.19689192 Ry
     estimated scf accuracy    <      10.81060928 Ry

     total magnetization       =    80.67 Bohr mag/cell
     absolute magnetization    =    94.99 Bohr mag/cell

     iteration # 11     ecut=    50.00 Ry     beta= 0.10
     Davidson diagonalization with overlap
     ethr =  8.07E-04,  avg # of iterations =  1.0

     negative rho (up, down):  7.397E-05 2.549E-04
 
     Adding external electric field

     Computed dipole along edir(3) : 
        Dipole               -0.9241 Ry au,         -2.3490 Debye
        Dipole field         -0.0006 Ry au, 
 
        Potential amp.        0.0606 Ry
        Total length         54.7057 bohr
 
 
     Adding external electric field

     Computed dipole along edir(3) : 
        Dipole               -0.9241 Ry au,         -2.3490 Debye
        Dipole field         -0.0006 Ry au, 
 
        Potential amp.        0.0606 Ry
        Total length         54.7057 bohr
 

     total cpu time spent up to now is      189.8 secs

     total energy              =   -8078.19211944 Ry
     estimated scf accuracy    <       9.79288545 Ry

     total magnetization       =    81.73 Bohr mag/cell
     absolute magnetization    =    95.83 Bohr mag/cell

     iteration # 12     ecut=    50.00 Ry     beta= 0.10
     Davidson diagonalization with overlap
     ethr =  8.07E-04,  avg # of iterations =  1.0

     negative rho (up, down):  2.236E-05 7.953E-05
 
     Adding external electric field

     Computed dipole along edir(3) : 
        Dipole               -0.8424 Ry au,         -2.1412 Debye
        Dipole field         -0.0005 Ry au, 
 
        Potential amp.        0.0553 Ry
        Total length         54.7057 bohr
 
 
     Adding external electric field

     Computed dipole along edir(3) : 
        Dipole               -0.8424 Ry au,         -2.1412 Debye
        Dipole field         -0.0005 Ry au, 
 
        Potential amp.        0.0553 Ry
        Total length         54.7057 bohr
 

     total cpu time spent up to now is      202.5 secs

     total energy              =   -8078.25791514 Ry
     estimated scf accuracy    <       8.93489141 Ry

     total magnetization       =    82.19 Bohr mag/cell
     absolute magnetization    =    95.68 Bohr mag/cell

     iteration # 13     ecut=    50.00 Ry     beta= 0.10
     Davidson diagonalization with overlap
     ethr =  8.06E-04,  avg # of iterations =  1.0

     negative rho (up, down):  1.025E-05 3.454E-05
 
     Adding external electric field

     Computed dipole along edir(3) : 
        Dipole               -0.8378 Ry au,         -2.1295 Debye
        Dipole field         -0.0005 Ry au, 
 
        Potential amp.        0.0549 Ry
        Total length         54.7057 bohr
 
 
     Adding external electric field

     Computed dipole along edir(3) : 
        Dipole               -0.8378 Ry au,         -2.1295 Debye
        Dipole field         -0.0005 Ry au, 
 
        Potential amp.        0.0549 Ry
        Total length         54.7057 bohr
 

     total cpu time spent up to now is      215.2 secs

     total energy              =   -8078.49879910 Ry
     estimated scf accuracy    <       8.18371078 Ry

     total magnetization       =    82.62 Bohr mag/cell
     absolute magnetization    =    94.54 Bohr mag/cell

     iteration # 14     ecut=    50.00 Ry     beta= 0.10
     Davidson diagonalization with overlap
     ethr =  7.39E-04,  avg # of iterations =  1.0

     negative rho (up, down):  2.411E-05 1.649E-05
 
     Adding external electric field

     Computed dipole along edir(3) : 
        Dipole               -0.8327 Ry au,         -2.1165 Debye
        Dipole field         -0.0005 Ry au, 
 
        Potential amp.        0.0546 Ry
        Total length         54.7057 bohr
 
 
     Adding external electric field

     Computed dipole along edir(3) : 
        Dipole               -0.8327 Ry au,         -2.1165 Debye
        Dipole field         -0.0005 Ry au, 
 
        Potential amp.        0.0546 Ry
        Total length         54.7057 bohr
 

     total cpu time spent up to now is      228.0 secs

     total energy              =   -8078.27672107 Ry
     estimated scf accuracy    <      16.69918856 Ry

     total magnetization       =    74.01 Bohr mag/cell
     absolute magnetization    =    86.23 Bohr mag/cell

     iteration # 15     ecut=    50.00 Ry     beta= 0.10
     Davidson diagonalization with overlap
     ethr =  7.39E-04,  avg # of iterations =  1.0

     negative rho (up, down):  1.676E-05 1.496E-05
 
     Adding external electric field

     Computed dipole along edir(3) : 
        Dipole               -0.8487 Ry au,         -2.1573 Debye
        Dipole field         -0.0005 Ry au, 
 
        Potential amp.        0.0557 Ry
        Total length         54.7057 bohr
 
 
     Adding external electric field

     Computed dipole along edir(3) : 
        Dipole               -0.8487 Ry au,         -2.1573 Debye
        Dipole field         -0.0005 Ry au, 
 
        Potential amp.        0.0557 Ry
        Total length         54.7057 bohr
 

     total cpu time spent up to now is      240.8 secs

     total energy              =   -8078.42903717 Ry
     estimated scf accuracy    <       5.17916808 Ry

     total magnetization       =    87.96 Bohr mag/cell
     absolute magnetization    =    96.26 Bohr mag/cell

     iteration # 16     ecut=    50.00 Ry     beta= 0.10
     Davidson diagonalization with overlap
     ethr =  4.67E-04,  avg # of iterations =  1.5

     negative rho (up, down):  1.294E-05 1.448E-05
 
     Adding external electric field

     Computed dipole along edir(3) : 
        Dipole               -0.8595 Ry au,         -2.1846 Debye
        Dipole field         -0.0005 Ry au, 
 
        Potential amp.        0.0564 Ry
        Total length         54.7057 bohr
 
 
     Adding external electric field

     Computed dipole along edir(3) : 
        Dipole               -0.8595 Ry au,         -2.1846 Debye
        Dipole field         -0.0005 Ry au, 
 
        Potential amp.        0.0564 Ry
        Total length         54.7057 bohr
 

     total cpu time spent up to now is      254.3 secs

     total energy              =   -8078.47556079 Ry
     estimated scf accuracy    <       2.36600187 Ry

     total magnetization       =    91.65 Bohr mag/cell
     absolute magnetization    =    99.16 Bohr mag/cell

     iteration # 17     ecut=    50.00 Ry     beta= 0.10
     Davidson diagonalization with overlap
     ethr =  2.14E-04,  avg # of iterations =  1.5

     negative rho (up, down):  3.970E-05 6.171E-05
 
     Adding external electric field

     Computed dipole along edir(3) : 
        Dipole               -0.8963 Ry au,         -2.2783 Debye
        Dipole field         -0.0005 Ry au, 
 
        Potential amp.        0.0588 Ry
        Total length         54.7057 bohr
 
 
     Adding external electric field

     Computed dipole along edir(3) : 
        Dipole               -0.8963 Ry au,         -2.2783 Debye
        Dipole field         -0.0005 Ry au, 
 
        Potential amp.        0.0588 Ry
        Total length         54.7057 bohr
 

     total cpu time spent up to now is      268.2 secs

     total energy              =   -8078.46853304 Ry
     estimated scf accuracy    <       2.20941727 Ry

     total magnetization       =    91.36 Bohr mag/cell
     absolute magnetization    =    97.94 Bohr mag/cell

     iteration # 18     ecut=    50.00 Ry     beta= 0.10
     Davidson diagonalization with overlap
     ethr =  1.99E-04,  avg # of iterations =  1.5

     negative rho (up, down):  1.749E-05 5.070E-05
 
     Adding external electric field

     Computed dipole along edir(3) : 
        Dipole               -0.8895 Ry au,         -2.2608 Debye
        Dipole field         -0.0005 Ry au, 
 
        Potential amp.        0.0583 Ry
        Total length         54.7057 bohr
 
 
     Adding external electric field

     Computed dipole along edir(3) : 
        Dipole               -0.8895 Ry au,         -2.2608 Debye
        Dipole field         -0.0005 Ry au, 
 
        Potential amp.        0.0583 Ry
        Total length         54.7057 bohr
 

     total cpu time spent up to now is      282.1 secs

     total energy              =   -8078.51663298 Ry
     estimated scf accuracy    <       0.41920722 Ry

     total magnetization       =    97.42 Bohr mag/cell
     absolute magnetization    =   101.22 Bohr mag/cell

     iteration # 19     ecut=    50.00 Ry     beta= 0.10
     Davidson diagonalization with overlap
     ethr =  3.78E-05,  avg # of iterations = 10.0

     negative rho (up, down):  7.506E-06 1.169E-04
 
     Adding external electric field

     Computed dipole along edir(3) : 
        Dipole               -0.8680 Ry au,         -2.2062 Debye
        Dipole field         -0.0005 Ry au, 
 
        Potential amp.        0.0569 Ry
        Total length         54.7057 bohr
 
 
     Adding external electric field

     Computed dipole along edir(3) : 
        Dipole               -0.8680 Ry au,         -2.2062 Debye
        Dipole field         -0.0005 Ry au, 
 
        Potential amp.        0.0569 Ry
        Total length         54.7057 bohr
 

     total cpu time spent up to now is      304.3 secs

     total energy              =   -8078.52060579 Ry
     estimated scf accuracy    <       0.28116976 Ry

     total magnetization       =    97.16 Bohr mag/cell
     absolute magnetization    =   100.60 Bohr mag/cell

     iteration # 20     ecut=    50.00 Ry     beta= 0.10
     Davidson diagonalization with overlap
     ethr =  2.54E-05,  avg # of iterations =  1.5

     negative rho (up, down):  8.567E-06 5.905E-05
 
     Adding external electric field

     Computed dipole along edir(3) : 
        Dipole               -0.8349 Ry au,         -2.1220 Debye
        Dipole field         -0.0005 Ry au, 
 
        Potential amp.        0.0548 Ry
        Total length         54.7057 bohr
 
 
     Adding external electric field

     Computed dipole along edir(3) : 
        Dipole               -0.8349 Ry au,         -2.1220 Debye
        Dipole field         -0.0005 Ry au, 
 
        Potential amp.        0.0548 Ry
        Total length         54.7057 bohr
 

     total cpu time spent up to now is      317.4 secs

     total energy              =   -8078.54548206 Ry
     estimated scf accuracy    <       0.16728605 Ry

     total magnetization       =    96.65 Bohr mag/cell
     absolute magnetization    =    99.26 Bohr mag/cell

     iteration # 21     ecut=    50.00 Ry     beta= 0.10
     Davidson diagonalization with overlap
     c_bands:  5 eigenvalues not converged
     ethr =  1.51E-05,  avg # of iterations = 10.5

     negative rho (up, down):  1.783E-05 1.016E-04
 
     Adding external electric field

     Computed dipole along edir(3) : 
        Dipole               -0.8018 Ry au,         -2.0380 Debye
        Dipole field         -0.0005 Ry au, 
 
        Potential amp.        0.0526 Ry
        Total length         54.7057 bohr
 
 
     Adding external electric field

     Computed dipole along edir(3) : 
        Dipole               -0.8018 Ry au,         -2.0380 Debye
        Dipole field         -0.0005 Ry au, 
 
        Potential amp.        0.0526 Ry
        Total length         54.7057 bohr
 

     total cpu time spent up to now is      338.7 secs

     total energy              =   -8078.55473488 Ry
     estimated scf accuracy    <       0.16639951 Ry

     total magnetization       =    97.25 Bohr mag/cell
     absolute magnetization    =    99.37 Bohr mag/cell

     iteration # 22     ecut=    50.00 Ry     beta= 0.10
     Davidson diagonalization with overlap
     ethr =  1.50E-05,  avg # of iterations =  1.5

     negative rho (up, down):  9.624E-06 4.865E-05
 
     Adding external electric field

     Computed dipole along edir(3) : 
        Dipole               -0.7447 Ry au,         -1.8928 Debye
        Dipole field         -0.0004 Ry au, 
 
        Potential amp.        0.0488 Ry
        Total length         54.7057 bohr
 
 
     Adding external electric field

     Computed dipole along edir(3) : 
        Dipole               -0.7447 Ry au,         -1.8928 Debye
        Dipole field         -0.0004 Ry au, 
 
        Potential amp.        0.0488 Ry
        Total length         54.7057 bohr
 

     total cpu time spent up to now is      351.6 secs

     total energy              =   -8078.55987763 Ry
     estimated scf accuracy    <       0.11455479 Ry

     total magnetization       =    97.24 Bohr mag/cell
     absolute magnetization    =    98.76 Bohr mag/cell

     iteration # 23     ecut=    50.00 Ry     beta= 0.10
     Davidson diagonalization with overlap
     ethr =  1.03E-05,  avg # of iterations =  2.0

     negative rho (up, down):  1.482E-05 2.766E-05
 
     Adding external electric field

     Computed dipole along edir(3) : 
        Dipole               -0.6988 Ry au,         -1.7763 Debye
        Dipole field         -0.0004 Ry au, 
 
        Potential amp.        0.0458 Ry
        Total length         54.7057 bohr
 
 
     Adding external electric field

     Computed dipole along edir(3) : 
        Dipole               -0.6988 Ry au,         -1.7763 Debye
        Dipole field         -0.0004 Ry au, 
 
        Potential amp.        0.0458 Ry
        Total length         54.7057 bohr
 

     total cpu time spent up to now is      366.2 secs

     total energy              =   -8078.56252948 Ry
     estimated scf accuracy    <       0.13813313 Ry

     total magnetization       =    96.95 Bohr mag/cell
     absolute magnetization    =    98.18 Bohr mag/cell

     iteration # 24     ecut=    50.00 Ry     beta= 0.10
     Davidson diagonalization with overlap
     ethr =  1.03E-05,  avg # of iterations =  1.0

     negative rho (up, down):  1.291E-05 2.296E-05
 
     Adding external electric field

     Computed dipole along edir(3) : 
        Dipole               -0.6486 Ry au,         -1.6486 Debye
        Dipole field         -0.0004 Ry au, 
 
        Potential amp.        0.0425 Ry
        Total length         54.7057 bohr
 
 
     Adding external electric field

     Computed dipole along edir(3) : 
        Dipole               -0.6486 Ry au,         -1.6486 Debye
        Dipole field         -0.0004 Ry au, 
 
        Potential amp.        0.0425 Ry
        Total length         54.7057 bohr
 

     total cpu time spent up to now is      378.3 secs

     total energy              =   -8078.55993581 Ry
     estimated scf accuracy    <       0.10927469 Ry

     total magnetization       =    97.21 Bohr mag/cell
     absolute magnetization    =    98.31 Bohr mag/cell

     iteration # 25     ecut=    50.00 Ry     beta= 0.10
     Davidson diagonalization with overlap
     ethr =  9.86E-06,  avg # of iterations =  2.0

     negative rho (up, down):  3.559E-06 7.323E-06
 
     Adding external electric field

     Computed dipole along edir(3) : 
        Dipole               -0.5331 Ry au,         -1.3551 Debye
        Dipole field         -0.0003 Ry au, 
 
        Potential amp.        0.0350 Ry
        Total length         54.7057 bohr
 
 
     Adding external electric field

     Computed dipole along edir(3) : 
        Dipole               -0.5331 Ry au,         -1.3551 Debye
        Dipole field         -0.0003 Ry au, 
 
        Potential amp.        0.0350 Ry
        Total length         54.7057 bohr
 

     total cpu time spent up to now is      392.0 secs

     total energy              =   -8078.55855224 Ry
     estimated scf accuracy    <       0.08347077 Ry

     total magnetization       =    97.25 Bohr mag/cell
     absolute magnetization    =    98.22 Bohr mag/cell

     iteration # 26     ecut=    50.00 Ry     beta= 0.10
     Davidson diagonalization with overlap
     ethr =  7.53E-06,  avg # of iterations =  3.5

     negative rho (up, down):  1.171E-06 2.647E-06
 
     Adding external electric field

     Computed dipole along edir(3) : 
        Dipole               -0.4664 Ry au,         -1.1855 Debye
        Dipole field         -0.0003 Ry au, 
 
        Potential amp.        0.0306 Ry
        Total length         54.7057 bohr
 
 
     Adding external electric field

     Computed dipole along edir(3) : 
        Dipole               -0.4664 Ry au,         -1.1855 Debye
        Dipole field         -0.0003 Ry au, 
 
        Potential amp.        0.0306 Ry
        Total length         54.7057 bohr
 

     total cpu time spent up to now is      406.7 secs

     total energy              =   -8078.56109264 Ry
     estimated scf accuracy    <       0.02628306 Ry

     total magnetization       =    97.08 Bohr mag/cell
     absolute magnetization    =    98.04 Bohr mag/cell

     iteration # 27     ecut=    50.00 Ry     beta= 0.10
     Davidson diagonalization with overlap
     c_bands:  5 eigenvalues not converged
     c_bands:  4 eigenvalues not converged
     ethr =  2.37E-06,  avg # of iterations = 20.0

     negative rho (up, down):  1.667E-06 3.215E-06
 
     Adding external electric field

     Computed dipole along edir(3) : 
        Dipole               -0.4502 Ry au,         -1.1444 Debye
        Dipole field         -0.0003 Ry au, 
 
        Potential amp.        0.0295 Ry
        Total length         54.7057 bohr
 
 
     Adding external electric field

     Computed dipole along edir(3) : 
        Dipole               -0.4502 Ry au,         -1.1444 Debye
        Dipole field         -0.0003 Ry au, 
 
        Potential amp.        0.0295 Ry
        Total length         54.7057 bohr
 

     total cpu time spent up to now is      435.3 secs

     total energy              =   -8078.56154479 Ry
     estimated scf accuracy    <       0.02996138 Ry

     total magnetization       =    96.95 Bohr mag/cell
     absolute magnetization    =    97.97 Bohr mag/cell

     iteration # 28     ecut=    50.00 Ry     beta= 0.10
     Davidson diagonalization with overlap
     ethr =  2.37E-06,  avg # of iterations =  2.0

     negative rho (up, down):  1.632E-06 3.340E-06
 
     Adding external electric field

     Computed dipole along edir(3) : 
        Dipole               -0.4383 Ry au,         -1.1140 Debye
        Dipole field         -0.0003 Ry au, 
 
        Potential amp.        0.0287 Ry
        Total length         54.7057 bohr
 
 
     Adding external electric field

     Computed dipole along edir(3) : 
        Dipole               -0.4383 Ry au,         -1.1140 Debye
        Dipole field         -0.0003 Ry au, 
 
        Potential amp.        0.0287 Ry
        Total length         54.7057 bohr
 

     total cpu time spent up to now is      449.3 secs

     total energy              =   -8078.56157007 Ry
     estimated scf accuracy    <       0.03090811 Ry

     total magnetization       =    97.05 Bohr mag/cell
     absolute magnetization    =    98.07 Bohr mag/cell

     iteration # 29     ecut=    50.00 Ry     beta= 0.10
     Davidson diagonalization with overlap
     ethr =  2.37E-06,  avg # of iterations =  1.0

     negative rho (up, down):  6.143E-06 2.052E-05
 
     Adding external electric field

     Computed dipole along edir(3) : 
        Dipole               -0.3767 Ry au,         -0.9574 Debye
        Dipole field         -0.0002 Ry au, 
 
        Potential amp.        0.0247 Ry
        Total length         54.7057 bohr
 
 
     Adding external electric field

     Computed dipole along edir(3) : 
        Dipole               -0.3767 Ry au,         -0.9574 Debye
        Dipole field         -0.0002 Ry au, 
 
        Potential amp.        0.0247 Ry
        Total length         54.7057 bohr
 

     total cpu time spent up to now is      461.6 secs

     total energy              =   -8078.56117410 Ry
     estimated scf accuracy    <       0.02981980 Ry

     total magnetization       =    97.02 Bohr mag/cell
     absolute magnetization    =    98.05 Bohr mag/cell

     iteration # 30     ecut=    50.00 Ry     beta= 0.10
     Davidson diagonalization with overlap
     ethr =  2.37E-06,  avg # of iterations =  2.0

     negative rho (up, down):  3.029E-06 8.489E-06
 
     Adding external electric field

     Computed dipole along edir(3) : 
        Dipole               -0.3943 Ry au,         -1.0023 Debye
        Dipole field         -0.0002 Ry au, 
 
        Potential amp.        0.0259 Ry
        Total length         54.7057 bohr
 
 
     Adding external electric field

     Computed dipole along edir(3) : 
        Dipole               -0.3943 Ry au,         -1.0023 Debye
        Dipole field         -0.0002 Ry au, 
 
        Potential amp.        0.0259 Ry
        Total length         54.7057 bohr
 

     total cpu time spent up to now is      475.7 secs

     total energy              =   -8078.56144041 Ry
     estimated scf accuracy    <       0.03790041 Ry

     total magnetization       =    97.05 Bohr mag/cell
     absolute magnetization    =    98.09 Bohr mag/cell

     iteration # 31     ecut=    50.00 Ry     beta= 0.10
     Davidson diagonalization with overlap
     ethr =  2.37E-06,  avg # of iterations =  1.0

     negative rho (up, down):  4.998E-06 1.367E-05
 
     Adding external electric field

     Computed dipole along edir(3) : 
        Dipole               -0.3805 Ry au,         -0.9672 Debye
        Dipole field         -0.0002 Ry au, 
 
        Potential amp.        0.0250 Ry
        Total length         54.7057 bohr
 
 
     Adding external electric field

     Computed dipole along edir(3) : 
        Dipole               -0.3805 Ry au,         -0.9672 Debye
        Dipole field         -0.0002 Ry au, 
 
        Potential amp.        0.0250 Ry
        Total length         54.7057 bohr
 

     total cpu time spent up to now is      488.2 secs

     total energy              =   -8078.56131475 Ry
     estimated scf accuracy    <       0.03161107 Ry

     total magnetization       =    97.03 Bohr mag/cell
     absolute magnetization    =    98.08 Bohr mag/cell

     iteration # 32     ecut=    50.00 Ry     beta= 0.10
     Davidson diagonalization with overlap
     ethr =  2.37E-06,  avg # of iterations =  1.0

     negative rho (up, down):  1.102E-05 3.717E-05
 
     Adding external electric field

     Computed dipole along edir(3) : 
        Dipole               -0.3669 Ry au,         -0.9327 Debye
        Dipole field         -0.0002 Ry au, 
 
        Potential amp.        0.0241 Ry
        Total length         54.7057 bohr
 
 
     Adding external electric field

     Computed dipole along edir(3) : 
        Dipole               -0.3669 Ry au,         -0.9327 Debye
        Dipole field         -0.0002 Ry au, 
 
        Potential amp.        0.0241 Ry
        Total length         54.7057 bohr
 

     total cpu time spent up to now is      500.7 secs

     total energy              =   -8078.56136546 Ry
     estimated scf accuracy    <       0.03932642 Ry

     total magnetization       =    97.07 Bohr mag/cell
     absolute magnetization    =    98.11 Bohr mag/cell

     iteration # 33     ecut=    50.00 Ry     beta= 0.10
     Davidson diagonalization with overlap
     ethr =  2.37E-06,  avg # of iterations =  1.0

     negative rho (up, down):  8.299E-04 1.133E-03
 
     Adding external electric field

     Computed dipole along edir(3) : 
        Dipole               -0.2797 Ry au,         -0.7109 Debye
        Dipole field         -0.0002 Ry au, 
 
        Potential amp.        0.0183 Ry
        Total length         54.7057 bohr
 
 
     Adding external electric field

     Computed dipole along edir(3) : 
        Dipole               -0.2797 Ry au,         -0.7109 Debye
        Dipole field         -0.0002 Ry au, 
 
        Potential amp.        0.0183 Ry
        Total length         54.7057 bohr
 

     total cpu time spent up to now is      513.2 secs

     total energy              =   -8078.56025144 Ry
     estimated scf accuracy    <       0.03349548 Ry

     total magnetization       =    97.04 Bohr mag/cell
     absolute magnetization    =    98.09 Bohr mag/cell

     iteration # 34     ecut=    50.00 Ry     beta= 0.10
     Davidson diagonalization with overlap
     ethr =  2.37E-06,  avg # of iterations =  2.5

     negative rho (up, down):  1.265E-03 1.598E-03
 
     Adding external electric field

     Computed dipole along edir(3) : 
        Dipole               -0.2839 Ry au,         -0.7217 Debye
        Dipole field         -0.0002 Ry au, 
 
        Potential amp.        0.0186 Ry
        Total length         54.7057 bohr
 
 
     Adding external electric field

     Computed dipole along edir(3) : 
        Dipole               -0.2839 Ry au,         -0.7217 Debye
        Dipole field         -0.0002 Ry au, 
 
        Potential amp.        0.0186 Ry
        Total length         54.7057 bohr
 

     total cpu time spent up to now is      527.6 secs

     total energy              =   -8078.55979763 Ry
     estimated scf accuracy    <       0.03195196 Ry

     total magnetization       =    96.97 Bohr mag/cell
     absolute magnetization    =    98.04 Bohr mag/cell

     iteration # 35     ecut=    50.00 Ry     beta= 0.10
     Davidson diagonalization with overlap
     ethr =  2.37E-06,  avg # of iterations =  1.5

     negative rho (up, down):  1.668E-03 2.017E-03
 
     Adding external electric field

     Computed dipole along edir(3) : 
        Dipole               -0.2804 Ry au,         -0.7126 Debye
        Dipole field         -0.0002 Ry au, 
 
        Potential amp.        0.0184 Ry
        Total length         54.7057 bohr
 
 
     Adding external electric field

     Computed dipole along edir(3) : 
        Dipole               -0.2804 Ry au,         -0.7126 Debye
        Dipole field         -0.0002 Ry au, 
 
        Potential amp.        0.0184 Ry
        Total length         54.7057 bohr
 

     total cpu time spent up to now is      541.6 secs

     total energy              =   -8078.56027646 Ry
     estimated scf accuracy    <       0.02611184 Ry

     total magnetization       =    96.97 Bohr mag/cell
     absolute magnetization    =    98.03 Bohr mag/cell

     iteration # 36     ecut=    50.00 Ry     beta= 0.10
     Davidson diagonalization with overlap
     ethr =  2.36E-06,  avg # of iterations =  1.5

     negative rho (up, down):  2.679E-03 3.025E-03
 
     Adding external electric field

     Computed dipole along edir(3) : 
        Dipole               -0.2550 Ry au,         -0.6481 Debye
        Dipole field         -0.0002 Ry au, 
 
        Potential amp.        0.0167 Ry
        Total length         54.7057 bohr
 
 
     Adding external electric field

     Computed dipole along edir(3) : 
        Dipole               -0.2550 Ry au,         -0.6481 Debye
        Dipole field         -0.0002 Ry au, 
 
        Potential amp.        0.0167 Ry
        Total length         54.7057 bohr
 

     total cpu time spent up to now is      555.2 secs

     total energy              =   -8078.56095134 Ry
     estimated scf accuracy    <       0.02367014 Ry

     total magnetization       =    96.96 Bohr mag/cell
     absolute magnetization    =    98.04 Bohr mag/cell

     iteration # 37     ecut=    50.00 Ry     beta= 0.10
     Davidson diagonalization with overlap
     ethr =  2.14E-06,  avg # of iterations =  2.0

     negative rho (up, down):  4.811E-03 5.003E-03
 
     Adding external electric field

     Computed dipole along edir(3) : 
        Dipole               -0.2054 Ry au,         -0.5222 Debye
        Dipole field         -0.0001 Ry au, 
 
        Potential amp.        0.0135 Ry
        Total length         54.7057 bohr
 
 
     Adding external electric field

     Computed dipole along edir(3) : 
        Dipole               -0.2054 Ry au,         -0.5222 Debye
        Dipole field         -0.0001 Ry au, 
 
        Potential amp.        0.0135 Ry
        Total length         54.7057 bohr
 

     total cpu time spent up to now is      568.7 secs

     total energy              =   -8078.56048051 Ry
     estimated scf accuracy    <       0.01957750 Ry

     total magnetization       =    96.93 Bohr mag/cell
     absolute magnetization    =    98.04 Bohr mag/cell

     iteration # 38     ecut=    50.00 Ry     beta= 0.10
     Davidson diagonalization with overlap
     ethr =  1.77E-06,  avg # of iterations =  2.0

     negative rho (up, down):  8.812E-04 8.487E-04
 
     Adding external electric field

     Computed dipole along edir(3) : 
        Dipole               -0.2810 Ry au,         -0.7143 Debye
        Dipole field         -0.0002 Ry au, 
 
        Potential amp.        0.0184 Ry
        Total length         54.7057 bohr
 
 
     Adding external electric field

     Computed dipole along edir(3) : 
        Dipole               -0.2810 Ry au,         -0.7143 Debye
        Dipole field         -0.0002 Ry au, 
 
        Potential amp.        0.0184 Ry
        Total length         54.7057 bohr
 

     total cpu time spent up to now is      582.5 secs

     total energy              =   -8078.56135632 Ry
     estimated scf accuracy    <       0.02033121 Ry

     total magnetization       =    96.95 Bohr mag/cell
     absolute magnetization    =    98.03 Bohr mag/cell

     iteration # 39     ecut=    50.00 Ry     beta= 0.10
     Davidson diagonalization with overlap
     ethr =  1.77E-06,  avg # of iterations =  2.0

     negative rho (up, down):  7.511E-04 6.462E-04
 
     Adding external electric field

     Computed dipole along edir(3) : 
        Dipole               -0.2318 Ry au,         -0.5891 Debye
        Dipole field         -0.0001 Ry au, 
 
        Potential amp.        0.0152 Ry
        Total length         54.7057 bohr
 
 
     Adding external electric field

     Computed dipole along edir(3) : 
        Dipole               -0.2318 Ry au,         -0.5891 Debye
        Dipole field         -0.0001 Ry au, 
 
        Potential amp.        0.0152 Ry
        Total length         54.7057 bohr
 

     total cpu time spent up to now is      596.4 secs

     total energy              =   -8078.56157054 Ry
     estimated scf accuracy    <       0.01477253 Ry

     total magnetization       =    96.93 Bohr mag/cell
     absolute magnetization    =    98.07 Bohr mag/cell

     iteration # 40     ecut=    50.00 Ry     beta= 0.10
     Davidson diagonalization with overlap
     ethr =  1.33E-06,  avg # of iterations =  2.0

     negative rho (up, down):  1.122E-03 9.656E-04
 
     Adding external electric field

     Computed dipole along edir(3) : 
        Dipole               -0.1904 Ry au,         -0.4841 Debye
        Dipole field         -0.0001 Ry au, 
 
        Potential amp.        0.0125 Ry
        Total length         54.7057 bohr
 
 
     Adding external electric field

     Computed dipole along edir(3) : 
        Dipole               -0.1904 Ry au,         -0.4841 Debye
        Dipole field         -0.0001 Ry au, 
 
        Potential amp.        0.0125 Ry
        Total length         54.7057 bohr
 

     total cpu time spent up to now is      610.2 secs

     total energy              =   -8078.56163267 Ry
     estimated scf accuracy    <       0.01959457 Ry

     total magnetization       =    97.00 Bohr mag/cell
     absolute magnetization    =    98.20 Bohr mag/cell

     iteration # 41     ecut=    50.00 Ry     beta= 0.10
     Davidson diagonalization with overlap
     ethr =  1.33E-06,  avg # of iterations =  2.0

     negative rho (up, down):  5.051E-03 4.532E-03
 
     Adding external electric field

     Computed dipole along edir(3) : 
        Dipole               -0.0744 Ry au,         -0.1890 Debye
        Dipole field         -0.0000 Ry au, 
 
        Potential amp.        0.0049 Ry
        Total length         54.7057 bohr
 
 
     Adding external electric field

     Computed dipole along edir(3) : 
        Dipole               -0.0744 Ry au,         -0.1890 Debye
        Dipole field         -0.0000 Ry au, 
 
        Potential amp.        0.0049 Ry
        Total length         54.7057 bohr
 

     total cpu time spent up to now is      624.3 secs

     total energy              =   -8078.56114711 Ry
     estimated scf accuracy    <       0.01410997 Ry

     total magnetization       =    97.01 Bohr mag/cell
     absolute magnetization    =    98.27 Bohr mag/cell

     iteration # 42     ecut=    50.00 Ry     beta= 0.10
     Davidson diagonalization with overlap
     ethr =  1.27E-06,  avg # of iterations =  2.0

     negative rho (up, down):  7.204E-03 6.547E-03
 
     Adding external electric field

     Computed dipole along edir(3) : 
        Dipole               -0.0363 Ry au,         -0.0923 Debye
        Dipole field         -0.0000 Ry au, 
 
        Potential amp.        0.0024 Ry
        Total length         54.7057 bohr
 
 
     Adding external electric field

     Computed dipole along edir(3) : 
        Dipole               -0.0363 Ry au,         -0.0923 Debye
        Dipole field         -0.0000 Ry au, 
 
        Potential amp.        0.0024 Ry
        Total length         54.7057 bohr
 

     total cpu time spent up to now is      639.6 secs

     total energy              =   -8078.56094090 Ry
     estimated scf accuracy    <       0.00641547 Ry

     total magnetization       =    97.08 Bohr mag/cell
     absolute magnetization    =    98.37 Bohr mag/cell

     iteration # 43     ecut=    50.00 Ry     beta= 0.10
     Davidson diagonalization with overlap
     ethr =  5.79E-07,  avg # of iterations =  8.5

     negative rho (up, down):  4.373E-03 4.019E-03
 
     Adding external electric field

     Computed dipole along edir(3) : 
        Dipole               -0.0816 Ry au,         -0.2075 Debye
        Dipole field         -0.0000 Ry au, 
 
        Potential amp.        0.0054 Ry
        Total length         54.7057 bohr
 
 
     Adding external electric field

     Computed dipole along edir(3) : 
        Dipole               -0.0816 Ry au,         -0.2075 Debye
        Dipole field         -0.0000 Ry au, 
 
        Potential amp.        0.0054 Ry
        Total length         54.7057 bohr
 

     total cpu time spent up to now is      657.8 secs

     total energy              =   -8078.56124481 Ry
     estimated scf accuracy    <       0.00152872 Ry

     total magnetization       =    97.18 Bohr mag/cell
     absolute magnetization    =    98.43 Bohr mag/cell

     iteration # 44     ecut=    50.00 Ry     beta= 0.10
     Davidson diagonalization with overlap
     ethr =  1.38E-07,  avg # of iterations =  2.0

     negative rho (up, down):  2.963E-03 2.718E-03
 
     Adding external electric field

     Computed dipole along edir(3) : 
        Dipole               -0.1012 Ry au,         -0.2573 Debye
        Dipole field         -0.0001 Ry au, 
 
        Potential amp.        0.0066 Ry
        Total length         54.7057 bohr
 
 
     Adding external electric field

     Computed dipole along edir(3) : 
        Dipole               -0.1012 Ry au,         -0.2573 Debye
        Dipole field         -0.0001 Ry au, 
 
        Potential amp.        0.0066 Ry
        Total length         54.7057 bohr
 

     total cpu time spent up to now is      672.9 secs

     total energy              =   -8078.56131025 Ry
     estimated scf accuracy    <       0.00112188 Ry

     total magnetization       =    97.14 Bohr mag/cell
     absolute magnetization    =    98.37 Bohr mag/cell

     iteration # 45     ecut=    50.00 Ry     beta= 0.10
     Davidson diagonalization with overlap
     ethr =  1.01E-07,  avg # of iterations =  2.0

     negative rho (up, down):  1.687E-03 1.539E-03
 
     Adding external electric field

     Computed dipole along edir(3) : 
        Dipole               -0.1220 Ry au,         -0.3100 Debye
        Dipole field         -0.0001 Ry au, 
 
        Potential amp.        0.0080 Ry
        Total length         54.7057 bohr
 
 
     Adding external electric field

     Computed dipole along edir(3) : 
        Dipole               -0.1220 Ry au,         -0.3100 Debye
        Dipole field         -0.0001 Ry au, 
 
        Potential amp.        0.0080 Ry
        Total length         54.7057 bohr
 

     total cpu time spent up to now is      688.2 secs

     total energy              =   -8078.56134348 Ry
     estimated scf accuracy    <       0.00081756 Ry

     total magnetization       =    97.13 Bohr mag/cell
     absolute magnetization    =    98.35 Bohr mag/cell

     iteration # 46     ecut=    50.00 Ry     beta= 0.10
     Davidson diagonalization with overlap
     ethr =  7.38E-08,  avg # of iterations =  2.0

     negative rho (up, down):  7.153E-04 6.036E-04
 
     Adding external electric field

     Computed dipole along edir(3) : 
        Dipole               -0.1404 Ry au,         -0.3568 Debye
        Dipole field         -0.0001 Ry au, 
 
        Potential amp.        0.0092 Ry
        Total length         54.7057 bohr
 
 
     Adding external electric field

     Computed dipole along edir(3) : 
        Dipole               -0.1404 Ry au,         -0.3568 Debye
        Dipole field         -0.0001 Ry au, 
 
        Potential amp.        0.0092 Ry
        Total length         54.7057 bohr
 

     total cpu time spent up to now is      703.8 secs

     total energy              =   -8078.56136688 Ry
     estimated scf accuracy    <       0.00075964 Ry

     total magnetization       =    97.13 Bohr mag/cell
     absolute magnetization    =    98.35 Bohr mag/cell

     iteration # 47     ecut=    50.00 Ry     beta= 0.10
     Davidson diagonalization with overlap
     ethr =  6.86E-08,  avg # of iterations =  1.5

     negative rho (up, down):  1.930E-04 6.459E-05
 
     Adding external electric field

     Computed dipole along edir(3) : 
        Dipole               -0.1531 Ry au,         -0.3892 Debye
        Dipole field         -0.0001 Ry au, 
 
        Potential amp.        0.0100 Ry
        Total length         54.7057 bohr
 
 
     Adding external electric field

     Computed dipole along edir(3) : 
        Dipole               -0.1531 Ry au,         -0.3892 Debye
        Dipole field         -0.0001 Ry au, 
 
        Potential amp.        0.0100 Ry
        Total length         54.7057 bohr
 

     total cpu time spent up to now is      718.2 secs

     total energy              =   -8078.56142081 Ry
     estimated scf accuracy    <       0.00049451 Ry

     total magnetization       =    97.14 Bohr mag/cell
     absolute magnetization    =    98.36 Bohr mag/cell

     iteration # 48     ecut=    50.00 Ry     beta= 0.10
     Davidson diagonalization with overlap
     ethr =  4.46E-08,  avg # of iterations =  2.0

     negative rho (up, down):  2.134E-04 9.086E-05
 
     Adding external electric field

     Computed dipole along edir(3) : 
        Dipole               -0.1595 Ry au,         -0.4053 Debye
        Dipole field         -0.0001 Ry au, 
 
        Potential amp.        0.0105 Ry
        Total length         54.7057 bohr
 
 
     Adding external electric field

     Computed dipole along edir(3) : 
        Dipole               -0.1595 Ry au,         -0.4053 Debye
        Dipole field         -0.0001 Ry au, 
 
        Potential amp.        0.0105 Ry
        Total length         54.7057 bohr
 

     total cpu time spent up to now is      734.1 secs

     total energy              =   -8078.56143730 Ry
     estimated scf accuracy    <       0.00034178 Ry

     total magnetization       =    97.13 Bohr mag/cell
     absolute magnetization    =    98.35 Bohr mag/cell

     iteration # 49     ecut=    50.00 Ry     beta= 0.10
     Davidson diagonalization with overlap
     ethr =  3.08E-08,  avg # of iterations =  2.0

     negative rho (up, down):  1.238E-04 2.767E-05
 
     Adding external electric field

     Computed dipole along edir(3) : 
        Dipole               -0.1626 Ry au,         -0.4134 Debye
        Dipole field         -0.0001 Ry au, 
 
        Potential amp.        0.0107 Ry
        Total length         54.7057 bohr
 
 
     Adding external electric field

     Computed dipole along edir(3) : 
        Dipole               -0.1626 Ry au,         -0.4134 Debye
        Dipole field         -0.0001 Ry au, 
 
        Potential amp.        0.0107 Ry
        Total length         54.7057 bohr
 

     total cpu time spent up to now is      749.9 secs

     total energy              =   -8078.56143393 Ry
     estimated scf accuracy    <       0.00026564 Ry

     total magnetization       =    97.13 Bohr mag/cell
     absolute magnetization    =    98.35 Bohr mag/cell

     iteration # 50     ecut=    50.00 Ry     beta= 0.10
     Davidson diagonalization with overlap
     ethr =  2.40E-08,  avg # of iterations =  2.0

     negative rho (up, down):  6.349E-05 5.207E-06
 
     Adding external electric field

     Computed dipole along edir(3) : 
        Dipole               -0.1661 Ry au,         -0.4223 Debye
        Dipole field         -0.0001 Ry au, 
 
        Potential amp.        0.0109 Ry
        Total length         54.7057 bohr
 
 
     Adding external electric field

     Computed dipole along edir(3) : 
        Dipole               -0.1661 Ry au,         -0.4223 Debye
        Dipole field         -0.0001 Ry au, 
 
        Potential amp.        0.0109 Ry
        Total length         54.7057 bohr
 

     total cpu time spent up to now is      765.4 secs

     total energy              =   -8078.56142967 Ry
     estimated scf accuracy    <       0.00022489 Ry

     total magnetization       =    97.13 Bohr mag/cell
     absolute magnetization    =    98.36 Bohr mag/cell

     iteration # 51     ecut=    50.00 Ry     beta= 0.10
     Davidson diagonalization with overlap
     ethr =  2.03E-08,  avg # of iterations =  2.0

     negative rho (up, down):  1.414E-04 2.288E-05
 
     Adding external electric field

     Computed dipole along edir(3) : 
        Dipole               -0.1576 Ry au,         -0.4006 Debye
        Dipole field         -0.0001 Ry au, 
 
        Potential amp.        0.0103 Ry
        Total length         54.7057 bohr
 
 
     Adding external electric field

     Computed dipole along edir(3) : 
        Dipole               -0.1576 Ry au,         -0.4006 Debye
        Dipole field         -0.0001 Ry au, 
 
        Potential amp.        0.0103 Ry
        Total length         54.7057 bohr
 

     total cpu time spent up to now is      780.8 secs

     total energy              =   -8078.56143119 Ry
     estimated scf accuracy    <       0.00018623 Ry

     total magnetization       =    97.13 Bohr mag/cell
     absolute magnetization    =    98.37 Bohr mag/cell

     iteration # 52     ecut=    50.00 Ry     beta= 0.10
     Davidson diagonalization with overlap
     ethr =  1.68E-08,  avg # of iterations =  2.0

     negative rho (up, down):  4.577E-04 1.681E-04
 
     Adding external electric field

     Computed dipole along edir(3) : 
        Dipole               -0.1423 Ry au,         -0.3616 Debye
        Dipole field         -0.0001 Ry au, 
 
        Potential amp.        0.0093 Ry
        Total length         54.7057 bohr
 
 
     Adding external electric field

     Computed dipole along edir(3) : 
        Dipole               -0.1423 Ry au,         -0.3616 Debye
        Dipole field         -0.0001 Ry au, 
 
        Potential amp.        0.0093 Ry
        Total length         54.7057 bohr
 

     total cpu time spent up to now is      796.2 secs

     total energy              =   -8078.56144249 Ry
     estimated scf accuracy    <       0.00013947 Ry

     total magnetization       =    97.13 Bohr mag/cell
     absolute magnetization    =    98.37 Bohr mag/cell

     iteration # 53     ecut=    50.00 Ry     beta= 0.10
     Davidson diagonalization with overlap
     ethr =  1.26E-08,  avg # of iterations =  2.0

     negative rho (up, down):  9.419E-04 5.322E-04
 
     Adding external electric field

     Computed dipole along edir(3) : 
        Dipole               -0.1324 Ry au,         -0.3365 Debye
        Dipole field         -0.0001 Ry au, 
 
        Potential amp.        0.0087 Ry
        Total length         54.7057 bohr
 
 
     Adding external electric field

     Computed dipole along edir(3) : 
        Dipole               -0.1324 Ry au,         -0.3365 Debye
        Dipole field         -0.0001 Ry au, 
 
        Potential amp.        0.0087 Ry
        Total length         54.7057 bohr
 

     total cpu time spent up to now is      811.1 secs

     total energy              =   -8078.56146590 Ry
     estimated scf accuracy    <       0.00008462 Ry

     total magnetization       =    97.13 Bohr mag/cell
     absolute magnetization    =    98.37 Bohr mag/cell

     iteration # 54     ecut=    50.00 Ry     beta= 0.10
     Davidson diagonalization with overlap
     ethr =  7.64E-09,  avg # of iterations =  1.5

     negative rho (up, down):  1.367E-03 9.615E-04
 
     Adding external electric field

     Computed dipole along edir(3) : 
        Dipole               -0.1287 Ry au,         -0.3272 Debye
        Dipole field         -0.0001 Ry au, 
 
        Potential amp.        0.0084 Ry
        Total length         54.7057 bohr
 
 
     Adding external electric field

     Computed dipole along edir(3) : 
        Dipole               -0.1287 Ry au,         -0.3272 Debye
        Dipole field         -0.0001 Ry au, 
 
        Potential amp.        0.0084 Ry
        Total length         54.7057 bohr
 

     total cpu time spent up to now is      825.9 secs

     total energy              =   -8078.56147318 Ry
     estimated scf accuracy    <       0.00003811 Ry

     total magnetization       =    97.12 Bohr mag/cell
     absolute magnetization    =    98.35 Bohr mag/cell

     iteration # 55     ecut=    50.00 Ry     beta= 0.10
     Davidson diagonalization with overlap
     ethr =  3.44E-09,  avg # of iterations =  2.0

     negative rho (up, down):  1.543E-03 1.107E-03
 
     Adding external electric field

     Computed dipole along edir(3) : 
        Dipole               -0.1276 Ry au,         -0.3243 Debye
        Dipole field         -0.0001 Ry au, 
 
        Potential amp.        0.0084 Ry
        Total length         54.7057 bohr
 
 
     Adding external electric field

     Computed dipole along edir(3) : 
        Dipole               -0.1276 Ry au,         -0.3243 Debye
        Dipole field         -0.0001 Ry au, 
 
        Potential amp.        0.0084 Ry
        Total length         54.7057 bohr
 

     total cpu time spent up to now is      840.9 secs

     total energy              =   -8078.56147443 Ry
     estimated scf accuracy    <       0.00002473 Ry

     total magnetization       =    97.12 Bohr mag/cell
     absolute magnetization    =    98.34 Bohr mag/cell

     iteration # 56     ecut=    50.00 Ry     beta= 0.10
     Davidson diagonalization with overlap
     ethr =  2.23E-09,  avg # of iterations =  2.0

     negative rho (up, down):  1.447E-03 9.652E-04
 
     Adding external electric field

     Computed dipole along edir(3) : 
        Dipole               -0.1287 Ry au,         -0.3272 Debye
        Dipole field         -0.0001 Ry au, 
 
        Potential amp.        0.0084 Ry
        Total length         54.7057 bohr
 
 
     Adding external electric field

     Computed dipole along edir(3) : 
        Dipole               -0.1287 Ry au,         -0.3272 Debye
        Dipole field         -0.0001 Ry au, 
 
        Potential amp.        0.0084 Ry
        Total length         54.7057 bohr
 

     total cpu time spent up to now is      856.0 secs

     total energy              =   -8078.56147519 Ry
     estimated scf accuracy    <       0.00001415 Ry

     total magnetization       =    97.12 Bohr mag/cell
     absolute magnetization    =    98.34 Bohr mag/cell

     iteration # 57     ecut=    50.00 Ry     beta= 0.10
     Davidson diagonalization with overlap
     ethr =  1.28E-09,  avg # of iterations =  4.0

     negative rho (up, down):  1.327E-03 8.288E-04
 
     Adding external electric field

     Computed dipole along edir(3) : 
        Dipole               -0.1296 Ry au,         -0.3295 Debye
        Dipole field         -0.0001 Ry au, 
 
        Potential amp.        0.0085 Ry
        Total length         54.7057 bohr
 
 
     Adding external electric field

     Computed dipole along edir(3) : 
        Dipole               -0.1296 Ry au,         -0.3295 Debye
        Dipole field         -0.0001 Ry au, 
 
        Potential amp.        0.0085 Ry
        Total length         54.7057 bohr
 

     total cpu time spent up to now is      872.3 secs

     total energy              =   -8078.56147481 Ry
     estimated scf accuracy    <       0.00000704 Ry

     total magnetization       =    97.12 Bohr mag/cell
     absolute magnetization    =    98.34 Bohr mag/cell

     iteration # 58     ecut=    50.00 Ry     beta= 0.10
     Davidson diagonalization with overlap
     ethr =  6.35E-10,  avg # of iterations =  2.0

     negative rho (up, down):  1.309E-03 8.003E-04
 
     Adding external electric field

     Computed dipole along edir(3) : 
        Dipole               -0.1296 Ry au,         -0.3295 Debye
        Dipole field         -0.0001 Ry au, 
 
[...]
    -5.9958  -5.9870  -5.9745  -5.9507  -5.9069  -5.8956  -5.8635  -5.8422
    -5.8364  -5.8256  -5.8199  -5.7738  -5.7620  -5.7581  -5.6927  -5.6770
    -5.6706  -5.6487  -5.6232  -5.6117  -5.5875  -5.5781  -5.5636  -5.5419
    -5.5394  -5.5133  -5.5028  -5.5006  -5.4805  -5.4763  -5.4574  -5.3738
    -5.3551  -5.3242  -5.2778  -5.2581  -5.2496  -5.2434  -5.2286  -5.1621
    -5.1522  -5.1131  -5.0740  -5.0472  -5.0393  -4.9941  -4.9245  -4.9018
    -4.8679  -4.8539  -4.8090  -4.8004  -4.7823  -4.7778  -4.7441  -4.7344
    -4.6584  -4.6377  -4.5989  -4.5767  -4.5486  -4.4794  -4.4462  -4.4067
    -4.3927  -4.3788  -4.3132  -4.2953  -4.2842  -4.2419  -4.2181  -4.2033
    -4.1724  -4.1498  -4.1099  -4.0642  -4.0584  -4.0085  -3.9795  -3.9684
    -3.8938  -3.8648  -3.8519  -3.8408  -3.8101  -3.7612  -3.7449  -3.7387
    -3.7173  -3.7116  -3.6762  -3.6750  -3.6194  -3.6171  -3.6000  -3.5887
    -3.5408  -3.5342  -3.5271  -3.5113  -3.4991  -3.4825  -3.4696  -3.4287
    -3.4164  -3.4128  -3.3854  -3.3758  -3.3661  -3.3449  -3.3295  -3.3208
    -3.2905  -3.2816  -3.2756  -3.2570  -3.2138  -3.1976  -3.1820  -3.1558
    -3.1405  -3.0977  -3.0922  -3.0723  -3.0530  -3.0346  -3.0281  -3.0008
    -2.9762  -2.9441  -2.9392  -2.9099  -2.8845  -2.8593  -2.8532  -2.8253
    -2.8128  -2.7788  -2.7383  -2.7151  -2.7066  -2.6916  -2.6864  -2.6860
    -2.6718  -2.6568  -2.6416  -2.6281  -2.6232  -2.6086  -2.5899  -2.5811
    -2.5589  -2.5463  -2.5210  -2.5174  -2.5093  -2.4983  -2.4715  -2.4657
    -2.4342  -2.4190  -2.4022  -2.3909  -2.3729  -2.3491  -2.3411  -2.3165
    -2.2992  -2.2877  -2.2771  -2.2665  -2.2313  -2.2034  -2.1902  -2.1837
    -2.1588  -2.1500  -2.1333  -2.0876  -2.0860  -2.0664  -2.0435  -2.0247
    -2.0138  -2.0023  -1.9824  -1.9660  -1.9628  -1.9348  -1.9054  -1.8826
    -1.8738  -1.8638  -1.8548  -1.8337  -1.8235  -1.8170  -1.8051  -1.7926
    -1.7269  -1.6907  -1.6804  -1.6743  -1.6523  -1.6273  -1.6235  -1.6078
    -1.6021  -1.5821  -1.5754  -1.5353  -1.5324  -1.5143  -1.4924  -1.4486
    -1.4410  -1.4315  -1.4075  -1.3789  -1.3729  -1.3479  -1.3392  -1.3214
    -1.3103  -1.2995  -1.2567  -1.2159  -1.1756  -1.1691  -1.1469  -1.1106
    -1.0680  -1.0394  -1.0016  -0.9985  -0.9897  -0.8904  -0.8387  -0.7960
    -0.7660  -0.6399  -0.6248  -0.6107  -0.4526  -0.4099  -0.2715  -0.2309
     0.1819   0.1964   0.2384   0.2620   0.2693   0.2940   0.3007   0.3102
     0.3197   0.3316   0.3438   0.3720   0.3738   0.3851   0.3932   0.4070
     0.4120   0.4161   0.4259   0.4359   0.4407   0.4482   0.4703   0.4727
     0.4811   0.4846   0.4948   0.4982   0.5107   0.5186   0.5212   0.5308
     0.5387   0.5453   0.5569   0.5597   0.5663   0.5732   0.5860   0.5947
     0.6101   0.6155   0.6248   0.6379   0.6439   0.6483   0.6577   0.6634
     0.6693   0.6830   0.7057   0.7137   0.7239   0.7320   0.7363   0.7442
     0.7508   0.7750   0.7857   0.7945   0.7987   0.8131   0.8137   0.8250
     0.8315   0.8512   0.8535   0.8674   0.8771   0.8795   0.8851   0.9047
     0.9112   0.9720   0.9849   0.9986   1.0315   1.1111   1.1345   1.1538
     1.6990   1.7637   1.7775   1.7865   1.8004   1.8272   1.8419   1.8699
     1.8798   1.9084   1.9412   1.9581   1.9740   1.9942   2.0185   2.0239
     2.0569   2.0801   2.0863   2.1021   2.1070   2.1271   2.1431   2.1622
     2.1919   2.2062   2.2088   2.2193   2.2302   2.2626   2.2700   2.2834
     2.2892   2.3010   2.3087   2.3490   2.3672   2.3714   2.4063   2.4352
     2.4609   2.4646   2.4889   2.5123   2.5206   2.5289   2.5689   2.6087
     2.6228   2.6638   2.7327   2.7744   2.8074   2.8661   2.8908   3.4364
     3.5064   3.6787   3.6992   3.7378   3.7625   3.7920   3.8229   3.8554
     3.8899   3.9477   3.9532   3.9569   3.9928   4.0000   4.0100   4.0276
     4.0497   4.0801   4.0945   4.1099   4.1394   4.1546   4.1632   4.2026
     4.2099   4.2207   4.2549   4.2698   4.3094   4.5996   4.6049   4.7505
     4.7915   4.8503   4.8942   4.9203   4.9615   4.9917   4.9986   5.0542
     5.0782   5.0933   5.1570   5.1744   5.2175   5.2233   5.3887   6.1808
     6.3619   6.4444   6.5836   6.6561   6.7191   6.7375   6.8515   6.9074
     6.9422   6.9600   7.0050   7.1086   7.2219   7.2723   7.3259   7.3668
     7.3906   7.4143   7.4764   7.5065   7.5708   7.5895   7.7032   7.7283
     7.7686   7.8700   7.9020   7.9234   7.9558   7.9955   8.0166   8.0450
     8.0767   8.0990   8.1263   8.1645   8.1703   8.2156   8.2412   8.3047
     8.3239   8.3337   8.3544   8.3732   8.3864   8.4087   8.4350   8.4445
     8.4687   8.4906   8.5065   8.5470   8.5632   8.5787   8.6269   8.6315
     8.6656

     the Fermi energy is     1.6940 ev

!    total energy              =   -8078.56147459 Ry
     estimated scf accuracy    <       0.00000079 Ry
     smearing contrib. (-TS)   =      -0.02485309 Ry
     internal energy E=F+TS    =   -8078.53662150 Ry

     The total energy is F=E-TS. E is the sum of the following terms:
     one-electron contribution =  -94708.11686356 Ry
     hartree contribution      =   47938.76038436 Ry
     xc contribution           =   -2177.36192096 Ry
     ewald contribution        =   40869.95199494 Ry
     Dispersion Correction     =      -1.77022630 Ry
     electric field correction =       0.00001000 Ry

     total magnetization       =    97.12 Bohr mag/cell
     absolute magnetization    =    98.34 Bohr mag/cell

     convergence has been achieved in  63 iterations

     negative rho (up, down):  1.166E-03 6.278E-04

     Forces acting on atoms (cartesian axes, Ry/au):

     atom    1 type  1   force =     0.02413658   -0.01757248    0.01996058
     atom    2 type  1   force =    -0.00195292    0.00023907   -0.00572431
     atom    3 type  2   force =    -0.03028511   -0.01573636   -0.00855660
     atom    4 type  1   force =     0.00186084   -0.00338587   -0.00469731
     atom    5 type  1   force =    -0.00375453    0.00232799   -0.00194994
     atom    6 type  1   force =     0.00253193    0.00735230   -0.00438522
     atom    7 type  1   force =     0.03187488   -0.01943703    0.01775675
     atom    8 type  2   force =    -0.00187401    0.00027624   -0.00924220
     atom    9 type  2   force =    -0.02896705   -0.01537915   -0.00854017
     atom   10 type  1   force =     0.00199196   -0.00312724   -0.00450831
     atom   11 type  1   force =    -0.00340505    0.00273740   -0.00110627
     atom   12 type  1   force =     0.00363175    0.00673268   -0.00381691
     atom   13 type  3   force =     0.00213779    0.00064318   -0.00761377
     atom   14 type  3   force =    -0.02976027    0.04991959   -0.06597080
     atom   15 type  3   force =     0.03461897    0.03755101   -0.05988877
     atom   16 type  3   force =    -0.00447069    0.00316317   -0.00092173
     atom   17 type  4   force =    -0.00200377    0.00137263    0.00279353
     atom   18 type  4   force =    -0.00162983   -0.00514981    0.02736768
     atom   19 type  4   force =     0.00396391    0.00283185    0.02951666
     atom   20 type  4   force =     0.00018032   -0.00283369   -0.00479355
     atom   21 type  4   force =    -0.00305577   -0.00229623    0.00335336
     atom   22 type  4   force =     0.00473118   -0.00328394    0.03418312
     atom   23 type  4   force =    -0.00597755   -0.00109419    0.03250759
     atom   24 type  4   force =     0.00071834   -0.00102251   -0.00001606
     atom   25 type  4   force =    -0.00129577    0.00079605    0.00216299
     atom   26 type  4   force =    -0.01451201   -0.02268129   -0.00182426
     atom   27 type  4   force =     0.00171382   -0.00075819    0.00118850
     atom   28 type  4   force =    -0.01762859    0.00341110    0.00120183
     atom   29 type  4   force =     0.02069308   -0.00461089    0.00826996
     atom   30 type  4   force =     0.01240628   -0.03411341    0.00112511
     atom   31 type  4   force =     0.00052216    0.00103279    0.00230300
     atom   32 type  4   force =    -0.00210700    0.00008961    0.00264555
     atom   33 type  3   force =    -0.00053635   -0.00163781   -0.00507968
     atom   34 type  3   force =    -0.03024028    0.05983201   -0.08315309
     atom   35 type  3   force =     0.03460414    0.03340684   -0.05927167
     atom   36 type  3   force =    -0.00379082    0.00470946   -0.00076418
     atom   37 type  4   force =    -0.00109238    0.00134326    0.00302193
     atom   38 type  4   force =    -0.00308327   -0.00555692    0.03294643
     atom   39 type  4   force =     0.00442882    0.00392742    0.02922189
     atom   40 type  4   force =     0.00018631   -0.00323579   -0.00494349
     atom   41 type  4   force =    -0.00008502    0.00002727    0.00359658
     atom   42 type  4   force =     0.00542777    0.00028881    0.01990471
     atom   43 type  4   force =    -0.00178887    0.00037535    0.03454118
     atom   44 type  4   force =     0.00089991   -0.00086471    0.00007561
     atom   45 type  4   force =    -0.00019539   -0.00269214    0.00127677
     atom   46 type  4   force =    -0.01509731   -0.02036584   -0.00049098
     atom   47 type  4   force =     0.00190556   -0.00061421    0.00125472
     atom   48 type  4   force =    -0.01800073    0.00403826    0.00162487
     atom   49 type  4   force =     0.01648513   -0.00278959    0.00498266
     atom   50 type  4   force =     0.01179708   -0.03681082    0.00435559
     atom   51 type  4   force =     0.00103658    0.00096518    0.00169778
     atom   52 type  4   force =     0.00101381   -0.00219696    0.00360959
     atom   53 type  1   force =     0.00140742    0.00052929   -0.00082884
     atom   54 type  1   force =     0.00116413    0.00022404    0.00032678
     atom   55 type  2   force =     0.00014532   -0.00031745   -0.00023236
     atom   56 type  1   force =    -0.00006877   -0.00043764    0.00175307
     atom   57 type  1   force =     0.00053655    0.00028811    0.00041464
     atom   58 type  1   force =     0.00011767   -0.00061515    0.00035624
     atom   59 type  1   force =     0.00046230    0.00087354   -0.00104370
     atom   60 type  2   force =    -0.00124991   -0.00142838    0.00625193
     atom   61 type  2   force =    -0.00052808   -0.00033295   -0.00044239
     atom   62 type  1   force =     0.00023875    0.00154283    0.00121354
     atom   63 type  1   force =    -0.00059088    0.00055264    0.00019601
     atom   64 type  1   force =     0.00026042   -0.00051985   -0.00004755
     atom   65 type  3   force =    -0.00025568    0.00196381    0.00209781
     atom   66 type  3   force =    -0.00003566   -0.00027130   -0.00172051
     atom   67 type  3   force =     0.00038668    0.00074141   -0.00066146
     atom   68 type  3   force =    -0.00047812   -0.00201115    0.00208261
     atom   69 type  4   force =    -0.00093959   -0.00005030   -0.00092823
     atom   70 type  4   force =    -0.00013401    0.00019053    0.00044858
     atom   71 type  4   force =     0.00022520   -0.00037656   -0.00009769
     atom   72 type  4   force =    -0.00065873    0.00077502   -0.00188272
     atom   73 type  4   force =     0.00153844    0.00005347    0.00061298
     atom   74 type  4   force =    -0.00022473   -0.00061204    0.00179533
     atom   75 type  4   force =     0.00003048    0.00013448    0.00019313
     atom   76 type  4   force =    -0.00097391   -0.00062106    0.00038310
     atom   77 type  4   force =    -0.00111091    0.00124798    0.00008404
     atom   78 type  4   force =    -0.00026032   -0.00011259    0.00028267
     atom   79 type  4   force =     0.00095013    0.00171600   -0.00176890
     atom   80 type  4   force =    -0.00001489    0.00058593    0.00009298
     atom   81 type  4   force =    -0.00037952   -0.00022308    0.00032803
     atom   82 type  4   force =     0.00023888   -0.00012238   -0.00002450
     atom   83 type  4   force =     0.00041026   -0.00073139   -0.00030332
     atom   84 type  4   force =    -0.00026463   -0.00038021   -0.00040232
     atom   85 type  3   force =     0.00051161    0.00041279    0.00011346
     atom   86 type  3   force =     0.00067566   -0.00067169   -0.00066083
     atom   87 type  3   force =    -0.00017121   -0.00004908   -0.00103439
     atom   88 type  3   force =    -0.00200099   -0.00170143    0.00162097
     atom   89 type  4   force =    -0.00003646   -0.00005435    0.00005526
     atom   90 type  4   force =     0.00001560   -0.00041335    0.00182884
     atom   91 type  4   force =     0.00021498    0.00005824    0.00036748
     atom   92 type  4   force =     0.00059522   -0.00064403   -0.00132304
     atom   93 type  4   force =     0.00119271    0.00029151    0.00075525
     atom   94 type  4   force =    -0.00030679    0.00006384    0.00135853
     atom   95 type  4   force =     0.00024267    0.00017957    0.00049066
     atom   96 type  4   force =    -0.00107821   -0.00074805    0.00169984
     atom   97 type  4   force =     0.00063801    0.00033398   -0.00066869
     atom   98 type  4   force =    -0.00060826   -0.00020285    0.00030603
     atom   99 type  4   force =     0.00017244    0.00117938   -0.00164686
     atom  100 type  4   force =     0.00046590    0.00039741    0.00050638
     atom  101 type  4   force =    -0.00022473   -0.00017609    0.00053711
     atom  102 type  4   force =     0.00078109   -0.00035895    0.00036200
     atom  103 type  4   force =     0.00145475    0.00014629    0.00112648
     atom  104 type  4   force =    -0.00067514   -0.00081283    0.00033307
     atom  105 type  1   force =    -0.00021910   -0.00002467    0.00014555
     atom  106 type  1   force =     0.00042813   -0.00018751   -0.00003710
     atom  107 type  2   force =     0.00011806    0.00033748    0.00072276
     atom  108 type  1   force =    -0.00236059    0.00109155   -0.00191774
     atom  109 type  1   force =    -0.00010398   -0.00032140    0.00009030
     atom  110 type  1   force =    -0.00046006    0.00024431   -0.00013417
     atom  111 type  1   force =     0.00009849   -0.00042272    0.00040808
     atom  112 type  2   force =    -0.00002036    0.00039145    0.00002757
     atom  113 type  2   force =     0.00017713    0.00015957    0.00005832
     atom  114 type  1   force =     0.00001020    0.00004471    0.00012095
     atom  115 type  1   force =     0.00029420    0.00057719   -0.00029151
     atom  116 type  1   force =     0.00018322    0.00018338    0.00007631
     atom  117 type  3   force =    -0.00059454   -0.00002379    0.00011817
     atom  118 type  3   force =    -0.00051104    0.00014061    0.00017020
     atom  119 type  3   force =    -0.00008005   -0.00002891   -0.00024124
     atom  120 type  3   force =     0.00011767    0.00039630   -0.00057668
     atom  121 type  4   force =     0.00039830   -0.00011864    0.00039081
     atom  122 type  4   force =    -0.00028842    0.00014645    0.00024695
     atom  123 type  4   force =    -0.00014901    0.00001450   -0.00039702
     atom  124 type  4   force =    -0.00003372   -0.00053900   -0.00003416
     atom  125 type  4   force =     0.00071080    0.00021995    0.00023225
     atom  126 type  4   force =    -0.00006365   -0.00040209    0.00006053
     atom  127 type  4   force =     0.00025216    0.00015966   -0.00025841
     atom  128 type  4   force =    -0.00006152    0.00030726   -0.00036450
     atom  129 type  4   force =     0.00011656   -0.00001644    0.00022459
     atom  130 type  4   force =    -0.00008253   -0.00008087    0.00024725
     atom  131 type  4   force =    -0.00002411   -0.00015354    0.00026536
     atom  132 type  4   force =     0.00025124    0.00020393    0.00021267
     atom  133 type  4   force =    -0.00028769    0.00000974    0.00024059
     atom  134 type  4   force =    -0.00015126    0.00025158   -0.00008816
     atom  135 type  4   force =    -0.00014165    0.00041655   -0.00001587
     atom  136 type  4   force =    -0.00056946   -0.00023142    0.00013013
     atom  137 type  3   force =     0.00001032   -0.00001646   -0.00007874
     atom  138 type  3   force =    -0.00029963    0.00015211    0.00024511
     atom  139 type  3   force =     0.00003113   -0.00023773   -0.00005567
     atom  140 type  3   force =    -0.00021622   -0.00022206   -0.00019432
     atom  141 type  4   force =     0.00017408   -0.00018697    0.00031149
     atom  142 type  4   force =     0.00010509    0.00009773    0.00040648
     atom  143 type  4   force =    -0.00001094    0.00002662   -0.00020257
     atom  144 type  4   force =     0.00019192   -0.00035980   -0.00052670
     atom  145 type  4   force =    -0.00009090   -0.00036984   -0.00027269
     atom  146 type  4   force =    -0.00018384   -0.00016242    0.00018409
     atom  147 type  4   force =     0.00024379   -0.00026272    0.00009441
     atom  148 type  4   force =    -0.00055618    0.00013002    0.00003607
     atom  149 type  4   force =     0.00083784    0.00010735    0.00021422
     atom  150 type  4   force =     0.00012611   -0.00020699   -0.00018929
     atom  151 type  4   force =     0.00012236   -0.00023625    0.00049071
     atom  152 type  4   force =    -0.00002199   -0.00017188    0.00011190
     atom  153 type  4   force =     0.00006846    0.00030178   -0.00006417
     atom  154 type  4   force =    -0.00013769    0.00018383    0.00025056
     atom  155 type  4   force =     0.00016459   -0.00021211    0.00003508
     atom  156 type  4   force =    -0.00002337    0.00007619    0.00007721
     atom  157 type  4   force =     0.00563591    0.00102549    0.00474356
     atom  158 type  5   force =    -0.00383598   -0.00183043   -0.00129330

     Total force =     0.225480     Total SCF correction =     0.003535
 
     init_run     :      8.37s CPU      9.03s WALL (       1 calls)
     electrons    :    903.96s CPU    947.45s WALL (       1 calls)
     forces       :      4.47s CPU      4.94s WALL (       1 calls)
     force_london :      0.10s CPU      0.10s WALL (       1 calls)

     Called by init_run:
     wfcinit      :      5.05s CPU      5.23s WALL (       1 calls)
     potinit      :      0.58s CPU      0.75s WALL (       1 calls)
     hinit0       :      1.51s CPU      1.66s WALL (       1 calls)

     Called by electrons:
     c_bands      :    702.93s CPU    725.47s WALL (      63 calls)
     sum_band     :    123.28s CPU    133.80s WALL (      63 calls)
     v_of_rho     :     18.86s CPU     21.13s WALL (      64 calls)
     newd         :     40.02s CPU     48.08s WALL (      64 calls)
     mix_rho      :     17.65s CPU     17.75s WALL (      63 calls)
     energy_londo :      0.08s CPU      0.08s WALL (       1 calls)

     Called by c_bands:
     init_us_2    :      2.00s CPU      2.05s WALL (     256 calls)
     init_us_2:cp :      2.00s CPU      2.05s WALL (     256 calls)
     regterg      :    688.37s CPU    709.33s WALL (     126 calls)

     Called by *egterg:
     rdiaghg      :    166.96s CPU    176.45s WALL (     442 calls)
     h_psi        :    275.87s CPU    281.74s WALL (     444 calls)
     s_psi        :     45.84s CPU     45.87s WALL (     444 calls)
     g_psi        :      0.33s CPU      0.33s WALL (     316 calls)

     Called by h_psi:
     h_psi:calbec :     68.26s CPU     73.03s WALL (     444 calls)
     vloc_psi     :    160.66s CPU    161.27s WALL (     444 calls)
     add_vuspsi   :     46.28s CPU     46.78s WALL (     444 calls)

     General routines
     calbec       :    101.81s CPU    108.93s WALL (     578 calls)
     fft          :     27.23s CPU     30.13s WALL (    1165 calls)
     ffts         :     10.53s CPU     10.56s WALL (    7817 calls)
     fftw         :    180.38s CPU    181.01s WALL (  217028 calls)
     interpolate  :      1.84s CPU      1.92s WALL (     128 calls)
 
     Parallel routines
 
     PWSCF        :  15m18.82s CPU  16m 3.75s WALL

 
   This run was terminated on:  18:58:30  17Nov2025            

=------------------------------------------------------------------------------=
   JOB DONE.
=------------------------------------------------------------------------------=
