
     Program PWSCF v.7.2 starts on 17Nov2025 at 20: 0: 7 

     This program is part of the open-source Quantum ESPRESSO suite
     for quantum simulation of materials; please cite
         "P. Giannozzi et al., J. Phys.:Condens. Matter 21 395502 (2009);
         "P. Giannozzi et al., J. Phys.:Condens. Matter 29 465901 (2017);
         "P. Giannozzi et al., J. Chem. Phys. 152 154105 (2020);
          URL http://www.quantum-espresso.org", 
     in publications or presentations arising from this work. More details at
     http://www.quantum-espresso.org/quote

     Parallel version (MPI), running on    64 processors

     MPI processes distributed on     4 nodes
     471104 MiB available memory on the printing compute node when the environment starts
 
     Reading input from PWINPUT_atm158_ym

     Current dimensions of program PWSCF are:
     Max number of different atomic species (ntypx) = 10
     Max number of k-points (npk) =  40000
     Max angular momentum in pseudopotentials (lmaxx) =  4
     Presently no symmetry can be used with electric field

     file Ni.pbe-n-rrkjus_psl.1.0.0.UPF: wavefunction(s)  3D renormalized
     file Mn.pbe-spn-rrkjus_psl.0.3.1.UPF: wavefunction(s)  3D renormalized
     file O.pbe-rrkjus.UPF: wavefunction(s)  2S renormalized
     file H.pbe-rrkjus.UPF: wavefunction(s)  1S renormalized

     gamma-point specific algorithms are used
 
     R & G space division:  proc/nbgrp/npool/nimage =      64
     Subspace diagonalization in iterative solution of the eigenvalue problem:
     one sub-group per band group will be used
     custom distributed-memory algorithm (size of sub-group:  7*  7 procs)

 
     Parallelization info
     --------------------
     sticks:   dense  smooth     PW     G-vecs:    dense   smooth      PW
     Min         214      85     20                61830    15614    1928
     Max         216      86     22                61864    15658    1982
     Sum       13727    5503   1375              3958051  1001255  125211
 
     Using Slab Decomposition
 


     bravais-lattice index     =            0
     lattice parameter (alat)  =      17.8532  a.u.
     unit-cell volume          =   20962.6682 (a.u.)^3
     number of atoms/cell      =          158
     number of atomic types    =            5
     number of electrons       =      1108.00
     number of Kohn-Sham states=          665
     kinetic-energy cutoff     =      50.0000  Ry
     charge density cutoff     =     500.0000  Ry
     scf convergence threshold =      1.0E-06
     mixing beta               =       0.1000
     number of iterations used =            8  local-TF  mixing
     Exchange-correlation=  SLA  PW   PBE  PBE
                           (   1   4   3   4   0   0   0)

     celldm(1)=  17.853155  celldm(2)=   0.000000  celldm(3)=   0.000000
     celldm(4)=   0.000000  celldm(5)=   0.000000  celldm(6)=   0.000000

     crystal axes: (cart. coord. in units of alat)
               a(1) = (   1.000000   0.000000   0.000000 )  
               a(2) = (   0.003237   1.081997   0.000000 )  
               a(3) = (   0.000000   0.000000   3.404673 )  

     reciprocal axes: (cart. coord. in units 2 pi/alat)
               b(1) = (  1.000000 -0.002992  0.000000 )  
               b(2) = (  0.000000  0.924217  0.000000 )  
               b(3) = (  0.000000  0.000000  0.293714 )  


     PseudoPot. # 1 for Ni read from file:
     ~/PSEUDO/Ni.pbe-n-rrkjus_psl.1.0.0.UPF
     MD5 check sum: Not computed, couldn't open file
     Pseudo is Ultrasoft + core correction, Zval = 10.0
     Generated using "atomic" code by A. Dal Corso  v.5.1.2
     Using radial grid of 1195 points,  6 beta functions with: 
                l(1) =   0
                l(2) =   0
                l(3) =   1
                l(4) =   1
                l(5) =   2
                l(6) =   2
     Q(r) pseudized with 0 coefficients 


     PseudoPot. # 2 for Mn read from file:
     ~/PSEUDO/Mn.pbe-spn-rrkjus_psl.0.3.1.UPF
     MD5 check sum: Not computed, couldn't open file
     Pseudo is Ultrasoft + core correction, Zval = 15.0
     Generated using &quot;atomic&quot; code by A. Dal Corso  v.6.2.2
     Using radial grid of 1187 points,  6 beta functions with: 
                l(1) =   0
                l(2) =   0
                l(3) =   1
                l(4) =   1
                l(5) =   2
                l(6) =   2
     Q(r) pseudized with 0 coefficients 


     PseudoPot. # 3 for P  read from file:
     ~/PSEUDO/P.pbe-n-rrkjus_psl.1.0.0.UPF
     MD5 check sum: Not computed, couldn't open file
     Pseudo is Ultrasoft + core correction, Zval =  5.0
     Generated using "atomic" code by A. Dal Corso  v.5.1
     Using radial grid of 1147 points,  6 beta functions with: 
                l(1) =   0
                l(2) =   0
                l(3) =   1
                l(4) =   1
                l(5) =   2
                l(6) =   2
     Q(r) pseudized with 0 coefficients 


     PseudoPot. # 4 for O  read from file:
     ~/PSEUDO/O.pbe-rrkjus.UPF
     MD5 check sum: Not computed, couldn't open file
     Pseudo is Ultrasoft, Zval =  6.0
     Generated by new atomic code, or converted to UPF format
     Using radial grid of 1269 points,  4 beta functions with: 
                l(1) =   0
                l(2) =   0
                l(3) =   1
                l(4) =   1
     Q(r) pseudized with 0 coefficients 


     PseudoPot. # 5 for H  read from file:
     ~/PSEUDO/H.pbe-rrkjus.UPF
     MD5 check sum: Not computed, couldn't open file
     Pseudo is Ultrasoft, Zval =  1.0
     Generated by new atomic code, or converted to UPF format
     Using radial grid of 1061 points,  2 beta functions with: 
                l(1) =   0
                l(2) =   0
     Q(r) pseudized with 0 coefficients 


     atomic species   valence    mass     pseudopotential
     Ni               10.00    58.69300     Ni( 1.00)
     Mn               15.00    54.93800     Mn( 1.00)
     P                 5.00    30.97300     P ( 1.00)
     O                 6.00    15.99900     O ( 1.00)
     H                 1.00     1.00790     H ( 1.00)

     Starting magnetic structure 
     atomic species   magnetization
     Ni              1.000
     Mn              1.000
     P               1.000
     O               1.000
     H               0.000

     No symmetry found



   Cartesian axes

     site n.     atom                  positions (alat units)
         1        Ni     tau(   1) = (   0.2448189   0.8359134   0.1216996  )
         2        Ni     tau(   2) = (   0.4920952   0.7731948   0.4438949  )
         3        Mn     tau(   3) = (   0.0113021   0.2918949   0.1160512  )
         4        Ni     tau(   4) = (   0.2586115   0.2268566   0.4417628  )
         5        Ni     tau(   5) = (   1.0019827   1.0705803   0.2835623  )
         6        Ni     tau(   6) = (   0.2518099   0.5339061   0.2823483  )
         7        Ni     tau(   7) = (   0.7400999   0.8349186   0.1225624  )
         8        Mn     tau(   8) = (   0.9886961   0.7700845   0.4492175  )
         9        Mn     tau(   9) = (   0.5113421   0.2944667   0.1158892  )
        10        Ni     tau(  10) = (   0.7560857   0.2263843   0.4422798  )
        11        Ni     tau(  11) = (   0.5009386   1.0712238   0.2822610  )
        12        Ni     tau(  12) = (   0.7496978   0.5336600   0.2834396  )
        13        P      tau(  13) = (   0.2147792   0.9686896   0.4382665  )
        14        P      tau(  14) = (   0.4607377   0.6441916   0.1265334  )
        15        P      tau(  15) = (   0.2883218   0.0913464   0.1265752  )
        16        P      tau(  16) = (   0.0408981   0.4221836   0.4354960  )
        17        O      tau(  17) = (   0.1380864   0.9007819   0.3023220  )
        18        O      tau(  18) = (   0.3817439   0.7113683   0.2624610  )
        19        O      tau(  19) = (   0.3638364   0.1608547   0.2624417  )
        20        O      tau(  20) = (   0.1207568   0.3545755   0.3021219  )
        21        O      tau(  21) = (   0.1552194   0.8797563   0.5625160  )
        22        O      tau(  22) = (   0.4022820   0.7317969   0.0010585  )
        23        O      tau(  23) = (   0.3454844   0.1823965   0.0026336  )
        24        O      tau(  24) = (   0.1017019   0.3344979   0.5594858  )
        25        O      tau(  25) = (   0.0970074   0.5770714   0.4346455  )
        26        O      tau(  26) = (   0.3534166   1.0203677   0.1270707  )
        27        O      tau(  27) = (   0.3778024   0.4172402   0.4261028  )
        28        O      tau(  28) = (   0.1256171   0.0954063   0.1372153  )
        29        O      tau(  29) = (   0.1232168   0.6482422   0.1385172  )
        30        O      tau(  30) = (   0.4028533   0.4897833   0.1289718  )
        31        O      tau(  31) = (   0.1511050   0.0405554   0.4369979  )
        32        O      tau(  32) = (   0.3776556   0.9624293   0.4288159  )
        33        P      tau(  33) = (   0.7084770   0.9682119   0.4394551  )
        34        P      tau(  34) = (   0.9603154   0.6409658   0.1292469  )
        35        P      tau(  35) = (   0.7875734   0.0899770   0.1274098  )
        36        P      tau(  36) = (   0.5405152   0.4272620   0.4364455  )
        37        O      tau(  37) = (   0.6323583   0.8977630   0.3036670  )
        38        O      tau(  38) = (   0.8809646   0.7091921   0.2627111  )
        39        O      tau(  39) = (   0.8631054   0.1587239   0.2636487  )
        40        O      tau(  40) = (   0.6202581   0.3578380   0.3034239  )
        41        O      tau(  41) = (   0.6499160   0.8772596   0.5630912  )
        42        O      tau(  42) = (   0.8990171   0.7283464   0.0054426  )
        43        O      tau(  43) = (   0.8448361   0.1806154   0.0030658  )
        44        O      tau(  44) = (   0.6023096   0.3392612   0.5600469  )
        45        O      tau(  45) = (   0.5960222   0.5826131   0.4346340  )
        46        O      tau(  46) = (   0.8515023   1.0184215   0.1281632  )
        47        O      tau(  47) = (   0.8779640   0.4148900   0.4260983  )
        48        O      tau(  48) = (   0.6251159   0.0957170   0.1376895  )
        49        O      tau(  49) = (   0.6237654   0.6481585   0.1378370  )
        50        O      tau(  50) = (   0.9038046   0.4863338   0.1307354  )
        51        O      tau(  51) = (   0.6458737   0.0402574   0.4377979  )
        52        O      tau(  52) = (   0.8712434   0.9635255   0.4285638  )
        53        Ni     tau(  53) = (   0.2420320   0.8169913   0.7491577  )
        54        Ni     tau(  54) = (   0.4893084   0.7542727   1.0713530  )
        55        Mn     tau(  55) = (   0.0085152   0.2729728   0.7435093  )
        56        Ni     tau(  56) = (   0.2558246   0.2079345   1.0692209  )
        57        Ni     tau(  57) = (   0.9991959   1.0516583   0.9110204  )
        58        Ni     tau(  58) = (   0.2490231   0.5149840   0.9098064  )
        59        Ni     tau(  59) = (   0.7373131   0.8159965   0.7500205  )
        60        Mn     tau(  60) = (   0.9859093   0.7511625   1.0766756  )
        61        Mn     tau(  61) = (   0.5085552   0.2755447   0.7433473  )
        62        Ni     tau(  62) = (   0.7532989   0.2074622   1.0697379  )
        63        Ni     tau(  63) = (   0.4981517   1.0523018   0.9097191  )
        64        Ni     tau(  64) = (   0.7469109   0.5147379   0.9108977  )
        65        P      tau(  65) = (   0.2119924   0.9497675   1.0657246  )
        66        P      tau(  66) = (   0.4579509   0.6252695   0.7539915  )
        67        P      tau(  67) = (   0.2855349   0.0724244   0.7540333  )
        68        P      tau(  68) = (   0.0381112   0.4032615   1.0629541  )
        69        O      tau(  69) = (   0.1352995   0.8818598   0.9297801  )
        70        O      tau(  70) = (   0.3789570   0.6924463   0.8899191  )
        71        O      tau(  71) = (   0.3610496   0.1419327   0.8898998  )
        72        O      tau(  72) = (   0.1179700   0.3356534   0.9295800  )
        73        O      tau(  73) = (   0.1524325   0.8608343   1.1899741  )
        74        O      tau(  74) = (   0.3994952   0.7128748   0.6285166  )
        75        O      tau(  75) = (   0.3426976   0.1634744   0.6300917  )
        76        O      tau(  76) = (   0.0989151   0.3155758   1.1869439  )
        77        O      tau(  77) = (   0.0942206   0.5581494   1.0621036  )
        78        O      tau(  78) = (   0.3506297   1.0014456   0.7545288  )
        79        O      tau(  79) = (   0.3750155   0.3983181   1.0535609  )
        80        O      tau(  80) = (   0.1228303   0.0764842   0.7646734  )
        81        O      tau(  81) = (   0.1204299   0.6293201   0.7659753  )
        82        O      tau(  82) = (   0.4000664   0.4708612   0.7564299  )
        83        O      tau(  83) = (   0.1483182   0.0216333   1.0644560  )
        84        O      tau(  84) = (   0.3748687   0.9435072   1.0562740  )
        85        P      tau(  85) = (   0.7056901   0.9492898   1.0669132  )
        86        P      tau(  86) = (   0.9575286   0.6220438   0.7567050  )
        87        P      tau(  87) = (   0.7847866   0.0710549   0.7548679  )
        88        P      tau(  88) = (   0.5377283   0.4083400   1.0639036  )
        89        O      tau(  89) = (   0.6295714   0.8788409   0.9311251  )
        90        O      tau(  90) = (   0.8781778   0.6902700   0.8901692  )
        91        O      tau(  91) = (   0.8603186   0.1398018   0.8911068  )
        92        O      tau(  92) = (   0.6174712   0.3389159   0.9308820  )
        93        O      tau(  93) = (   0.6471291   0.8583376   1.1905493  )
        94        O      tau(  94) = (   0.8962302   0.7094244   0.6329007  )
        95        O      tau(  95) = (   0.8420493   0.1616933   0.6305239  )
        96        O      tau(  96) = (   0.5995227   0.3203391   1.1875050  )
        97        O      tau(  97) = (   0.5932354   0.5636910   1.0620921  )
        98        O      tau(  98) = (   0.8487155   0.9994995   0.7556213  )
        99        O      tau(  99) = (   0.8751772   0.3959680   1.0535564  )
       100        O      tau( 100) = (   0.6223291   0.0767949   0.7651476  )
       101        O      tau( 101) = (   0.6209785   0.6292365   0.7652951  )
       102        O      tau( 102) = (   0.9010178   0.4674118   0.7581935  )
       103        O      tau( 103) = (   0.6430869   0.0213354   1.0652560  )
       104        O      tau( 104) = (   0.8684566   0.9446034   1.0560219  )
       105        Ni     tau( 105) = (   0.2423630   0.7994359   1.3760354  )
       106        Ni     tau( 106) = (   0.4993973   0.7391311   1.6804864  )
       107        Mn     tau( 107) = (   0.0089498   0.2581752   1.3751757  )
       108        Ni     tau( 108) = (   0.2555203   0.1875480   1.7147440  )
       109        Ni     tau( 109) = (   1.0007969   1.0339332   1.5383184  )
       110        Ni     tau( 110) = (   0.2460225   0.4956919   1.5440603  )
       111        Ni     tau( 111) = (   0.7359931   0.8001260   1.3774046  )
       112        Mn     tau( 112) = (   0.9973763   0.7324626   1.6978130  )
       113        Mn     tau( 113) = (   0.5067604   0.2591059   1.3740250  )
       114        Ni     tau( 114) = (   0.7428480   0.1952512   1.6837944  )
       115        Ni     tau( 115) = (   0.4987731   1.0381547   1.5410978  )
       116        Ni     tau( 116) = (   0.7427219   0.4966249   1.5424991  )
       117        P      tau( 117) = (   0.2131870   0.9257933   1.6916587  )
       118        P      tau( 118) = (   0.4559119   0.6044880   1.3805992  )
       119        P      tau( 119) = (   0.2850881   0.0578616   1.3821893  )
       120        P      tau( 120) = (   0.0323162   0.3787027   1.6982374  )
       121        O      tau( 121) = (   0.1347071   0.8640073   1.5492256  )
       122        O      tau( 122) = (   0.3772882   0.6717903   1.5162818  )
       123        O      tau( 123) = (   0.3593898   0.1286559   1.5165302  )
       124        O      tau( 124) = (   0.1109838   0.3262818   1.5555432  )
       125        O      tau( 125) = (   0.1539942   0.8264869   1.8062921  )
       126        O      tau( 126) = (   0.3971693   0.6924762   1.2552325  )
       127        O      tau( 127) = (   0.3421563   0.1469372   1.2562216  )
       128        O      tau( 128) = (   0.0898411   0.2811759   1.8130034  )
       129        O      tau( 129) = (   0.0853118   0.5370915   1.7040182  )
       130        O      tau( 130) = (   0.3491208   0.9864055   1.3828534  )
       131        O      tau( 131) = (   0.3706482   0.3857699   1.6886489  )
       132        O      tau( 132) = (   0.1216767   0.0634913   1.3916025  )
       133        O      tau( 133) = (   0.1193436   0.6078482   1.3967511  )
       134        O      tau( 134) = (   0.3973442   0.4503950   1.3837012  )
       135        O      tau( 135) = (   0.1487970  -0.0030508   1.6922434  )
       136        O      tau( 136) = (   0.3761859   0.9190075   1.6784506  )
       137        P      tau( 137) = (   0.7099731   0.9276212   1.6969971  )
       138        P      tau( 138) = (   0.9565988   0.6017915   1.3869988  )
       139        P      tau( 139) = (   0.7850320   0.0557964   1.3814017  )
       140        P      tau( 140) = (   0.5341584   0.3909479   1.7019963  )
       141        O      tau( 141) = (   0.6329335   0.8686924   1.5518520  )
       142        O      tau( 142) = (   0.8798187   0.6672706   1.5242031  )
       143        O      tau( 143) = (   0.8611821   0.1236672   1.5173706  )
       144        O      tau( 144) = (   0.6104268   0.3268639   1.5598222  )
       145        O      tau( 145) = (   0.6499567   0.8294727   1.8098310  )
       146        O      tau( 146) = (   0.8965323   0.6932672   1.2652725  )
       147        O      tau( 147) = (   0.8423135   0.1469704   1.2572506  )
       148        O      tau( 148) = (   0.5974078   0.2970599   1.8177101  )
       149        O      tau( 149) = (   0.5903229   0.5473287   1.6970866  )
       150        O      tau( 150) = (   0.8477944   0.9841351   1.3810722  )
       151        O      tau( 151) = (   0.8683058   0.3760079   1.6828064  )
       152        O      tau( 152) = (   0.6224566   0.0643770   1.3939749  )
       153        O      tau( 153) = (   0.6187923   0.6106371   1.3938596  )
       154        O      tau( 154) = (   0.8971193   0.4481891   1.3841611  )
       155        O      tau( 155) = (   0.6540414   0.0026232   1.6976259  )
       156        O      tau( 156) = (   0.8743841   0.9191802   1.6841294  )
       157        O      tau( 157) = (   0.3743733   0.1030868   1.8397344  )
       158        H      tau( 158) = (   0.4562925   0.1624708   1.8648188  )

     -------------------------------------------------
     Parameters for Dispersion (Grimme-D2) Correction:
     -------------------------------------------------
       atom      VdW radius       C_6     

        Ni         2.952        374.666
        Mn         2.952        374.666
        P          3.222        271.980
        O          2.536         24.284
        H          1.892          4.857

     number of k points=     1  Gaussian smearing, width (Ry)=  0.0100
                       cart. coord. in units 2pi/alat
        k(    1) = (   0.0000000   0.0000000   0.0000000), wk =   1.0000000

     Dense  grid:  1979026 G-vectors     FFT dimensions: ( 128, 144, 450)

     Smooth grid:   500628 G-vectors     FFT dimensions: (  81,  90, 288)

     Estimated max dynamical RAM per process >     333.40 MB

     Estimated total dynamical RAM >      20.84 GB

     Check: negative core charge=   -0.000002
     Generating pointlists ...
     new r_m :   0.0792 (alat units)  1.4143 (a.u.) for type    1
     new r_m :   0.0876 (alat units)  1.5646 (a.u.) for type    2
     new r_m :   0.0665 (alat units)  1.1867 (a.u.) for type    3
     new r_m :   0.0430 (alat units)  0.7677 (a.u.) for type    4
     new r_m :   0.0430 (alat units)  0.7677 (a.u.) for type    5

     Initial potential from superposition of free atoms

     starting charge    1107.8886, renormalised to    1108.0000

     negative rho (up, down):  1.530E-03 4.658E-04
 
     Adding external electric field

     Computed dipole along edir(3) : 
        Dipole                1.6307 Ry au,          4.1449 Debye
        Dipole field          0.0010 Ry au, 
 
        Potential amp.       -0.1070 Ry
        Total length         54.7057 bohr
 
 
     Adding external electric field

     Computed dipole along edir(3) : 
        Dipole                1.6307 Ry au,          4.1449 Debye
        Dipole field          0.0010 Ry au, 
 
        Potential amp.       -0.1070 Ry
        Total length         54.7057 bohr
 
     Starting wfcs are  818 randomized atomic wfcs

     total cpu time spent up to now is       12.3 secs

     Self-consistent Calculation

     iteration #  1     ecut=    50.00 Ry     beta= 0.10
     Davidson diagonalization with overlap
     ethr =  1.00E-02,  avg # of iterations =  5.5

     negative rho (up, down):  4.294E-01 4.856E-07
 
     Adding external electric field

     Computed dipole along edir(3) : 
        Dipole               -3.8122 Ry au,         -9.6897 Debye
        Dipole field         -0.0023 Ry au, 
 
        Potential amp.        0.2500 Ry
        Total length         54.7057 bohr
 
 
     Adding external electric field

     Computed dipole along edir(3) : 
        Dipole               -3.8122 Ry au,         -9.6897 Debye
        Dipole field         -0.0023 Ry au, 
 
        Potential amp.        0.2500 Ry
        Total length         54.7057 bohr
 

     total cpu time spent up to now is       43.5 secs

     total energy              =   -7856.92959215 Ry
     estimated scf accuracy    <     749.20317855 Ry

     total magnetization       =   222.00 Bohr mag/cell
     absolute magnetization    =   319.58 Bohr mag/cell

     iteration #  2     ecut=    50.00 Ry     beta= 0.10
     Davidson diagonalization with overlap
     ethr =  1.00E-02,  avg # of iterations =  2.0

     negative rho (up, down):  4.058E-01 2.901E-07
 
     Adding external electric field

     Computed dipole along edir(3) : 
        Dipole               -2.5541 Ry au,         -6.4919 Debye
        Dipole field         -0.0015 Ry au, 
 
        Potential amp.        0.1675 Ry
        Total length         54.7057 bohr
 
 
     Adding external electric field

     Computed dipole along edir(3) : 
        Dipole               -2.5541 Ry au,         -6.4919 Debye
        Dipole field         -0.0015 Ry au, 
 
        Potential amp.        0.1675 Ry
        Total length         54.7057 bohr
 

     total cpu time spent up to now is       62.2 secs

     total energy              =   -7939.15010620 Ry
     estimated scf accuracy    <     215.68482454 Ry

     total magnetization       =   167.83 Bohr mag/cell
     absolute magnetization    =   214.18 Bohr mag/cell

     iteration #  3     ecut=    50.00 Ry     beta= 0.10
     Davidson diagonalization with overlap
     ethr =  1.00E-02,  avg # of iterations =  1.5

     negative rho (up, down):  3.636E-01 2.455E-07
 
     Adding external electric field

     Computed dipole along edir(3) : 
        Dipole               -2.2470 Ry au,         -5.7112 Debye
        Dipole field         -0.0013 Ry au, 
 
        Potential amp.        0.1474 Ry
        Total length         54.7057 bohr
 
 
     Adding external electric field

     Computed dipole along edir(3) : 
        Dipole               -2.2470 Ry au,         -5.7112 Debye
        Dipole field         -0.0013 Ry au, 
 
        Potential amp.        0.1474 Ry
        Total length         54.7057 bohr
 

     total cpu time spent up to now is       77.1 secs

     total energy              =   -7967.75523551 Ry
     estimated scf accuracy    <     104.76530756 Ry

     total magnetization       =   143.75 Bohr mag/cell
     absolute magnetization    =   192.73 Bohr mag/cell

     iteration #  4     ecut=    50.00 Ry     beta= 0.10
     Davidson diagonalization with overlap
     ethr =  9.46E-03,  avg # of iterations =  1.0

     negative rho (up, down):  2.899E-01 8.287E-08
 
     Adding external electric field

     Computed dipole along edir(3) : 
        Dipole               -2.0537 Ry au,         -5.2200 Debye
        Dipole field         -0.0012 Ry au, 
 
        Potential amp.        0.1347 Ry
        Total length         54.7057 bohr
 
 
     Adding external electric field

     Computed dipole along edir(3) : 
        Dipole               -2.0537 Ry au,         -5.2200 Debye
        Dipole field         -0.0012 Ry au, 
 
        Potential amp.        0.1347 Ry
        Total length         54.7057 bohr
 

     total cpu time spent up to now is       91.8 secs

     total energy              =   -8000.16448715 Ry
     estimated scf accuracy    <      85.95187036 Ry

     total magnetization       =   128.58 Bohr mag/cell
     absolute magnetization    =   179.03 Bohr mag/cell

     iteration #  5     ecut=    50.00 Ry     beta= 0.10
     Davidson diagonalization with overlap
     ethr =  7.76E-03,  avg # of iterations =  1.0

     negative rho (up, down):  5.961E-02 1.918E-09
 
     Adding external electric field

     Computed dipole along edir(3) : 
        Dipole               -1.6266 Ry au,         -4.1345 Debye
        Dipole field         -0.0010 Ry au, 
 
        Potential amp.        0.1067 Ry
        Total length         54.7057 bohr
 
 
     Adding external electric field

     Computed dipole along edir(3) : 
        Dipole               -1.6266 Ry au,         -4.1345 Debye
        Dipole field         -0.0010 Ry au, 
 
        Potential amp.        0.1067 Ry
        Total length         54.7057 bohr
 

     total cpu time spent up to now is      105.7 secs

     total energy              =   -8059.29683569 Ry
     estimated scf accuracy    <      69.53483226 Ry

     total magnetization       =   106.64 Bohr mag/cell
     absolute magnetization    =   160.41 Bohr mag/cell

     iteration #  6     ecut=    50.00 Ry     beta= 0.10
     Davidson diagonalization with overlap
     ethr =  6.28E-03,  avg # of iterations =  1.0

     negative rho (up, down):  8.066E-04 1.352E-03
 
     Adding external electric field

     Computed dipole along edir(3) : 
        Dipole               -1.2110 Ry au,         -3.0781 Debye
        Dipole field         -0.0007 Ry au, 
 
        Potential amp.        0.0794 Ry
        Total length         54.7057 bohr
 
 
     Adding external electric field

     Computed dipole along edir(3) : 
        Dipole               -1.2110 Ry au,         -3.0781 Debye
        Dipole field         -0.0007 Ry au, 
 
        Potential amp.        0.0794 Ry
        Total length         54.7057 bohr
 

     total cpu time spent up to now is      119.5 secs

     total energy              =   -8076.05445380 Ry
     estimated scf accuracy    <      18.75168488 Ry

     total magnetization       =   100.00 Bohr mag/cell
     absolute magnetization    =   134.68 Bohr mag/cell

     iteration #  7     ecut=    50.00 Ry     beta= 0.10
     Davidson diagonalization with overlap
     ethr =  1.69E-03,  avg # of iterations =  6.0

     negative rho (up, down):  7.871E-04 1.326E-03
 
     Adding external electric field

     Computed dipole along edir(3) : 
        Dipole               -1.2105 Ry au,         -3.0768 Debye
        Dipole field         -0.0007 Ry au, 
 
        Potential amp.        0.0794 Ry
        Total length         54.7057 bohr
 
 
     Adding external electric field

     Computed dipole along edir(3) : 
        Dipole               -1.2105 Ry au,         -3.0768 Debye
        Dipole field         -0.0007 Ry au, 
 
        Potential amp.        0.0794 Ry
        Total length         54.7057 bohr
 

     total cpu time spent up to now is      143.4 secs

     total energy              =   -8078.84973273 Ry
     estimated scf accuracy    <      28.96607230 Ry

     total magnetization       =    69.77 Bohr mag/cell
     absolute magnetization    =    87.43 Bohr mag/cell

     iteration #  8     ecut=    50.00 Ry     beta= 0.10
     Davidson diagonalization with overlap
     ethr =  1.69E-03,  avg # of iterations =  1.0

     negative rho (up, down):  8.295E-04 1.459E-03
 
     Adding external electric field

     Computed dipole along edir(3) : 
        Dipole               -1.1934 Ry au,         -3.0334 Debye
        Dipole field         -0.0007 Ry au, 
 
        Potential amp.        0.0783 Ry
        Total length         54.7057 bohr
 
 
     Adding external electric field

     Computed dipole along edir(3) : 
        Dipole               -1.1934 Ry au,         -3.0334 Debye
        Dipole field         -0.0007 Ry au, 
 
        Potential amp.        0.0783 Ry
        Total length         54.7057 bohr
 

     total cpu time spent up to now is      157.5 secs

     total energy              =   -8079.04183656 Ry
     estimated scf accuracy    <      28.90754109 Ry

     total magnetization       =    69.83 Bohr mag/cell
     absolute magnetization    =    87.02 Bohr mag/cell

     iteration #  9     ecut=    50.00 Ry     beta= 0.10
     Davidson diagonalization with overlap
     ethr =  1.69E-03,  avg # of iterations =  1.0

     negative rho (up, down):  6.138E-04 1.173E-03
 
     Adding external electric field

     Computed dipole along edir(3) : 
        Dipole               -1.2225 Ry au,         -3.1073 Debye
        Dipole field         -0.0007 Ry au, 
 
        Potential amp.        0.0802 Ry
        Total length         54.7057 bohr
 
 
     Adding external electric field

     Computed dipole along edir(3) : 
        Dipole               -1.2225 Ry au,         -3.1073 Debye
        Dipole field         -0.0007 Ry au, 
 
        Potential amp.        0.0802 Ry
        Total length         54.7057 bohr
 

     total cpu time spent up to now is      169.7 secs

     total energy              =   -8078.76014387 Ry
     estimated scf accuracy    <      30.94840200 Ry

     total magnetization       =    68.98 Bohr mag/cell
     absolute magnetization    =    85.94 Bohr mag/cell

     iteration # 10     ecut=    50.00 Ry     beta= 0.10
     Davidson diagonalization with overlap
     ethr =  1.69E-03,  avg # of iterations =  1.0

     negative rho (up, down):  4.216E-04 9.285E-04
 
     Adding external electric field

     Computed dipole along edir(3) : 
        Dipole               -1.3792 Ry au,         -3.5055 Debye
        Dipole field         -0.0008 Ry au, 
 
        Potential amp.        0.0905 Ry
        Total length         54.7057 bohr
 
 
     Adding external electric field

     Computed dipole along edir(3) : 
        Dipole               -1.3792 Ry au,         -3.5055 Debye
        Dipole field         -0.0008 Ry au, 
 
        Potential amp.        0.0905 Ry
        Total length         54.7057 bohr
 

     total cpu time spent up to now is      181.6 secs

     total energy              =   -8077.53496473 Ry
     estimated scf accuracy    <      26.57183690 Ry

     total magnetization       =    70.04 Bohr mag/cell
     absolute magnetization    =    86.07 Bohr mag/cell

     iteration # 11     ecut=    50.00 Ry     beta= 0.10
     Davidson diagonalization with overlap
     ethr =  1.69E-03,  avg # of iterations =  1.0

     negative rho (up, down):  6.244E-04 1.488E-03
 
     Adding external electric field

     Computed dipole along edir(3) : 
        Dipole               -1.4325 Ry au,         -3.6409 Debye
        Dipole field         -0.0009 Ry au, 
 
        Potential amp.        0.0940 Ry
        Total length         54.7057 bohr
 
 
     Adding external electric field

     Computed dipole along edir(3) : 
        Dipole               -1.4325 Ry au,         -3.6409 Debye
        Dipole field         -0.0009 Ry au, 
 
        Potential amp.        0.0940 Ry
        Total length         54.7057 bohr
 

     total cpu time spent up to now is      193.4 secs

     total energy              =   -8078.16210650 Ry
     estimated scf accuracy    <       4.02491462 Ry

     total magnetization       =    91.01 Bohr mag/cell
     absolute magnetization    =   101.28 Bohr mag/cell

     iteration # 12     ecut=    50.00 Ry     beta= 0.10
     Davidson diagonalization with overlap
     ethr =  3.63E-04,  avg # of iterations =  6.0

     negative rho (up, down):  4.418E-04 1.191E-03
 
     Adding external electric field

     Computed dipole along edir(3) : 
        Dipole               -1.3980 Ry au,         -3.5533 Debye
        Dipole field         -0.0008 Ry au, 
 
        Potential amp.        0.0917 Ry
        Total length         54.7057 bohr
 
 
     Adding external electric field

     Computed dipole along edir(3) : 
        Dipole               -1.3980 Ry au,         -3.5533 Debye
        Dipole field         -0.0008 Ry au, 
 
        Potential amp.        0.0917 Ry
        Total length         54.7057 bohr
 

     total cpu time spent up to now is      209.2 secs

     total energy              =   -8078.24120422 Ry
     estimated scf accuracy    <       1.14027382 Ry

     total magnetization       =    96.88 Bohr mag/cell
     absolute magnetization    =   105.03 Bohr mag/cell

     iteration # 13     ecut=    50.00 Ry     beta= 0.10
     Davidson diagonalization with overlap
     ethr =  1.03E-04,  avg # of iterations = 10.5

     negative rho (up, down):  1.884E-04 6.125E-04
 
     Adding external electric field

     Computed dipole along edir(3) : 
        Dipole               -1.3120 Ry au,         -3.3347 Debye
        Dipole field         -0.0008 Ry au, 
 
        Potential amp.        0.0861 Ry
        Total length         54.7057 bohr
 
 
     Adding external electric field

     Computed dipole along edir(3) : 
        Dipole               -1.3120 Ry au,         -3.3347 Debye
        Dipole field         -0.0008 Ry au, 
 
        Potential amp.        0.0861 Ry
        Total length         54.7057 bohr
 

     total cpu time spent up to now is      230.6 secs

     total energy              =   -8078.30227630 Ry
     estimated scf accuracy    <       1.10769282 Ry

     total magnetization       =    95.72 Bohr mag/cell
     absolute magnetization    =   103.55 Bohr mag/cell

     iteration # 14     ecut=    50.00 Ry     beta= 0.10
     Davidson diagonalization with overlap
     ethr =  1.00E-04,  avg # of iterations =  1.5

     negative rho (up, down):  1.539E-04 5.004E-04
 
     Adding external electric field

     Computed dipole along edir(3) : 
        Dipole               -1.2946 Ry au,         -3.2906 Debye
        Dipole field         -0.0008 Ry au, 
 
        Potential amp.        0.0849 Ry
        Total length         54.7057 bohr
 
 
     Adding external electric field

     Computed dipole along edir(3) : 
        Dipole               -1.2946 Ry au,         -3.2906 Debye
        Dipole field         -0.0008 Ry au, 
 
        Potential amp.        0.0849 Ry
        Total length         54.7057 bohr
 

     total cpu time spent up to now is      243.9 secs

     total energy              =   -8078.34028128 Ry
     estimated scf accuracy    <       0.71193564 Ry

     total magnetization       =    96.33 Bohr mag/cell
     absolute magnetization    =   102.65 Bohr mag/cell

     iteration # 15     ecut=    50.00 Ry     beta= 0.10
     Davidson diagonalization with overlap
     ethr =  6.43E-05,  avg # of iterations =  1.5

     negative rho (up, down):  3.196E-06 9.657E-05
 
     Adding external electric field

     Computed dipole along edir(3) : 
        Dipole               -1.1305 Ry au,         -2.8735 Debye
        Dipole field         -0.0007 Ry au, 
 
        Potential amp.        0.0741 Ry
        Total length         54.7057 bohr
 
 
     Adding external electric field

     Computed dipole along edir(3) : 
        Dipole               -1.1305 Ry au,         -2.8735 Debye
        Dipole field         -0.0007 Ry au, 
 
        Potential amp.        0.0741 Ry
        Total length         54.7057 bohr
 

     total cpu time spent up to now is      257.5 secs

     total energy              =   -8078.41912422 Ry
     estimated scf accuracy    <       0.54302389 Ry

     total magnetization       =    96.68 Bohr mag/cell
     absolute magnetization    =   102.50 Bohr mag/cell

     iteration # 16     ecut=    50.00 Ry     beta= 0.10
     Davidson diagonalization with overlap
     ethr =  4.90E-05,  avg # of iterations =  2.0

     negative rho (up, down):  2.900E-06 9.419E-05
 
     Adding external electric field

     Computed dipole along edir(3) : 
        Dipole               -1.1287 Ry au,         -2.8689 Debye
        Dipole field         -0.0007 Ry au, 
 
        Potential amp.        0.0740 Ry
        Total length         54.7057 bohr
 
 
     Adding external electric field

     Computed dipole along edir(3) : 
        Dipole               -1.1287 Ry au,         -2.8689 Debye
        Dipole field         -0.0007 Ry au, 
 
        Potential amp.        0.0740 Ry
        Total length         54.7057 bohr
 

     total cpu time spent up to now is      271.8 secs

     total energy              =   -8078.46844340 Ry
     estimated scf accuracy    <       0.95361421 Ry

     total magnetization       =    93.41 Bohr mag/cell
     absolute magnetization    =    97.57 Bohr mag/cell

     iteration # 17     ecut=    50.00 Ry     beta= 0.10
     Davidson diagonalization with overlap
     ethr =  4.90E-05,  avg # of iterations =  1.5

     negative rho (up, down):  8.818E-07 2.688E-04
 
     Adding external electric field

     Computed dipole along edir(3) : 
        Dipole               -1.0436 Ry au,         -2.6525 Debye
        Dipole field         -0.0006 Ry au, 
 
        Potential amp.        0.0684 Ry
        Total length         54.7057 bohr
 
 
     Adding external electric field

     Computed dipole along edir(3) : 
        Dipole               -1.0436 Ry au,         -2.6525 Debye
        Dipole field         -0.0006 Ry au, 
 
        Potential amp.        0.0684 Ry
        Total length         54.7057 bohr
 

     total cpu time spent up to now is      284.8 secs

     total energy              =   -8078.51110938 Ry
     estimated scf accuracy    <       1.11185572 Ry

     total magnetization       =    93.13 Bohr mag/cell
     absolute magnetization    =    97.19 Bohr mag/cell

     iteration # 18     ecut=    50.00 Ry     beta= 0.10
     Davidson diagonalization with overlap
     ethr =  4.90E-05,  avg # of iterations =  2.0

     negative rho (up, down):  6.767E-07 2.029E-04
 
     Adding external electric field

     Computed dipole along edir(3) : 
        Dipole               -1.0769 Ry au,         -2.7373 Debye
        Dipole field         -0.0006 Ry au, 
 
        Potential amp.        0.0706 Ry
        Total length         54.7057 bohr
 
 
     Adding external electric field

     Computed dipole along edir(3) : 
        Dipole               -1.0769 Ry au,         -2.7373 Debye
        Dipole field         -0.0006 Ry au, 
 
        Potential amp.        0.0706 Ry
        Total length         54.7057 bohr
 

     total cpu time spent up to now is      299.1 secs

     total energy              =   -8078.45909109 Ry
     estimated scf accuracy    <       2.45404424 Ry

     total magnetization       =    89.89 Bohr mag/cell
     absolute magnetization    =    93.24 Bohr mag/cell

     iteration # 19     ecut=    50.00 Ry     beta= 0.10
     Davidson diagonalization with overlap
     ethr =  4.90E-05,  avg # of iterations =  1.5

     negative rho (up, down):  8.011E-08 3.797E-04
 
     Adding external electric field

     Computed dipole along edir(3) : 
        Dipole               -1.0035 Ry au,         -2.5506 Debye
        Dipole field         -0.0006 Ry au, 
 
        Potential amp.        0.0658 Ry
        Total length         54.7057 bohr
 
 
     Adding external electric field

     Computed dipole along edir(3) : 
        Dipole               -1.0035 Ry au,         -2.5506 Debye
        Dipole field         -0.0006 Ry au, 
 
        Potential amp.        0.0658 Ry
        Total length         54.7057 bohr
 

     total cpu time spent up to now is      312.1 secs

     total energy              =   -8078.48226575 Ry
     estimated scf accuracy    <       0.47932784 Ry

     total magnetization       =    94.63 Bohr mag/cell
     absolute magnetization    =    97.45 Bohr mag/cell

     iteration # 20     ecut=    50.00 Ry     beta= 0.10
     Davidson diagonalization with overlap
     ethr =  4.33E-05,  avg # of iterations =  1.5

     negative rho (up, down):  5.486E-08 3.754E-04
 
     Adding external electric field

     Computed dipole along edir(3) : 
        Dipole               -1.0011 Ry au,         -2.5446 Debye
        Dipole field         -0.0006 Ry au, 
 
        Potential amp.        0.0657 Ry
        Total length         54.7057 bohr
 
 
     Adding external electric field

     Computed dipole along edir(3) : 
        Dipole               -1.0011 Ry au,         -2.5446 Debye
        Dipole field         -0.0006 Ry au, 
 
        Potential amp.        0.0657 Ry
        Total length         54.7057 bohr
 

     total cpu time spent up to now is      325.0 secs

     total energy              =   -8078.48785375 Ry
     estimated scf accuracy    <       0.40967457 Ry

     total magnetization       =    94.77 Bohr mag/cell
     absolute magnetization    =    96.89 Bohr mag/cell

     iteration # 21     ecut=    50.00 Ry     beta= 0.10
     Davidson diagonalization with overlap
     ethr =  3.70E-05,  avg # of iterations =  1.0

     negative rho (up, down):  7.651E-07 1.186E-04
 
     Adding external electric field

     Computed dipole along edir(3) : 
        Dipole               -1.0282 Ry au,         -2.6134 Debye
        Dipole field         -0.0006 Ry au, 
 
        Potential amp.        0.0674 Ry
        Total length         54.7057 bohr
 
 
     Adding external electric field

     Computed dipole along edir(3) : 
        Dipole               -1.0282 Ry au,         -2.6134 Debye
        Dipole field         -0.0006 Ry au, 
 
        Potential amp.        0.0674 Ry
        Total length         54.7057 bohr
 

     total cpu time spent up to now is      337.2 secs

     total energy              =   -8078.48983942 Ry
     estimated scf accuracy    <       0.40879134 Ry

     total magnetization       =    94.78 Bohr mag/cell
     absolute magnetization    =    96.84 Bohr mag/cell

     iteration # 22     ecut=    50.00 Ry     beta= 0.10
     Davidson diagonalization with overlap
     ethr =  3.69E-05,  avg # of iterations =  1.5

     negative rho (up, down):  6.865E-07 1.273E-04
 
     Adding external electric field

     Computed dipole along edir(3) : 
        Dipole               -0.9135 Ry au,         -2.3219 Debye
        Dipole field         -0.0005 Ry au, 
 
        Potential amp.        0.0599 Ry
        Total length         54.7057 bohr
 
 
     Adding external electric field

     Computed dipole along edir(3) : 
        Dipole               -0.9135 Ry au,         -2.3219 Debye
        Dipole field         -0.0005 Ry au, 
 
        Potential amp.        0.0599 Ry
        Total length         54.7057 bohr
 

     total cpu time spent up to now is      350.4 secs

     total energy              =   -8078.54741419 Ry
     estimated scf accuracy    <       0.15718458 Ry

     total magnetization       =    96.69 Bohr mag/cell
     absolute magnetization    =    98.90 Bohr mag/cell

     iteration # 23     ecut=    50.00 Ry     beta= 0.10
     Davidson diagonalization with overlap
     c_bands:  1 eigenvalues not converged
     ethr =  1.42E-05,  avg # of iterations = 11.0

     negative rho (up, down):  1.183E-05 5.095E-05
 
     Adding external electric field

     Computed dipole along edir(3) : 
        Dipole               -0.8786 Ry au,         -2.2331 Debye
        Dipole field         -0.0005 Ry au, 
 
        Potential amp.        0.0576 Ry
        Total length         54.7057 bohr
 
 
     Adding external electric field

     Computed dipole along edir(3) : 
        Dipole               -0.8786 Ry au,         -2.2331 Debye
        Dipole field         -0.0005 Ry au, 
 
        Potential amp.        0.0576 Ry
        Total length         54.7057 bohr
 

     total cpu time spent up to now is      374.2 secs

     total energy              =   -8078.56746157 Ry
     estimated scf accuracy    <       0.13571487 Ry

     total magnetization       =    96.27 Bohr mag/cell
     absolute magnetization    =    97.91 Bohr mag/cell

     iteration # 24     ecut=    50.00 Ry     beta= 0.10
     Davidson diagonalization with overlap
     ethr =  1.22E-05,  avg # of iterations =  1.0

     negative rho (up, down):  1.126E-07 1.774E-06
 
     Adding external electric field

     Computed dipole along edir(3) : 
        Dipole               -0.9104 Ry au,         -2.3140 Debye
        Dipole field         -0.0005 Ry au, 
 
        Potential amp.        0.0597 Ry
        Total length         54.7057 bohr
 
 
     Adding external electric field

     Computed dipole along edir(3) : 
        Dipole               -0.9104 Ry au,         -2.3140 Debye
        Dipole field         -0.0005 Ry au, 
 
        Potential amp.        0.0597 Ry
        Total length         54.7057 bohr
 

     total cpu time spent up to now is      386.5 secs

     total energy              =   -8078.55904926 Ry
     estimated scf accuracy    <       0.13940639 Ry

     total magnetization       =    96.40 Bohr mag/cell
     absolute magnetization    =    97.97 Bohr mag/cell

     iteration # 25     ecut=    50.00 Ry     beta= 0.10
     Davidson diagonalization with overlap
     ethr =  1.22E-05,  avg # of iterations =  1.5

     negative rho (up, down):  1.645E-07 2.433E-06
 
     Adding external electric field

     Computed dipole along edir(3) : 
        Dipole               -0.9136 Ry au,         -2.3222 Debye
        Dipole field         -0.0005 Ry au, 
 
        Potential amp.        0.0599 Ry
        Total length         54.7057 bohr
 
 
     Adding external electric field

     Computed dipole along edir(3) : 
        Dipole               -0.9136 Ry au,         -2.3222 Debye
        Dipole field         -0.0005 Ry au, 
 
        Potential amp.        0.0599 Ry
        Total length         54.7057 bohr
 

     total cpu time spent up to now is      399.7 secs

     total energy              =   -8078.56157466 Ry
     estimated scf accuracy    <       0.10814348 Ry

     total magnetization       =    97.06 Bohr mag/cell
     absolute magnetization    =    98.85 Bohr mag/cell

     iteration # 26     ecut=    50.00 Ry     beta= 0.10
     Davidson diagonalization with overlap
     ethr =  9.76E-06,  avg # of iterations =  1.0

     negative rho (up, down):  4.283E-07 4.060E-06
 
     Adding external electric field

     Computed dipole along edir(3) : 
        Dipole               -0.9212 Ry au,         -2.3416 Debye
        Dipole field         -0.0006 Ry au, 
 
        Potential amp.        0.0604 Ry
        Total length         54.7057 bohr
 
 
     Adding external electric field

     Computed dipole along edir(3) : 
        Dipole               -0.9212 Ry au,         -2.3416 Debye
        Dipole field         -0.0006 Ry au, 
 
        Potential amp.        0.0604 Ry
        Total length         54.7057 bohr
 

     total cpu time spent up to now is      412.0 secs

     total energy              =   -8078.56125546 Ry
     estimated scf accuracy    <       0.10609967 Ry

     total magnetization       =    96.96 Bohr mag/cell
     absolute magnetization    =    98.77 Bohr mag/cell

     iteration # 27     ecut=    50.00 Ry     beta= 0.10
     Davidson diagonalization with overlap
     ethr =  9.58E-06,  avg # of iterations =  1.5

     negative rho (up, down):  2.413E-07 4.229E-06
 
     Adding external electric field

     Computed dipole along edir(3) : 
        Dipole               -0.9140 Ry au,         -2.3233 Debye
        Dipole field         -0.0005 Ry au, 
 
        Potential amp.        0.0600 Ry
        Total length         54.7057 bohr
 
 
     Adding external electric field

     Computed dipole along edir(3) : 
        Dipole               -0.9140 Ry au,         -2.3233 Debye
        Dipole field         -0.0005 Ry au, 
 
        Potential amp.        0.0600 Ry
        Total length         54.7057 bohr
 

     total cpu time spent up to now is      425.0 secs

     total energy              =   -8078.56159175 Ry
     estimated scf accuracy    <       0.11277275 Ry

     total magnetization       =    96.74 Bohr mag/cell
     absolute magnetization    =    98.61 Bohr mag/cell

     iteration # 28     ecut=    50.00 Ry     beta= 0.10
     Davidson diagonalization with overlap
     ethr =  9.58E-06,  avg # of iterations =  1.0

     negative rho (up, down):  3.394E-07 4.126E-06
 
     Adding external electric field

     Computed dipole along edir(3) : 
        Dipole               -0.9059 Ry au,         -2.3027 Debye
        Dipole field         -0.0005 Ry au, 
 
        Potential amp.        0.0594 Ry
        Total length         54.7057 bohr
 
 
     Adding external electric field

     Computed dipole along edir(3) : 
        Dipole               -0.9059 Ry au,         -2.3027 Debye
        Dipole field         -0.0005 Ry au, 
 
        Potential amp.        0.0594 Ry
        Total length         54.7057 bohr
 

     total cpu time spent up to now is      437.1 secs

     total energy              =   -8078.56158951 Ry
     estimated scf accuracy    <       0.10418816 Ry

     total magnetization       =    96.83 Bohr mag/cell
     absolute magnetization    =    98.68 Bohr mag/cell

     iteration # 29     ecut=    50.00 Ry     beta= 0.10
     Davidson diagonalization with overlap
     ethr =  9.40E-06,  avg # of iterations =  1.5

     negative rho (up, down):  4.985E-05 6.082E-05
 
     Adding external electric field

     Computed dipole along edir(3) : 
        Dipole               -0.8802 Ry au,         -2.2373 Debye
        Dipole field         -0.0005 Ry au, 
 
        Potential amp.        0.0577 Ry
        Total length         54.7057 bohr
 
 
     Adding external electric field

     Computed dipole along edir(3) : 
        Dipole               -0.8802 Ry au,         -2.2373 Debye
        Dipole field         -0.0005 Ry au, 
 
        Potential amp.        0.0577 Ry
        Total length         54.7057 bohr
 

     total cpu time spent up to now is      449.9 secs

     total energy              =   -8078.56073417 Ry
     estimated scf accuracy    <       0.10220889 Ry

     total magnetization       =    96.84 Bohr mag/cell
     absolute magnetization    =    98.68 Bohr mag/cell

     iteration # 30     ecut=    50.00 Ry     beta= 0.10
     Davidson diagonalization with overlap
     ethr =  9.22E-06,  avg # of iterations =  1.5

     negative rho (up, down):  4.801E-04 6.103E-04
 
     Adding external electric field

     Computed dipole along edir(3) : 
        Dipole               -0.8236 Ry au,         -2.0933 Debye
        Dipole field         -0.0005 Ry au, 
 
        Potential amp.        0.0540 Ry
        Total length         54.7057 bohr
 
 
     Adding external electric field

     Computed dipole along edir(3) : 
        Dipole               -0.8236 Ry au,         -2.0933 Debye
        Dipole field         -0.0005 Ry au, 
 
        Potential amp.        0.0540 Ry
        Total length         54.7057 bohr
 

     total cpu time spent up to now is      463.2 secs

     total energy              =   -8078.55663260 Ry
     estimated scf accuracy    <       0.10085457 Ry

     total magnetization       =    96.84 Bohr mag/cell
     absolute magnetization    =    98.71 Bohr mag/cell

     iteration # 31     ecut=    50.00 Ry     beta= 0.10
     Davidson diagonalization with overlap
     ethr =  9.10E-06,  avg # of iterations =  1.5

     negative rho (up, down):  3.007E-04 3.661E-04
 
     Adding external electric field

     Computed dipole along edir(3) : 
        Dipole               -0.8696 Ry au,         -2.2102 Debye
        Dipole field         -0.0005 Ry au, 
 
        Potential amp.        0.0570 Ry
        Total length         54.7057 bohr
 
 
     Adding external electric field

     Computed dipole along edir(3) : 
        Dipole               -0.8696 Ry au,         -2.2102 Debye
        Dipole field         -0.0005 Ry au, 
 
        Potential amp.        0.0570 Ry
        Total length         54.7057 bohr
 

     total cpu time spent up to now is      476.4 secs

     total energy              =   -8078.56107340 Ry
     estimated scf accuracy    <       0.10067997 Ry

     total magnetization       =    96.76 Bohr mag/cell
     absolute magnetization    =    98.64 Bohr mag/cell

     iteration # 32     ecut=    50.00 Ry     beta= 0.10
     Davidson diagonalization with overlap
     ethr =  9.09E-06,  avg # of iterations =  1.5

     negative rho (up, down):  3.998E-04 5.336E-04
 
     Adding external electric field

     Computed dipole along edir(3) : 
        Dipole               -0.7278 Ry au,         -1.8500 Debye
        Dipole field         -0.0004 Ry au, 
 
        Potential amp.        0.0477 Ry
        Total length         54.7057 bohr
 
 
     Adding external electric field

     Computed dipole along edir(3) : 
        Dipole               -0.7278 Ry au,         -1.8500 Debye
        Dipole field         -0.0004 Ry au, 
 
        Potential amp.        0.0477 Ry
        Total length         54.7057 bohr
 

     total cpu time spent up to now is      489.3 secs

     total energy              =   -8078.55845539 Ry
     estimated scf accuracy    <       0.10052151 Ry

     total magnetization       =    96.81 Bohr mag/cell
     absolute magnetization    =    98.63 Bohr mag/cell

     iteration # 33     ecut=    50.00 Ry     beta= 0.10
     Davidson diagonalization with overlap
     c_bands:  4 eigenvalues not converged
     ethr =  9.07E-06,  avg # of iterations = 10.5

     negative rho (up, down):  4.485E-04 4.651E-04
 
     Adding external electric field

     Computed dipole along edir(3) : 
        Dipole               -0.5338 Ry au,         -1.3568 Debye
        Dipole field         -0.0003 Ry au, 
 
        Potential amp.        0.0350 Ry
        Total length         54.7057 bohr
 
 
     Adding external electric field

     Computed dipole along edir(3) : 
        Dipole               -0.5338 Ry au,         -1.3568 Debye
        Dipole field         -0.0003 Ry au, 
 
        Potential amp.        0.0350 Ry
        Total length         54.7057 bohr
 

     total cpu time spent up to now is      507.0 secs

     total energy              =   -8078.56261834 Ry
     estimated scf accuracy    <       0.08709574 Ry

     total magnetization       =    96.94 Bohr mag/cell
     absolute magnetization    =    98.75 Bohr mag/cell

     iteration # 34     ecut=    50.00 Ry     beta= 0.10
     Davidson diagonalization with overlap
     ethr =  7.86E-06,  avg # of iterations =  3.0

     negative rho (up, down):  9.763E-04 8.437E-04
 
     Adding external electric field

     Computed dipole along edir(3) : 
        Dipole               -0.3295 Ry au,         -0.8376 Debye
        Dipole field         -0.0002 Ry au, 
 
        Potential amp.        0.0216 Ry
        Total length         54.7057 bohr
 
 
     Adding external electric field

     Computed dipole along edir(3) : 
        Dipole               -0.3295 Ry au,         -0.8376 Debye
        Dipole field         -0.0002 Ry au, 
 
        Potential amp.        0.0216 Ry
        Total length         54.7057 bohr
 

     total cpu time spent up to now is      521.6 secs

     total energy              =   -8078.56389463 Ry
     estimated scf accuracy    <       0.06713133 Ry

     total magnetization       =    97.15 Bohr mag/cell
     absolute magnetization    =    98.77 Bohr mag/cell

     iteration # 35     ecut=    50.00 Ry     beta= 0.10
     Davidson diagonalization with overlap
     ethr =  6.06E-06,  avg # of iterations = 21.0

     negative rho (up, down):  1.362E-03 1.038E-03
 
     Adding external electric field

     Computed dipole along edir(3) : 
        Dipole               -0.2004 Ry au,         -0.5094 Debye
        Dipole field         -0.0001 Ry au, 
 
        Potential amp.        0.0131 Ry
        Total length         54.7057 bohr
 
 
     Adding external electric field

     Computed dipole along edir(3) : 
        Dipole               -0.2004 Ry au,         -0.5094 Debye
        Dipole field         -0.0001 Ry au, 
 
        Potential amp.        0.0131 Ry
        Total length         54.7057 bohr
 

     total cpu time spent up to now is      550.6 secs

     total energy              =   -8078.56079407 Ry
     estimated scf accuracy    <       0.05080260 Ry

     total magnetization       =    97.30 Bohr mag/cell
     absolute magnetization    =    98.67 Bohr mag/cell

     iteration # 36     ecut=    50.00 Ry     beta= 0.10
     Davidson diagonalization with overlap
     ethr =  4.59E-06,  avg # of iterations = 11.0

     negative rho (up, down):  2.394E-06 2.509E-07
 
     Adding external electric field

     Computed dipole along edir(3) : 
        Dipole               -0.3042 Ry au,         -0.7733 Debye
        Dipole field         -0.0002 Ry au, 
 
        Potential amp.        0.0200 Ry
        Total length         54.7057 bohr
 
 
     Adding external electric field

     Computed dipole along edir(3) : 
        Dipole               -0.3042 Ry au,         -0.7733 Debye
        Dipole field         -0.0002 Ry au, 
 
        Potential amp.        0.0200 Ry
        Total length         54.7057 bohr
 

     total cpu time spent up to now is      570.6 secs

     total energy              =   -8078.55951576 Ry
     estimated scf accuracy    <       0.03909447 Ry

     total magnetization       =    97.43 Bohr mag/cell
     absolute magnetization    =    98.68 Bohr mag/cell

     iteration # 37     ecut=    50.00 Ry     beta= 0.10
     Davidson diagonalization with overlap
     ethr =  3.53E-06,  avg # of iterations =  2.0

     negative rho (up, down):  1.088E-06 9.740E-08
 
     Adding external electric field

     Computed dipole along edir(3) : 
        Dipole               -0.2959 Ry au,         -0.7521 Debye
        Dipole field         -0.0002 Ry au, 
 
        Potential amp.        0.0194 Ry
        Total length         54.7057 bohr
 
 
     Adding external electric field

     Computed dipole along edir(3) : 
        Dipole               -0.2959 Ry au,         -0.7521 Debye
        Dipole field         -0.0002 Ry au, 
 
        Potential amp.        0.0194 Ry
        Total length         54.7057 bohr
 

     total cpu time spent up to now is      584.4 secs

     total energy              =   -8078.56068927 Ry
     estimated scf accuracy    <       0.01588392 Ry

     total magnetization       =    97.38 Bohr mag/cell
     absolute magnetization    =    98.57 Bohr mag/cell

     iteration # 38     ecut=    50.00 Ry     beta= 0.10
     Davidson diagonalization with overlap
     c_bands:  1 eigenvalues not converged
     ethr =  1.43E-06,  avg # of iterations = 11.0

     negative rho (up, down):  2.847E-05 1.874E-05
 
     Adding external electric field

     Computed dipole along edir(3) : 
        Dipole               -0.2889 Ry au,         -0.7343 Debye
        Dipole field         -0.0002 Ry au, 
 
        Potential amp.        0.0189 Ry
        Total length         54.7057 bohr
 
 
     Adding external electric field

     Computed dipole along edir(3) : 
        Dipole               -0.2889 Ry au,         -0.7343 Debye
        Dipole field         -0.0002 Ry au, 
 
        Potential amp.        0.0189 Ry
        Total length         54.7057 bohr
 

     total cpu time spent up to now is      603.0 secs

     total energy              =   -8078.56088014 Ry
     estimated scf accuracy    <       0.01161034 Ry

     total magnetization       =    97.31 Bohr mag/cell
     absolute magnetization    =    98.41 Bohr mag/cell

     iteration # 39     ecut=    50.00 Ry     beta= 0.10
     Davidson diagonalization with overlap
     ethr =  1.05E-06,  avg # of iterations =  2.0

     negative rho (up, down):  3.020E-04 2.619E-04
 
     Adding external electric field

     Computed dipole along edir(3) : 
        Dipole               -0.3057 Ry au,         -0.7771 Debye
        Dipole field         -0.0002 Ry au, 
 
        Potential amp.        0.0201 Ry
        Total length         54.7057 bohr
 
 
     Adding external electric field

     Computed dipole along edir(3) : 
        Dipole               -0.3057 Ry au,         -0.7771 Debye
        Dipole field         -0.0002 Ry au, 
 
        Potential amp.        0.0201 Ry
        Total length         54.7057 bohr
 

     total cpu time spent up to now is      616.6 secs

     total energy              =   -8078.56093925 Ry
     estimated scf accuracy    <       0.00980650 Ry

     total magnetization       =    97.26 Bohr mag/cell
     absolute magnetization    =    98.34 Bohr mag/cell

     iteration # 40     ecut=    50.00 Ry     beta= 0.10
     Davidson diagonalization with overlap
     ethr =  8.85E-07,  avg # of iterations =  2.0

     negative rho (up, down):  4.460E-04 3.824E-04
 
     Adding external electric field

     Computed dipole along edir(3) : 
        Dipole               -0.3132 Ry au,         -0.7962 Debye
        Dipole field         -0.0002 Ry au, 
 
        Potential amp.        0.0205 Ry
        Total length         54.7057 bohr
 
 
     Adding external electric field

     Computed dipole along edir(3) : 
        Dipole               -0.3132 Ry au,         -0.7962 Debye
        Dipole field         -0.0002 Ry au, 
 
        Potential amp.        0.0205 Ry
        Total length         54.7057 bohr
 

     total cpu time spent up to now is      629.7 secs

     total energy              =   -8078.56093737 Ry
     estimated scf accuracy    <       0.00764160 Ry

     total magnetization       =    97.16 Bohr mag/cell
     absolute magnetization    =    98.25 Bohr mag/cell

     iteration # 41     ecut=    50.00 Ry     beta= 0.10
     Davidson diagonalization with overlap
     ethr =  6.90E-07,  avg # of iterations =  2.0

     negative rho (up, down):  2.428E-04 1.893E-04
 
     Adding external electric field

     Computed dipole along edir(3) : 
        Dipole               -0.3068 Ry au,         -0.7799 Debye
        Dipole field         -0.0002 Ry au, 
 
        Potential amp.        0.0201 Ry
        Total length         54.7057 bohr
 
 
     Adding external electric field

     Computed dipole along edir(3) : 
        Dipole               -0.3068 Ry au,         -0.7799 Debye
        Dipole field         -0.0002 Ry au, 
 
        Potential amp.        0.0201 Ry
        Total length         54.7057 bohr
 

     total cpu time spent up to now is      643.1 secs

     total energy              =   -8078.56101467 Ry
     estimated scf accuracy    <       0.00664746 Ry

     total magnetization       =    97.13 Bohr mag/cell
     absolute magnetization    =    98.24 Bohr mag/cell

     iteration # 42     ecut=    50.00 Ry     beta= 0.10
     Davidson diagonalization with overlap
     ethr =  6.00E-07,  avg # of iterations =  2.0

     negative rho (up, down):  7.731E-05 5.388E-05
 
     Adding external electric field

     Computed dipole along edir(3) : 
        Dipole               -0.3121 Ry au,         -0.7933 Debye
        Dipole field         -0.0002 Ry au, 
 
        Potential amp.        0.0205 Ry
        Total length         54.7057 bohr
 
 
     Adding external electric field

     Computed dipole along edir(3) : 
        Dipole               -0.3121 Ry au,         -0.7933 Debye
        Dipole field         -0.0002 Ry au, 
 
        Potential amp.        0.0205 Ry
        Total length         54.7057 bohr
 

     total cpu time spent up to now is      656.6 secs

     total energy              =   -8078.56111139 Ry
     estimated scf accuracy    <       0.00620254 Ry

     total magnetization       =    97.11 Bohr mag/cell
     absolute magnetization    =    98.23 Bohr mag/cell

     iteration # 43     ecut=    50.00 Ry     beta= 0.10
     Davidson diagonalization with overlap
     ethr =  5.60E-07,  avg # of iterations =  2.0

     negative rho (up, down):  8.136E-05 5.188E-05
 
     Adding external electric field

     Computed dipole along edir(3) : 
        Dipole               -0.3146 Ry au,         -0.7995 Debye
        Dipole field         -0.0002 Ry au, 
 
        Potential amp.        0.0206 Ry
        Total length         54.7057 bohr
 
 
     Adding external electric field

     Computed dipole along edir(3) : 
        Dipole               -0.3146 Ry au,         -0.7995 Debye
        Dipole field         -0.0002 Ry au, 
 
        Potential amp.        0.0206 Ry
        Total length         54.7057 bohr
 

     total cpu time spent up to now is      669.9 secs

     total energy              =   -8078.56116388 Ry
     estimated scf accuracy    <       0.00603643 Ry

     total magnetization       =    97.06 Bohr mag/cell
     absolute magnetization    =    98.19 Bohr mag/cell

     iteration # 44     ecut=    50.00 Ry     beta= 0.10
     Davidson diagonalization with overlap
     ethr =  5.45E-07,  avg # of iterations =  2.0

     negative rho (up, down):  9.773E-05 5.425E-05
 
     Adding external electric field

     Computed dipole along edir(3) : 
        Dipole               -0.3111 Ry au,         -0.7907 Debye
        Dipole field         -0.0002 Ry au, 
 
        Potential amp.        0.0204 Ry
        Total length         54.7057 bohr
 
 
     Adding external electric field

     Computed dipole along edir(3) : 
        Dipole               -0.3111 Ry au,         -0.7907 Debye
        Dipole field         -0.0002 Ry au, 
 
        Potential amp.        0.0204 Ry
        Total length         54.7057 bohr
 

     total cpu time spent up to now is      683.4 secs

     total energy              =   -8078.56104982 Ry
     estimated scf accuracy    <       0.00580421 Ry

     total magnetization       =    97.06 Bohr mag/cell
     absolute magnetization    =    98.20 Bohr mag/cell

     iteration # 45     ecut=    50.00 Ry     beta= 0.10
     Davidson diagonalization with overlap
     ethr =  5.24E-07,  avg # of iterations =  2.0

     negative rho (up, down):  1.057E-04 6.258E-05
 
     Adding external electric field

     Computed dipole along edir(3) : 
        Dipole               -0.3187 Ry au,         -0.8101 Debye
        Dipole field         -0.0002 Ry au, 
 
        Potential amp.        0.0209 Ry
        Total length         54.7057 bohr
 
 
     Adding external electric field

     Computed dipole along edir(3) : 
        Dipole               -0.3187 Ry au,         -0.8101 Debye
        Dipole field         -0.0002 Ry au, 
 
        Potential amp.        0.0209 Ry
        Total length         54.7057 bohr
 

     total cpu time spent up to now is      696.8 secs

     total energy              =   -8078.56113251 Ry
     estimated scf accuracy    <       0.00569999 Ry

     total magnetization       =    97.07 Bohr mag/cell
     absolute magnetization    =    98.21 Bohr mag/cell

     iteration # 46     ecut=    50.00 Ry     beta= 0.10
     Davidson diagonalization with overlap
     ethr =  5.14E-07,  avg # of iterations =  1.5

     negative rho (up, down):  1.173E-04 7.093E-05
 
     Adding external electric field

     Computed dipole along edir(3) : 
        Dipole               -0.3195 Ry au,         -0.8121 Debye
        Dipole field         -0.0002 Ry au, 
 
        Potential amp.        0.0210 Ry
        Total length         54.7057 bohr
 
 
     Adding external electric field

     Computed dipole along edir(3) : 
        Dipole               -0.3195 Ry au,         -0.8121 Debye
        Dipole field         -0.0002 Ry au, 
 
        Potential amp.        0.0210 Ry
        Total length         54.7057 bohr
 

     total cpu time spent up to now is      709.5 secs

     total energy              =   -8078.56113620 Ry
     estimated scf accuracy    <       0.00565382 Ry

     total magnetization       =    97.06 Bohr mag/cell
     absolute magnetization    =    98.21 Bohr mag/cell

     iteration # 47     ecut=    50.00 Ry     beta= 0.10
     Davidson diagonalization with overlap
     ethr =  5.10E-07,  avg # of iterations =  1.0

     negative rho (up, down):  1.447E-04 1.030E-04
 
     Adding external electric field

     Computed dipole along edir(3) : 
        Dipole               -0.3212 Ry au,         -0.8163 Debye
        Dipole field         -0.0002 Ry au, 
 
        Potential amp.        0.0211 Ry
        Total length         54.7057 bohr
 
 
     Adding external electric field

     Computed dipole along edir(3) : 
        Dipole               -0.3212 Ry au,         -0.8163 Debye
        Dipole field         -0.0002 Ry au, 
 
        Potential amp.        0.0211 Ry
        Total length         54.7057 bohr
 

     total cpu time spent up to now is      721.6 secs

     total energy              =   -8078.56113834 Ry
     estimated scf accuracy    <       0.00559800 Ry

     total magnetization       =    97.06 Bohr mag/cell
     absolute magnetization    =    98.21 Bohr mag/cell

     iteration # 48     ecut=    50.00 Ry     beta= 0.10
     Davidson diagonalization with overlap
     ethr =  5.05E-07,  avg # of iterations =  2.0

     negative rho (up, down):  1.415E-04 9.947E-05
 
     Adding external electric field

     Computed dipole along edir(3) : 
        Dipole               -0.3193 Ry au,         -0.8115 Debye
        Dipole field         -0.0002 Ry au, 
 
        Potential amp.        0.0209 Ry
        Total length         54.7057 bohr
 
 
     Adding external electric field

     Computed dipole along edir(3) : 
        Dipole               -0.3193 Ry au,         -0.8115 Debye
        Dipole field         -0.0002 Ry au, 
 
        Potential amp.        0.0209 Ry
        Total length         54.7057 bohr
 

     total cpu time spent up to now is      735.2 secs

     total energy              =   -8078.56114257 Ry
     estimated scf accuracy    <       0.00558050 Ry

     total magnetization       =    97.05 Bohr mag/cell
     absolute magnetization    =    98.18 Bohr mag/cell

     iteration # 49     ecut=    50.00 Ry     beta= 0.10
     Davidson diagonalization with overlap
     ethr =  5.04E-07,  avg # of iterations =  1.5

     negative rho (up, down):  1.645E-04 1.204E-04
 
     Adding external electric field

     Computed dipole along edir(3) : 
        Dipole               -0.3226 Ry au,         -0.8200 Debye
        Dipole field         -0.0002 Ry au, 
 
        Potential amp.        0.0212 Ry
        Total length         54.7057 bohr
 
 
     Adding external electric field

     Computed dipole along edir(3) : 
        Dipole               -0.3226 Ry au,         -0.8200 Debye
        Dipole field         -0.0002 Ry au, 
 
        Potential amp.        0.0212 Ry
        Total length         54.7057 bohr
 

     total cpu time spent up to now is      748.0 secs

     total energy              =   -8078.56118451 Ry
     estimated scf accuracy    <       0.00549746 Ry

     total magnetization       =    97.05 Bohr mag/cell
     absolute magnetization    =    98.18 Bohr mag/cell

     iteration # 50     ecut=    50.00 Ry     beta= 0.10
     Davidson diagonalization with overlap
     ethr =  4.96E-07,  avg # of iterations =  1.5

     negative rho (up, down):  2.007E-04 1.536E-04
 
     Adding external electric field

     Computed dipole along edir(3) : 
        Dipole               -0.3277 Ry au,         -0.8329 Debye
        Dipole field         -0.0002 Ry au, 
 
        Potential amp.        0.0215 Ry
        Total length         54.7057 bohr
 
 
     Adding external electric field

     Computed dipole along edir(3) : 
        Dipole               -0.3277 Ry au,         -0.8329 Debye
        Dipole field         -0.0002 Ry au, 
 
        Potential amp.        0.0215 Ry
        Total length         54.7057 bohr
 

     total cpu time spent up to now is      760.5 secs

     total energy              =   -8078.56124882 Ry
     estimated scf accuracy    <       0.00540151 Ry

     total magnetization       =    97.05 Bohr mag/cell
     absolute magnetization    =    98.18 Bohr mag/cell

     iteration # 51     ecut=    50.00 Ry     beta= 0.10
     Davidson diagonalization with overlap
     ethr =  4.88E-07,  avg # of iterations =  1.5

     negative rho (up, down):  2.107E-04 1.623E-04
 
     Adding external electric field

     Computed dipole along edir(3) : 
        Dipole               -0.3272 Ry au,         -0.8317 Debye
        Dipole field         -0.0002 Ry au, 
 
        Potential amp.        0.0215 Ry
        Total length         54.7057 bohr
 
 
     Adding external electric field

     Computed dipole along edir(3) : 
        Dipole               -0.3272 Ry au,         -0.8317 Debye
        Dipole field         -0.0002 Ry au, 
 
        Potential amp.        0.0215 Ry
        Total length         54.7057 bohr
 

     total cpu time spent up to now is      773.0 secs

     total energy              =   -8078.56124273 Ry
     estimated scf accuracy    <       0.00531195 Ry

     total magnetization       =    97.05 Bohr mag/cell
     absolute magnetization    =    98.18 Bohr mag/cell

     iteration # 52     ecut=    50.00 Ry     beta= 0.10
     Davidson diagonalization with overlap
     ethr =  4.79E-07,  avg # of iterations =  1.0

     negative rho (up, down):  7.934E-05 5.565E-05
 
     Adding external electric field

     Computed dipole along edir(3) : 
        Dipole               -0.3478 Ry au,         -0.8839 Debye
        Dipole field         -0.0002 Ry au, 
 
        Potential amp.        0.0228 Ry
        Total length         54.7057 bohr
 
 
     Adding external electric field

     Computed dipole along edir(3) : 
        Dipole               -0.3478 Ry au,         -0.8839 Debye
        Dipole field         -0.0002 Ry au, 
 
        Potential amp.        0.0228 Ry
        Total length         54.7057 bohr
 

     total cpu time spent up to now is      785.0 secs

     total energy              =   -8078.56136590 Ry
     estimated scf accuracy    <       0.00538547 Ry

     total magnetization       =    97.04 Bohr mag/cell
     absolute magnetization    =    98.18 Bohr mag/cell

     iteration # 53     ecut=    50.00 Ry     beta= 0.10
     Davidson diagonalization with overlap
     ethr =  4.79E-07,  avg # of iterations =  1.0

     negative rho (up, down):  1.068E-04 8.137E-05
 
     Adding external electric field

     Computed dipole along edir(3) : 
        Dipole               -0.3398 Ry au,         -0.8636 Debye
        Dipole field         -0.0002 Ry au, 
 
        Potential amp.        0.0223 Ry
        Total length         54.7057 bohr
 
 
     Adding external electric field

     Computed dipole along edir(3) : 
        Dipole               -0.3398 Ry au,         -0.8636 Debye
        Dipole field         -0.0002 Ry au, 
 
        Potential amp.        0.0223 Ry
        Total length         54.7057 bohr
 

     total cpu time spent up to now is      796.9 secs

     total energy              =   -8078.56138507 Ry
     estimated scf accuracy    <       0.00543869 Ry

     total magnetization       =    97.09 Bohr mag/cell
     absolute magnetization    =    98.24 Bohr mag/cell

     iteration # 54     ecut=    50.00 Ry     beta= 0.10
     Davidson diagonalization with overlap
     ethr =  4.79E-07,  avg # of iterations =  2.0

     negative rho (up, down):  9.542E-05 6.330E-05
 
     Adding external electric field

     Computed dipole along edir(3) : 
        Dipole               -0.3290 Ry au,         -0.8363 Debye
        Dipole field         -0.0002 Ry au, 
 
        Potential amp.        0.0216 Ry
        Total length         54.7057 bohr
 
 
     Adding external electric field

     Computed dipole along edir(3) : 
        Dipole               -0.3290 Ry au,         -0.8363 Debye
        Dipole field         -0.0002 Ry au, 
 
        Potential amp.        0.0216 Ry
        Total length         54.7057 bohr
 

     total cpu time spent up to now is      810.3 secs

     total energy              =   -8078.56131725 Ry
     estimated scf accuracy    <       0.00557082 Ry

     total magnetization       =    97.08 Bohr mag/cell
     absolute magnetization    =    98.23 Bohr mag/cell

     iteration # 55     ecut=    50.00 Ry     beta= 0.10
     Davidson diagonalization with overlap
     ethr =  4.79E-07,  avg # of iterations =  1.0

     negative rho (up, down):  1.265E-04 9.473E-05
 
     Adding external electric field

     Computed dipole along edir(3) : 
        Dipole               -0.3436 Ry au,         -0.8734 Debye
        Dipole field         -0.0002 Ry au, 
 
        Potential amp.        0.0225 Ry
        Total length         54.7057 bohr
 
 
     Adding external electric field

     Computed dipole along edir(3) : 
        Dipole               -0.3436 Ry au,         -0.8734 Debye
        Dipole field         -0.0002 Ry au, 
 
        Potential amp.        0.0225 Ry
        Total length         54.7057 bohr
 

     total cpu time spent up to now is      822.2 secs

     total energy              =   -8078.56136727 Ry
     estimated scf accuracy    <       0.00547305 Ry

     total magnetization       =    97.08 Bohr mag/cell
     absolute magnetization    =    98.24 Bohr mag/cell

     iteration # 56     ecut=    50.00 Ry     beta= 0.10
     Davidson diagonalization with overlap
     ethr =  4.79E-07,  avg # of iterations =  1.0

     negative rho (up, down):  2.098E-04 1.814E-04
 
     Adding external electric field

     Computed dipole along edir(3) : 
        Dipole               -0.3213 Ry au,         -0.8165 Debye
        Dipole field         -0.0002 Ry au, 
 
        Potential amp.        0.0211 Ry
        Total length         54.7057 bohr
 
 
     Adding external electric field

     Computed dipole along edir(3) : 
        Dipole               -0.3213 Ry au,         -0.8165 Debye
        Dipole field         -0.0002 Ry au, 
 
        Potential amp.        0.0211 Ry
        Total length         54.7057 bohr
 

     total cpu time spent up to now is      835.9 secs

     total energy              =   -8078.56126848 Ry
     estimated scf accuracy    <       0.00544035 Ry

     total magnetization       =    97.07 Bohr mag/cell
     absolute magnetization    =    98.22 Bohr mag/cell

     iteration # 57     ecut=    50.00 Ry     beta= 0.10
     Davidson diagonalization with overlap
     ethr =  4.79E-07,  avg # of iterations =  1.5

     negative rho (up, down):  1.884E-04 1.533E-04
 
     Adding external electric field

     Computed dipole along edir(3) : 
        Dipole               -0.3248 Ry au,         -0.8256 Debye
        Dipole field         -0.0002 Ry au, 
 
        Potential amp.        0.0213 Ry
        Total length         54.7057 bohr
 
 
     Adding external electric field

     Computed dipole along edir(3) : 
        Dipole               -0.3248 Ry au,         -0.8256 Debye
        Dipole field         -0.0002 Ry au, 
 
        Potential amp.        0.0213 Ry
        Total length         54.7057 bohr
 

     total cpu time spent up to now is      848.5 secs

     total energy              =   -8078.56127718 Ry
     estimated scf accuracy    <       0.00496138 Ry

     total magnetization       =    97.08 Bohr mag/cell
     absolute magnetization    =    98.21 Bohr mag/cell

     iteration # 58     ecut=    50.00 Ry     beta= 0.10
     Davidson diagonalization with overlap
     ethr =  4.48E-07,  avg # of iterations =  1.5

     negative rho (up, down):  2.461E-04 2.005E-04
 
     Adding external electric field

     Computed dipole along edir(3) : 
        Dipole               -0.3146 Ry au,         -0.7997 Debye
        Dipole field         -0.0002 Ry au, 
 
[...]
    -5.9979  -5.9890  -5.9768  -5.9530  -5.9092  -5.8978  -5.8657  -5.8443
    -5.8385  -5.8277  -5.8221  -5.7759  -5.7642  -5.7601  -5.6948  -5.6792
    -5.6725  -5.6506  -5.6249  -5.6138  -5.5898  -5.5803  -5.5659  -5.5437
    -5.5417  -5.5153  -5.5045  -5.5026  -5.4827  -5.4783  -5.4597  -5.3759
    -5.3568  -5.3261  -5.2797  -5.2602  -5.2517  -5.2458  -5.2310  -5.1643
    -5.1536  -5.1153  -5.0765  -5.0493  -5.0414  -4.9960  -4.9255  -4.9027
    -4.8702  -4.8552  -4.8105  -4.8023  -4.7844  -4.7789  -4.7463  -4.7362
    -4.6609  -4.6389  -4.6009  -4.5785  -4.5507  -4.4793  -4.4475  -4.4087
    -4.3948  -4.3808  -4.3149  -4.2953  -4.2858  -4.2424  -4.2205  -4.2054
    -4.1742  -4.1508  -4.1122  -4.0664  -4.0600  -4.0097  -3.9797  -3.9700
    -3.8961  -3.8668  -3.8529  -3.8429  -3.8122  -3.7629  -3.7470  -3.7408
    -3.7193  -3.7133  -3.6781  -3.6768  -3.6216  -3.6194  -3.6018  -3.5908
    -3.5423  -3.5361  -3.5292  -3.5135  -3.5011  -3.4845  -3.4714  -3.4309
    -3.4183  -3.4149  -3.3874  -3.3780  -3.3681  -3.3472  -3.3315  -3.3226
    -3.2926  -3.2837  -3.2775  -3.2590  -3.2160  -3.1990  -3.1841  -3.1578
    -3.1421  -3.0998  -3.0944  -3.0746  -3.0550  -3.0368  -3.0301  -3.0029
    -2.9783  -2.9460  -2.9409  -2.9118  -2.8858  -2.8611  -2.8552  -2.8274
    -2.8148  -2.7811  -2.7402  -2.7171  -2.7088  -2.6937  -2.6885  -2.6881
    -2.6740  -2.6589  -2.6434  -2.6302  -2.6253  -2.6106  -2.5920  -2.5830
    -2.5610  -2.5482  -2.5230  -2.5190  -2.5114  -2.5004  -2.4732  -2.4674
    -2.4363  -2.4211  -2.4043  -2.3930  -2.3748  -2.3505  -2.3432  -2.3185
    -2.3012  -2.2893  -2.2792  -2.2685  -2.2332  -2.2052  -2.1924  -2.1854
    -2.1608  -2.1518  -2.1353  -2.0892  -2.0879  -2.0683  -2.0451  -2.0268
    -2.0156  -2.0043  -1.9846  -1.9676  -1.9643  -1.9368  -1.9073  -1.8846
    -1.8759  -1.8658  -1.8568  -1.8356  -1.8256  -1.8186  -1.8069  -1.7947
    -1.7287  -1.6919  -1.6815  -1.6759  -1.6535  -1.6293  -1.6254  -1.6097
    -1.6036  -1.5844  -1.5778  -1.5371  -1.5336  -1.5160  -1.4904  -1.4499
    -1.4428  -1.4328  -1.4079  -1.3804  -1.3747  -1.3495  -1.3412  -1.3233
    -1.3123  -1.3015  -1.2574  -1.2171  -1.1775  -1.1705  -1.1473  -1.1111
    -1.0686  -1.0375  -1.0039  -1.0004  -0.9922  -0.8823  -0.8412  -0.7983
    -0.7652  -0.6366  -0.6193  -0.6132  -0.4550  -0.4123  -0.2738  -0.2152
     0.1799   0.1943   0.2364   0.2598   0.2671   0.2919   0.2989   0.3079
     0.3176   0.3296   0.3417   0.3699   0.3719   0.3829   0.3911   0.4049
     0.4099   0.4139   0.4238   0.4337   0.4388   0.4461   0.4682   0.4706
     0.4789   0.4824   0.4926   0.4960   0.5085   0.5162   0.5190   0.5286
     0.5365   0.5430   0.5547   0.5574   0.5645   0.5711   0.5837   0.5926
     0.6079   0.6133   0.6229   0.6358   0.6417   0.6461   0.6555   0.6611
     0.6671   0.6808   0.7035   0.7112   0.7217   0.7300   0.7341   0.7421
     0.7487   0.7729   0.7837   0.7925   0.7969   0.8112   0.8119   0.8229
     0.8291   0.8489   0.8512   0.8650   0.8750   0.8773   0.8827   0.9025
     0.9091   0.9712   0.9827   0.9967   1.0293   1.1090   1.1323   1.1515
     1.6965   1.7614   1.7753   1.7842   1.7985   1.8249   1.8396   1.8676
     1.8776   1.9059   1.9388   1.9558   1.9720   1.9919   2.0151   2.0216
     2.0547   2.0778   2.0839   2.0999   2.1047   2.1247   2.1408   2.1599
     2.1895   2.2039   2.2065   2.2169   2.2278   2.2607   2.2679   2.2811
     2.2870   2.2988   2.3063   2.3468   2.3650   2.3692   2.4042   2.4325
     2.4587   2.4622   2.4864   2.5097   2.5181   2.5266   2.5662   2.6063
     2.6204   2.6615   2.7284   2.7724   2.8049   2.8637   2.8869   3.4335
     3.5035   3.6758   3.6966   3.7351   3.7598   3.7893   3.8203   3.8526
     3.8873   3.9450   3.9505   3.9542   3.9901   3.9974   4.0072   4.0250
     4.0473   4.0774   4.0918   4.1071   4.1367   4.1520   4.1603   4.2002
     4.2072   4.2179   4.2522   4.2671   4.3068   4.5969   4.6024   4.7482
     4.7890   4.8476   4.8920   4.9179   4.9585   4.9889   4.9959   5.0513
     5.0753   5.0901   5.1545   5.1718   5.2148   5.2210   5.3868   6.1791
     6.3594   6.4423   6.5811   6.6547   6.7174   6.7362   6.8495   6.9052
     6.9399   6.9583   7.0030   7.1074   7.2201   7.2703   7.3236   7.3648
     7.3883   7.4126   7.4752   7.5085   7.5693   7.5874   7.7011   7.7264
     7.7686   7.8684   7.9002   7.9220   7.9536   7.9936   8.0147   8.0433
     8.0746   8.0974   8.1245   8.1629   8.1687   8.2138   8.2391   8.3027
     8.3223   8.3324   8.3525   8.3715   8.3843   8.4082   8.4343   8.4429
     8.4669   8.4884   8.5052   8.5456   8.5608   8.5778   8.6246   8.6296
     8.6660

     the Fermi energy is     1.6917 ev

!    total energy              =   -8078.56146128 Ry
     estimated scf accuracy    <       0.00000074 Ry
     smearing contrib. (-TS)   =      -0.02484252 Ry
     internal energy E=F+TS    =   -8078.53661876 Ry

     The total energy is F=E-TS. E is the sum of the following terms:
     one-electron contribution =  -94704.15256823 Ry
     hartree contribution      =   47936.67738979 Ry
     xc contribution           =   -2177.36568025 Ry
     ewald contribution        =   40868.07441885 Ry
     Dispersion Correction     =      -1.77018971 Ry
     electric field correction =       0.00001078 Ry

     total magnetization       =    97.12 Bohr mag/cell
     absolute magnetization    =    98.34 Bohr mag/cell

     convergence has been achieved in  81 iterations

     negative rho (up, down):  1.166E-03 6.276E-04

     Forces acting on atoms (cartesian axes, Ry/au):

     atom    1 type  1   force =     0.02417383   -0.01756729    0.02002727
     atom    2 type  1   force =    -0.00193194    0.00022436   -0.00552118
     atom    3 type  2   force =    -0.03025784   -0.01568369   -0.00848878
     atom    4 type  1   force =     0.00191845   -0.00342590   -0.00455709
     atom    5 type  1   force =    -0.00374958    0.00231327   -0.00183313
     atom    6 type  1   force =     0.00256831    0.00741106   -0.00419937
     atom    7 type  1   force =     0.03186257   -0.01945894    0.01779940
     atom    8 type  2   force =    -0.00185954    0.00025744   -0.00894110
     atom    9 type  2   force =    -0.02882786   -0.01528253   -0.00840897
     atom   10 type  1   force =     0.00192264   -0.00309813   -0.00437918
     atom   11 type  1   force =    -0.00341580    0.00263766   -0.00093643
     atom   12 type  1   force =     0.00356875    0.00677773   -0.00364103
     atom   13 type  3   force =     0.00213454    0.00064429   -0.00762963
     atom   14 type  3   force =    -0.02976323    0.04992369   -0.06599059
     atom   15 type  3   force =     0.03461896    0.03754819   -0.05989965
     atom   16 type  3   force =    -0.00447491    0.00316308   -0.00094636
     atom   17 type  4   force =    -0.00201504    0.00135563    0.00275395
     atom   18 type  4   force =    -0.00162761   -0.00514406    0.02739243
     atom   19 type  4   force =     0.00398224    0.00285421    0.02956104
     atom   20 type  4   force =     0.00020111   -0.00285556   -0.00482178
     atom   21 type  4   force =    -0.00303590   -0.00228989    0.00337044
     atom   22 type  4   force =     0.00470872   -0.00323970    0.03409697
     atom   23 type  4   force =    -0.00595764   -0.00103745    0.03235869
     atom   24 type  4   force =     0.00073846   -0.00102631    0.00000375
     atom   25 type  4   force =    -0.00129009    0.00082090    0.00218792
     atom   26 type  4   force =    -0.01448257   -0.02274612   -0.00183588
     atom   27 type  4   force =     0.00169982   -0.00074766    0.00120579
     atom   28 type  4   force =    -0.01770608    0.00339783    0.00119468
     atom   29 type  4   force =     0.02076439   -0.00460484    0.00825916
     atom   30 type  4   force =     0.01236892   -0.03416925    0.00111326
     atom   31 type  4   force =     0.00051360    0.00104182    0.00231351
     atom   32 type  4   force =    -0.00210148    0.00008363    0.00266146
     atom   33 type  3   force =    -0.00054504   -0.00164169   -0.00509921
     atom   34 type  3   force =    -0.03024988    0.05983481   -0.08317129
     atom   35 type  3   force =     0.03460758    0.03340514   -0.05928747
     atom   36 type  3   force =    -0.00379304    0.00471105   -0.00078175
     atom   37 type  4   force =    -0.00111827    0.00132673    0.00301760
     atom   38 type  4   force =    -0.00310890   -0.00553515    0.03298277
     atom   39 type  4   force =     0.00444612    0.00395026    0.02925849
     atom   40 type  4   force =     0.00019980   -0.00324682   -0.00495831
     atom   41 type  4   force =    -0.00008187    0.00003985    0.00357827
     atom   42 type  4   force =     0.00540651    0.00033218    0.01981078
     atom   43 type  4   force =    -0.00177106    0.00042560    0.03441705
     atom   44 type  4   force =     0.00089829   -0.00084843    0.00007082
     atom   45 type  4   force =    -0.00020680   -0.00269829    0.00129766
     atom   46 type  4   force =    -0.01506154   -0.02042613   -0.00050613
     atom   47 type  4   force =     0.00187243   -0.00060482    0.00127117
     atom   48 type  4   force =    -0.01808601    0.00402524    0.00161878
     atom   49 type  4   force =     0.01653446   -0.00279112    0.00498004
     atom   50 type  4   force =     0.01175962   -0.03687039    0.00433916
     atom   51 type  4   force =     0.00102247    0.00097048    0.00171268
     atom   52 type  4   force =     0.00102970   -0.00220257    0.00362479
     atom   53 type  1   force =     0.00147243    0.00045784   -0.00068910
     atom   54 type  1   force =     0.00116685    0.00018507    0.00027488
     atom   55 type  2   force =     0.00007880   -0.00024420   -0.00003950
     atom   56 type  1   force =    -0.00004717   -0.00040735    0.00169494
     atom   57 type  1   force =     0.00057061    0.00018891    0.00044690
     atom   58 type  1   force =     0.00024549   -0.00047733    0.00036148
     atom   59 type  1   force =     0.00036852    0.00076300   -0.00090178
     atom   60 type  2   force =    -0.00126613   -0.00144082    0.00604969
     atom   61 type  2   force =    -0.00050162   -0.00022845   -0.00031421
     atom   62 type  1   force =     0.00019683    0.00157832    0.00122388
     atom   63 type  1   force =    -0.00060642    0.00040599    0.00027658
     atom   64 type  1   force =     0.00016390   -0.00043138   -0.00003442
     atom   65 type  3   force =    -0.00025208    0.00194894    0.00206762
     atom   66 type  3   force =    -0.00003218   -0.00027023   -0.00174036
     atom   67 type  3   force =     0.00038462    0.00073415   -0.00068818
     atom   68 type  3   force =    -0.00049803   -0.00199743    0.00207282
     atom   69 type  4   force =    -0.00090034   -0.00001296   -0.00087614
     atom   70 type  4   force =    -0.00008770    0.00013660    0.00035930
     atom   71 type  4   force =     0.00019767   -0.00041335   -0.00011664
     atom   72 type  4   force =    -0.00064974    0.00078173   -0.00182533
     atom   73 type  4   force =     0.00157364    0.00007588    0.00054729
     atom   74 type  4   force =    -0.00019079   -0.00064088    0.00186183
     atom   75 type  4   force =     0.00002283    0.00011944    0.00020170
     atom   76 type  4   force =    -0.00098209   -0.00060105    0.00031351
     atom   77 type  4   force =    -0.00112887    0.00118865    0.00005389
     atom   78 type  4   force =    -0.00029174   -0.00006278    0.00030611
     atom   79 type  4   force =     0.00102788    0.00171621   -0.00178692
     atom   80 type  4   force =     0.00001317    0.00056990    0.00010378
     atom   81 type  4   force =    -0.00045085   -0.00021023    0.00034226
     atom   82 type  4   force =     0.00026902   -0.00004543   -0.00000414
     atom   83 type  4   force =     0.00044343   -0.00077521   -0.00033079
     atom   84 type  4   force =    -0.00035956   -0.00039251   -0.00043208
     atom   85 type  3   force =     0.00050533    0.00041040    0.00009497
     atom   86 type  3   force =     0.00067883   -0.00067522   -0.00067605
     atom   87 type  3   force =    -0.00017242   -0.00005011   -0.00105255
     atom   88 type  3   force =    -0.00198767   -0.00169855    0.00160706
     atom   89 type  4   force =    -0.00001631   -0.00001367    0.00012125
     atom   90 type  4   force =     0.00003303   -0.00045374    0.00175685
     atom   91 type  4   force =     0.00018395    0.00003137    0.00035081
     atom   92 type  4   force =     0.00056548   -0.00059673   -0.00126418
     atom   93 type  4   force =     0.00122075    0.00033411    0.00066116
     atom   94 type  4   force =    -0.00030658    0.00004905    0.00140243
     atom   95 type  4   force =     0.00022760    0.00017590    0.00048064
     atom   96 type  4   force =    -0.00111732   -0.00070664    0.00161490
     atom   97 type  4   force =     0.00057448    0.00022820   -0.00070675
     atom   98 type  4   force =    -0.00063671   -0.00017538    0.00032264
     atom   99 type  4   force =     0.00023619    0.00118141   -0.00166542
     atom  100 type  4   force =     0.00049527    0.00038397    0.00051706
     atom  101 type  4   force =    -0.00033255   -0.00016268    0.00055439
     atom  102 type  4   force =     0.00079134   -0.00029130    0.00037419
     atom  103 type  4   force =     0.00147927    0.00006743    0.00109850
     atom  104 type  4   force =    -0.00074022   -0.00081498    0.00030710
     atom  105 type  1   force =    -0.00004171   -0.00007778    0.00001591
     atom  106 type  1   force =     0.00043823   -0.00012573   -0.00019140
     atom  107 type  2   force =     0.00004757    0.00033331    0.00066371
     atom  108 type  1   force =     0.00044248   -0.00059433    0.00055807
     atom  109 type  1   force =    -0.00022390   -0.00020495    0.00006473
     atom  110 type  1   force =    -0.00026416    0.00021207   -0.00015283
     atom  111 type  1   force =    -0.00010513   -0.00037904    0.00031537
     atom  112 type  2   force =     0.00001087    0.00040441   -0.00001652
     atom  113 type  2   force =     0.00031098    0.00022586    0.00008123
     atom  114 type  1   force =    -0.00027742    0.00014922    0.00014488
     atom  115 type  1   force =     0.00036821    0.00055414   -0.00020677
     atom  116 type  1   force =    -0.00000939    0.00012655    0.00004145
     atom  117 type  3   force =    -0.00057680    0.00000957    0.00024654
     atom  118 type  3   force =    -0.00051534    0.00012960    0.00017666
     atom  119 type  3   force =    -0.00014883   -0.00008220   -0.00026901
     atom  120 type  3   force =     0.00015056    0.00028462   -0.00046053
     atom  121 type  4   force =     0.00041256   -0.00009984    0.00036243
     atom  122 type  4   force =    -0.00025673    0.00013106    0.00016414
     atom  123 type  4   force =    -0.00013877   -0.00000651   -0.00008979
     atom  124 type  4   force =    -0.00003475   -0.00052432   -0.00009034
     atom  125 type  4   force =     0.00070132    0.00022008    0.00017008
     atom  126 type  4   force =    -0.00001028   -0.00044503    0.00010975
     atom  127 type  4   force =     0.00025273    0.00013002   -0.00020033
     atom  128 type  4   force =    -0.00006347    0.00035550   -0.00041143
     atom  129 type  4   force =     0.00012852    0.00003377    0.00016988
     atom  130 type  4   force =    -0.00008969   -0.00000931    0.00023849
     atom  131 type  4   force =    -0.00013420   -0.00029758    0.00013258
     atom  132 type  4   force =     0.00028452    0.00019583    0.00018906
     atom  133 type  4   force =    -0.00030237    0.00002046    0.00019938
     atom  134 type  4   force =    -0.00014031    0.00030762   -0.00011016
     atom  135 type  4   force =     0.00011220    0.00060490    0.00003562
     atom  136 type  4   force =    -0.00058424   -0.00011751    0.00011900
     atom  137 type  3   force =     0.00000442   -0.00007268   -0.00002101
     atom  138 type  3   force =    -0.00029942    0.00014029    0.00024205
     atom  139 type  3   force =     0.00004437   -0.00022543   -0.00005294
     atom  140 type  3   force =    -0.00007934   -0.00073358    0.00052309
     atom  141 type  4   force =     0.00016436   -0.00015370    0.00032743
     atom  142 type  4   force =     0.00008160    0.00010235    0.00036930
     atom  143 type  4   force =    -0.00004796   -0.00001753   -0.00027121
     atom  144 type  4   force =     0.00023300   -0.00039049   -0.00067235
     atom  145 type  4   force =    -0.00009819   -0.00032016   -0.00037716
     atom  146 type  4   force =    -0.00019431   -0.00017672    0.00018729
     atom  147 type  4   force =     0.00020199   -0.00029194    0.00010114
     atom  148 type  4   force =    -0.00041443    0.00036003   -0.00063026
     atom  149 type  4   force =     0.00079612    0.00022416    0.00006962
     atom  150 type  4   force =     0.00007559   -0.00016754   -0.00020437
     atom  151 type  4   force =     0.00012443   -0.00023518    0.00042998
     atom  152 type  4   force =     0.00001107   -0.00019970    0.00010848
     atom  153 type  4   force =    -0.00001648    0.00031334   -0.00008745
     atom  154 type  4   force =    -0.00015054    0.00020895    0.00022179
     atom  155 type  4   force =     0.00010402   -0.00025480   -0.00000464
     atom  156 type  4   force =    -0.00004120    0.00010638    0.00003378
     atom  157 type  4   force =    -0.00748842   -0.00569462   -0.00170862
     atom  158 type  5   force =     0.00661121    0.00635887    0.00229286

     Total force =     0.225654     Total SCF correction =     0.003172
 
     init_run     :      9.37s CPU     10.18s WALL (       1 calls)
     electrons    :   1098.55s CPU   1148.10s WALL (       1 calls)
     forces       :      4.09s CPU      4.45s WALL (       1 calls)
     force_london :      0.08s CPU      0.08s WALL (       1 calls)

     Called by init_run:
     wfcinit      :      5.53s CPU      5.85s WALL (       1 calls)
     potinit      :      0.75s CPU      0.98s WALL (       1 calls)
     hinit0       :      1.78s CPU      1.92s WALL (       1 calls)

     Called by electrons:
     c_bands      :    854.24s CPU    879.25s WALL (      81 calls)
     sum_band     :    153.65s CPU    165.43s WALL (      81 calls)
     v_of_rho     :     18.78s CPU     22.41s WALL (      82 calls)
     newd         :     49.72s CPU     58.69s WALL (      82 calls)
     mix_rho      :     21.28s CPU     21.63s WALL (      81 calls)
     energy_londo :      0.08s CPU      0.08s WALL (       1 calls)

     Called by c_bands:
     init_us_2    :      2.08s CPU      2.14s WALL (     328 calls)
     init_us_2:cp :      2.08s CPU      2.14s WALL (     328 calls)
     regterg      :    837.27s CPU    861.37s WALL (     163 calls)

     Called by *egterg:
     rdiaghg      :    198.64s CPU    210.53s WALL (     578 calls)
     h_psi        :    330.00s CPU    335.68s WALL (     580 calls)
     s_psi        :     49.39s CPU     49.43s WALL (     580 calls)
     g_psi        :      0.37s CPU      0.37s WALL (     415 calls)

     Called by h_psi:
     h_psi:calbec :     86.46s CPU     90.93s WALL (     580 calls)
     vloc_psi     :    190.88s CPU    191.55s WALL (     580 calls)
     add_vuspsi   :     51.95s CPU     52.50s WALL (     580 calls)

     General routines
     calbec       :    128.15s CPU    134.89s WALL (     750 calls)
     fft          :     32.90s CPU     37.33s WALL (    1489 calls)
     ffts         :     13.19s CPU     13.20s WALL (   10085 calls)
     fftw         :    218.00s CPU    218.75s WALL (  278226 calls)
     interpolate  :      1.70s CPU      1.79s WALL (     164 calls)
 
     Parallel routines
 
     PWSCF        :  18m34.05s CPU  19m25.06s WALL

 
   This run was terminated on:  20:19:32  17Nov2025            

=------------------------------------------------------------------------------=
   JOB DONE.
=------------------------------------------------------------------------------=
