
     Program PWSCF v.7.2 starts on 17Nov2025 at 18:58:39 

     This program is part of the open-source Quantum ESPRESSO suite
     for quantum simulation of materials; please cite
         "P. Giannozzi et al., J. Phys.:Condens. Matter 21 395502 (2009);
         "P. Giannozzi et al., J. Phys.:Condens. Matter 29 465901 (2017);
         "P. Giannozzi et al., J. Chem. Phys. 152 154105 (2020);
          URL http://www.quantum-espresso.org", 
     in publications or presentations arising from this work. More details at
     http://www.quantum-espresso.org/quote

     Parallel version (MPI), running on    64 processors

     MPI processes distributed on     4 nodes
     443064 MiB available memory on the printing compute node when the environment starts
 
     Reading input from PWINPUT_atm158_xp

     Current dimensions of program PWSCF are:
     Max number of different atomic species (ntypx) = 10
     Max number of k-points (npk) =  40000
     Max angular momentum in pseudopotentials (lmaxx) =  4
     Presently no symmetry can be used with electric field

     file Ni.pbe-n-rrkjus_psl.1.0.0.UPF: wavefunction(s)  3D renormalized
     file Mn.pbe-spn-rrkjus_psl.0.3.1.UPF: wavefunction(s)  3D renormalized
     file O.pbe-rrkjus.UPF: wavefunction(s)  2S renormalized
     file H.pbe-rrkjus.UPF: wavefunction(s)  1S renormalized

     gamma-point specific algorithms are used
 
     R & G space division:  proc/nbgrp/npool/nimage =      64
     Subspace diagonalization in iterative solution of the eigenvalue problem:
     one sub-group per band group will be used
     custom distributed-memory algorithm (size of sub-group:  7*  7 procs)

 
     Parallelization info
     --------------------
     sticks:   dense  smooth     PW     G-vecs:    dense   smooth      PW
     Min         214      85     20                61830    15614    1928
     Max         216      86     22                61864    15658    1982
     Sum       13727    5503   1375              3958051  1001255  125211
 
     Using Slab Decomposition
 


     bravais-lattice index     =            0
     lattice parameter (alat)  =      17.8532  a.u.
     unit-cell volume          =   20962.6682 (a.u.)^3
     number of atoms/cell      =          158
     number of atomic types    =            5
     number of electrons       =      1108.00
     number of Kohn-Sham states=          665
     kinetic-energy cutoff     =      50.0000  Ry
     charge density cutoff     =     500.0000  Ry
     scf convergence threshold =      1.0E-06
     mixing beta               =       0.1000
     number of iterations used =            8  local-TF  mixing
     Exchange-correlation=  SLA  PW   PBE  PBE
                           (   1   4   3   4   0   0   0)

     celldm(1)=  17.853155  celldm(2)=   0.000000  celldm(3)=   0.000000
     celldm(4)=   0.000000  celldm(5)=   0.000000  celldm(6)=   0.000000

     crystal axes: (cart. coord. in units of alat)
               a(1) = (   1.000000   0.000000   0.000000 )  
               a(2) = (   0.003237   1.081997   0.000000 )  
               a(3) = (   0.000000   0.000000   3.404673 )  

     reciprocal axes: (cart. coord. in units 2 pi/alat)
               b(1) = (  1.000000 -0.002992  0.000000 )  
               b(2) = (  0.000000  0.924217  0.000000 )  
               b(3) = (  0.000000  0.000000  0.293714 )  


     PseudoPot. # 1 for Ni read from file:
     ~/PSEUDO/Ni.pbe-n-rrkjus_psl.1.0.0.UPF
     MD5 check sum: Not computed, couldn't open file
     Pseudo is Ultrasoft + core correction, Zval = 10.0
     Generated using "atomic" code by A. Dal Corso  v.5.1.2
     Using radial grid of 1195 points,  6 beta functions with: 
                l(1) =   0
                l(2) =   0
                l(3) =   1
                l(4) =   1
                l(5) =   2
                l(6) =   2
     Q(r) pseudized with 0 coefficients 


     PseudoPot. # 2 for Mn read from file:
     ~/PSEUDO/Mn.pbe-spn-rrkjus_psl.0.3.1.UPF
     MD5 check sum: Not computed, couldn't open file
     Pseudo is Ultrasoft + core correction, Zval = 15.0
     Generated using &quot;atomic&quot; code by A. Dal Corso  v.6.2.2
     Using radial grid of 1187 points,  6 beta functions with: 
                l(1) =   0
                l(2) =   0
                l(3) =   1
                l(4) =   1
                l(5) =   2
                l(6) =   2
     Q(r) pseudized with 0 coefficients 


     PseudoPot. # 3 for P  read from file:
     ~/PSEUDO/P.pbe-n-rrkjus_psl.1.0.0.UPF
     MD5 check sum: Not computed, couldn't open file
     Pseudo is Ultrasoft + core correction, Zval =  5.0
     Generated using "atomic" code by A. Dal Corso  v.5.1
     Using radial grid of 1147 points,  6 beta functions with: 
                l(1) =   0
                l(2) =   0
                l(3) =   1
                l(4) =   1
                l(5) =   2
                l(6) =   2
     Q(r) pseudized with 0 coefficients 


     PseudoPot. # 4 for O  read from file:
     ~/PSEUDO/O.pbe-rrkjus.UPF
     MD5 check sum: Not computed, couldn't open file
     Pseudo is Ultrasoft, Zval =  6.0
     Generated by new atomic code, or converted to UPF format
     Using radial grid of 1269 points,  4 beta functions with: 
                l(1) =   0
                l(2) =   0
                l(3) =   1
                l(4) =   1
     Q(r) pseudized with 0 coefficients 


     PseudoPot. # 5 for H  read from file:
     ~/PSEUDO/H.pbe-rrkjus.UPF
     MD5 check sum: Not computed, couldn't open file
     Pseudo is Ultrasoft, Zval =  1.0
     Generated by new atomic code, or converted to UPF format
     Using radial grid of 1061 points,  2 beta functions with: 
                l(1) =   0
                l(2) =   0
     Q(r) pseudized with 0 coefficients 


     atomic species   valence    mass     pseudopotential
     Ni               10.00    58.69300     Ni( 1.00)
     Mn               15.00    54.93800     Mn( 1.00)
     P                 5.00    30.97300     P ( 1.00)
     O                 6.00    15.99900     O ( 1.00)
     H                 1.00     1.00790     H ( 1.00)

     Starting magnetic structure 
     atomic species   magnetization
     Ni              1.000
     Mn              1.000
     P               1.000
     O               1.000
     H               0.000

     No symmetry found



   Cartesian axes

     site n.     atom                  positions (alat units)
         1        Ni     tau(   1) = (   0.2448189   0.8359134   0.1216996  )
         2        Ni     tau(   2) = (   0.4920952   0.7731948   0.4438949  )
         3        Mn     tau(   3) = (   0.0113021   0.2918949   0.1160512  )
         4        Ni     tau(   4) = (   0.2586115   0.2268566   0.4417628  )
         5        Ni     tau(   5) = (   1.0019827   1.0705803   0.2835623  )
         6        Ni     tau(   6) = (   0.2518099   0.5339061   0.2823483  )
         7        Ni     tau(   7) = (   0.7400999   0.8349186   0.1225624  )
         8        Mn     tau(   8) = (   0.9886961   0.7700845   0.4492175  )
         9        Mn     tau(   9) = (   0.5113421   0.2944667   0.1158892  )
        10        Ni     tau(  10) = (   0.7560857   0.2263843   0.4422798  )
        11        Ni     tau(  11) = (   0.5009386   1.0712238   0.2822610  )
        12        Ni     tau(  12) = (   0.7496978   0.5336600   0.2834396  )
        13        P      tau(  13) = (   0.2147792   0.9686896   0.4382665  )
        14        P      tau(  14) = (   0.4607377   0.6441916   0.1265334  )
        15        P      tau(  15) = (   0.2883218   0.0913464   0.1265752  )
        16        P      tau(  16) = (   0.0408981   0.4221836   0.4354960  )
        17        O      tau(  17) = (   0.1380864   0.9007819   0.3023220  )
        18        O      tau(  18) = (   0.3817439   0.7113683   0.2624610  )
        19        O      tau(  19) = (   0.3638364   0.1608547   0.2624417  )
        20        O      tau(  20) = (   0.1207568   0.3545755   0.3021219  )
        21        O      tau(  21) = (   0.1552194   0.8797563   0.5625160  )
        22        O      tau(  22) = (   0.4022820   0.7317969   0.0010585  )
        23        O      tau(  23) = (   0.3454844   0.1823965   0.0026336  )
        24        O      tau(  24) = (   0.1017019   0.3344979   0.5594858  )
        25        O      tau(  25) = (   0.0970074   0.5770714   0.4346455  )
        26        O      tau(  26) = (   0.3534166   1.0203677   0.1270707  )
        27        O      tau(  27) = (   0.3778024   0.4172402   0.4261028  )
        28        O      tau(  28) = (   0.1256171   0.0954063   0.1372153  )
        29        O      tau(  29) = (   0.1232168   0.6482422   0.1385172  )
        30        O      tau(  30) = (   0.4028533   0.4897833   0.1289718  )
        31        O      tau(  31) = (   0.1511050   0.0405554   0.4369979  )
        32        O      tau(  32) = (   0.3776556   0.9624293   0.4288159  )
        33        P      tau(  33) = (   0.7084770   0.9682119   0.4394551  )
        34        P      tau(  34) = (   0.9603154   0.6409658   0.1292469  )
        35        P      tau(  35) = (   0.7875734   0.0899770   0.1274098  )
        36        P      tau(  36) = (   0.5405152   0.4272620   0.4364455  )
        37        O      tau(  37) = (   0.6323583   0.8977630   0.3036670  )
        38        O      tau(  38) = (   0.8809646   0.7091921   0.2627111  )
        39        O      tau(  39) = (   0.8631054   0.1587239   0.2636487  )
        40        O      tau(  40) = (   0.6202581   0.3578380   0.3034239  )
        41        O      tau(  41) = (   0.6499160   0.8772596   0.5630912  )
        42        O      tau(  42) = (   0.8990171   0.7283464   0.0054426  )
        43        O      tau(  43) = (   0.8448361   0.1806154   0.0030658  )
        44        O      tau(  44) = (   0.6023096   0.3392612   0.5600469  )
        45        O      tau(  45) = (   0.5960222   0.5826131   0.4346340  )
        46        O      tau(  46) = (   0.8515023   1.0184215   0.1281632  )
        47        O      tau(  47) = (   0.8779640   0.4148900   0.4260983  )
        48        O      tau(  48) = (   0.6251159   0.0957170   0.1376895  )
        49        O      tau(  49) = (   0.6237654   0.6481585   0.1378370  )
        50        O      tau(  50) = (   0.9038046   0.4863338   0.1307354  )
        51        O      tau(  51) = (   0.6458737   0.0402574   0.4377979  )
        52        O      tau(  52) = (   0.8712434   0.9635255   0.4285638  )
        53        Ni     tau(  53) = (   0.2420320   0.8169913   0.7491577  )
        54        Ni     tau(  54) = (   0.4893084   0.7542727   1.0713530  )
        55        Mn     tau(  55) = (   0.0085152   0.2729728   0.7435093  )
        56        Ni     tau(  56) = (   0.2558246   0.2079345   1.0692209  )
        57        Ni     tau(  57) = (   0.9991959   1.0516583   0.9110204  )
        58        Ni     tau(  58) = (   0.2490231   0.5149840   0.9098064  )
        59        Ni     tau(  59) = (   0.7373131   0.8159965   0.7500205  )
        60        Mn     tau(  60) = (   0.9859093   0.7511625   1.0766756  )
        61        Mn     tau(  61) = (   0.5085552   0.2755447   0.7433473  )
        62        Ni     tau(  62) = (   0.7532989   0.2074622   1.0697379  )
        63        Ni     tau(  63) = (   0.4981517   1.0523018   0.9097191  )
        64        Ni     tau(  64) = (   0.7469109   0.5147379   0.9108977  )
        65        P      tau(  65) = (   0.2119924   0.9497675   1.0657246  )
        66        P      tau(  66) = (   0.4579509   0.6252695   0.7539915  )
        67        P      tau(  67) = (   0.2855349   0.0724244   0.7540333  )
        68        P      tau(  68) = (   0.0381112   0.4032615   1.0629541  )
        69        O      tau(  69) = (   0.1352995   0.8818598   0.9297801  )
        70        O      tau(  70) = (   0.3789570   0.6924463   0.8899191  )
        71        O      tau(  71) = (   0.3610496   0.1419327   0.8898998  )
        72        O      tau(  72) = (   0.1179700   0.3356534   0.9295800  )
        73        O      tau(  73) = (   0.1524325   0.8608343   1.1899741  )
        74        O      tau(  74) = (   0.3994952   0.7128748   0.6285166  )
        75        O      tau(  75) = (   0.3426976   0.1634744   0.6300917  )
        76        O      tau(  76) = (   0.0989151   0.3155758   1.1869439  )
        77        O      tau(  77) = (   0.0942206   0.5581494   1.0621036  )
        78        O      tau(  78) = (   0.3506297   1.0014456   0.7545288  )
        79        O      tau(  79) = (   0.3750155   0.3983181   1.0535609  )
        80        O      tau(  80) = (   0.1228303   0.0764842   0.7646734  )
        81        O      tau(  81) = (   0.1204299   0.6293201   0.7659753  )
        82        O      tau(  82) = (   0.4000664   0.4708612   0.7564299  )
        83        O      tau(  83) = (   0.1483182   0.0216333   1.0644560  )
        84        O      tau(  84) = (   0.3748687   0.9435072   1.0562740  )
        85        P      tau(  85) = (   0.7056901   0.9492898   1.0669132  )
        86        P      tau(  86) = (   0.9575286   0.6220438   0.7567050  )
        87        P      tau(  87) = (   0.7847866   0.0710549   0.7548679  )
        88        P      tau(  88) = (   0.5377283   0.4083400   1.0639036  )
        89        O      tau(  89) = (   0.6295714   0.8788409   0.9311251  )
        90        O      tau(  90) = (   0.8781778   0.6902700   0.8901692  )
        91        O      tau(  91) = (   0.8603186   0.1398018   0.8911068  )
        92        O      tau(  92) = (   0.6174712   0.3389159   0.9308820  )
        93        O      tau(  93) = (   0.6471291   0.8583376   1.1905493  )
        94        O      tau(  94) = (   0.8962302   0.7094244   0.6329007  )
        95        O      tau(  95) = (   0.8420493   0.1616933   0.6305239  )
        96        O      tau(  96) = (   0.5995227   0.3203391   1.1875050  )
        97        O      tau(  97) = (   0.5932354   0.5636910   1.0620921  )
        98        O      tau(  98) = (   0.8487155   0.9994995   0.7556213  )
        99        O      tau(  99) = (   0.8751772   0.3959680   1.0535564  )
       100        O      tau( 100) = (   0.6223291   0.0767949   0.7651476  )
       101        O      tau( 101) = (   0.6209785   0.6292365   0.7652951  )
       102        O      tau( 102) = (   0.9010178   0.4674118   0.7581935  )
       103        O      tau( 103) = (   0.6430869   0.0213354   1.0652560  )
       104        O      tau( 104) = (   0.8684566   0.9446034   1.0560219  )
       105        Ni     tau( 105) = (   0.2423630   0.7994359   1.3760354  )
       106        Ni     tau( 106) = (   0.4993973   0.7391311   1.6804864  )
       107        Mn     tau( 107) = (   0.0089498   0.2581752   1.3751757  )
       108        Ni     tau( 108) = (   0.2555203   0.1875480   1.7147440  )
       109        Ni     tau( 109) = (   1.0007969   1.0339332   1.5383184  )
       110        Ni     tau( 110) = (   0.2460225   0.4956919   1.5440603  )
       111        Ni     tau( 111) = (   0.7359931   0.8001260   1.3774046  )
       112        Mn     tau( 112) = (   0.9973763   0.7324626   1.6978130  )
       113        Mn     tau( 113) = (   0.5067604   0.2591059   1.3740250  )
       114        Ni     tau( 114) = (   0.7428480   0.1952512   1.6837944  )
       115        Ni     tau( 115) = (   0.4987731   1.0381547   1.5410978  )
       116        Ni     tau( 116) = (   0.7427219   0.4966249   1.5424991  )
       117        P      tau( 117) = (   0.2131870   0.9257933   1.6916587  )
       118        P      tau( 118) = (   0.4559119   0.6044880   1.3805992  )
       119        P      tau( 119) = (   0.2850881   0.0578616   1.3821893  )
       120        P      tau( 120) = (   0.0323162   0.3787027   1.6982374  )
       121        O      tau( 121) = (   0.1347071   0.8640073   1.5492256  )
       122        O      tau( 122) = (   0.3772882   0.6717903   1.5162818  )
       123        O      tau( 123) = (   0.3593898   0.1286559   1.5165302  )
       124        O      tau( 124) = (   0.1109838   0.3262818   1.5555432  )
       125        O      tau( 125) = (   0.1539942   0.8264869   1.8062921  )
       126        O      tau( 126) = (   0.3971693   0.6924762   1.2552325  )
       127        O      tau( 127) = (   0.3421563   0.1469372   1.2562216  )
       128        O      tau( 128) = (   0.0898411   0.2811759   1.8130034  )
       129        O      tau( 129) = (   0.0853118   0.5370915   1.7040182  )
       130        O      tau( 130) = (   0.3491208   0.9864055   1.3828534  )
       131        O      tau( 131) = (   0.3706482   0.3857699   1.6886489  )
       132        O      tau( 132) = (   0.1216767   0.0634913   1.3916025  )
       133        O      tau( 133) = (   0.1193436   0.6078482   1.3967511  )
       134        O      tau( 134) = (   0.3973442   0.4503950   1.3837012  )
       135        O      tau( 135) = (   0.1487970  -0.0030508   1.6922434  )
       136        O      tau( 136) = (   0.3761859   0.9190075   1.6784506  )
       137        P      tau( 137) = (   0.7099731   0.9276212   1.6969971  )
       138        P      tau( 138) = (   0.9565988   0.6017915   1.3869988  )
       139        P      tau( 139) = (   0.7850320   0.0557964   1.3814017  )
       140        P      tau( 140) = (   0.5341584   0.3909479   1.7019963  )
       141        O      tau( 141) = (   0.6329335   0.8686924   1.5518520  )
       142        O      tau( 142) = (   0.8798187   0.6672706   1.5242031  )
       143        O      tau( 143) = (   0.8611821   0.1236672   1.5173706  )
       144        O      tau( 144) = (   0.6104268   0.3268639   1.5598222  )
       145        O      tau( 145) = (   0.6499567   0.8294727   1.8098310  )
       146        O      tau( 146) = (   0.8965323   0.6932672   1.2652725  )
       147        O      tau( 147) = (   0.8423135   0.1469704   1.2572506  )
       148        O      tau( 148) = (   0.5974078   0.2970599   1.8177101  )
       149        O      tau( 149) = (   0.5903229   0.5473287   1.6970866  )
       150        O      tau( 150) = (   0.8477944   0.9841351   1.3810722  )
       151        O      tau( 151) = (   0.8683058   0.3760079   1.6828064  )
       152        O      tau( 152) = (   0.6224566   0.0643770   1.3939749  )
       153        O      tau( 153) = (   0.6187923   0.6106371   1.3938596  )
       154        O      tau( 154) = (   0.8971193   0.4481891   1.3841611  )
       155        O      tau( 155) = (   0.6540414   0.0026232   1.6976259  )
       156        O      tau( 156) = (   0.8743841   0.9191802   1.6841294  )
       157        O      tau( 157) = (   0.3743733   0.1030868   1.8397344  )
       158        H      tau( 158) = (   0.4573510   0.1635293   1.8648188  )

     -------------------------------------------------
     Parameters for Dispersion (Grimme-D2) Correction:
     -------------------------------------------------
       atom      VdW radius       C_6     

        Ni         2.952        374.666
        Mn         2.952        374.666
        P          3.222        271.980
        O          2.536         24.284
        H          1.892          4.857

     number of k points=     1  Gaussian smearing, width (Ry)=  0.0100
                       cart. coord. in units 2pi/alat
        k(    1) = (   0.0000000   0.0000000   0.0000000), wk =   1.0000000

     Dense  grid:  1979026 G-vectors     FFT dimensions: ( 128, 144, 450)

     Smooth grid:   500628 G-vectors     FFT dimensions: (  81,  90, 288)

     Estimated max dynamical RAM per process >     333.40 MB

     Estimated total dynamical RAM >      20.84 GB

     Check: negative core charge=   -0.000002
     Generating pointlists ...
     new r_m :   0.0792 (alat units)  1.4143 (a.u.) for type    1
     new r_m :   0.0876 (alat units)  1.5646 (a.u.) for type    2
     new r_m :   0.0665 (alat units)  1.1867 (a.u.) for type    3
     new r_m :   0.0436 (alat units)  0.7783 (a.u.) for type    4
     new r_m :   0.0436 (alat units)  0.7783 (a.u.) for type    5

     Initial potential from superposition of free atoms

     starting charge    1107.8886, renormalised to    1108.0000

     negative rho (up, down):  1.530E-03 4.667E-04
 
     Adding external electric field

     Computed dipole along edir(3) : 
        Dipole                1.6307 Ry au,          4.1449 Debye
        Dipole field          0.0010 Ry au, 
 
        Potential amp.       -0.1070 Ry
        Total length         54.7057 bohr
 
 
     Adding external electric field

     Computed dipole along edir(3) : 
        Dipole                1.6307 Ry au,          4.1449 Debye
        Dipole field          0.0010 Ry au, 
 
        Potential amp.       -0.1070 Ry
        Total length         54.7057 bohr
 
     Starting wfcs are  818 randomized atomic wfcs

     total cpu time spent up to now is       11.6 secs

     Self-consistent Calculation

     iteration #  1     ecut=    50.00 Ry     beta= 0.10
     Davidson diagonalization with overlap
     ethr =  1.00E-02,  avg # of iterations =  5.5

     negative rho (up, down):  4.624E-01 1.629E-06
 
     Adding external electric field

     Computed dipole along edir(3) : 
        Dipole               -3.0312 Ry au,         -7.7047 Debye
        Dipole field         -0.0018 Ry au, 
 
        Potential amp.        0.1988 Ry
        Total length         54.7057 bohr
 
 
     Adding external electric field

     Computed dipole along edir(3) : 
        Dipole               -3.0312 Ry au,         -7.7047 Debye
        Dipole field         -0.0018 Ry au, 
 
        Potential amp.        0.1988 Ry
        Total length         54.7057 bohr
 

     total cpu time spent up to now is       42.8 secs

     total energy              =   -7860.89587084 Ry
     estimated scf accuracy    <     749.93382341 Ry

     total magnetization       =   222.00 Bohr mag/cell
     absolute magnetization    =   319.61 Bohr mag/cell

     iteration #  2     ecut=    50.00 Ry     beta= 0.10
     Davidson diagonalization with overlap
     ethr =  1.00E-02,  avg # of iterations =  2.0

     negative rho (up, down):  4.153E-01 1.611E-06
 
     Adding external electric field

     Computed dipole along edir(3) : 
        Dipole               -2.4652 Ry au,         -6.2658 Debye
        Dipole field         -0.0015 Ry au, 
 
        Potential amp.        0.1617 Ry
        Total length         54.7057 bohr
 
 
     Adding external electric field

     Computed dipole along edir(3) : 
        Dipole               -2.4652 Ry au,         -6.2658 Debye
        Dipole field         -0.0015 Ry au, 
 
        Potential amp.        0.1617 Ry
        Total length         54.7057 bohr
 

     total cpu time spent up to now is       60.5 secs

     total energy              =   -7944.15011986 Ry
     estimated scf accuracy    <     133.98434699 Ry

     total magnetization       =   157.89 Bohr mag/cell
     absolute magnetization    =   207.80 Bohr mag/cell

     iteration #  3     ecut=    50.00 Ry     beta= 0.10
     Davidson diagonalization with overlap
     ethr =  1.00E-02,  avg # of iterations =  1.0

     negative rho (up, down):  3.556E-01 1.478E-06
 
     Adding external electric field

     Computed dipole along edir(3) : 
        Dipole               -1.9891 Ry au,         -5.0557 Debye
        Dipole field         -0.0012 Ry au, 
 
        Potential amp.        0.1305 Ry
        Total length         54.7057 bohr
 
 
     Adding external electric field

     Computed dipole along edir(3) : 
        Dipole               -1.9891 Ry au,         -5.0557 Debye
        Dipole field         -0.0012 Ry au, 
 
        Potential amp.        0.1305 Ry
        Total length         54.7057 bohr
 

     total cpu time spent up to now is       74.0 secs

     total energy              =   -7979.18657297 Ry
     estimated scf accuracy    <     101.02550116 Ry

     total magnetization       =   137.42 Bohr mag/cell
     absolute magnetization    =   188.25 Bohr mag/cell

     iteration #  4     ecut=    50.00 Ry     beta= 0.10
     Davidson diagonalization with overlap
     ethr =  9.12E-03,  avg # of iterations =  1.0

     negative rho (up, down):  2.753E-01 4.989E-08
 
     Adding external electric field

     Computed dipole along edir(3) : 
        Dipole               -1.9389 Ry au,         -4.9282 Debye
        Dipole field         -0.0012 Ry au, 
 
        Potential amp.        0.1272 Ry
        Total length         54.7057 bohr
 
 
     Adding external electric field

     Computed dipole along edir(3) : 
        Dipole               -1.9389 Ry au,         -4.9282 Debye
        Dipole field         -0.0012 Ry au, 
 
        Potential amp.        0.1272 Ry
        Total length         54.7057 bohr
 

     total cpu time spent up to now is       87.1 secs

     total energy              =   -8010.33089762 Ry
     estimated scf accuracy    <      79.68450692 Ry

     total magnetization       =   118.65 Bohr mag/cell
     absolute magnetization    =   172.71 Bohr mag/cell

     iteration #  5     ecut=    50.00 Ry     beta= 0.10
     Davidson diagonalization with overlap
     ethr =  7.19E-03,  avg # of iterations =  1.0

     negative rho (up, down):  5.025E-03 0.000E+00
 
     Adding external electric field

     Computed dipole along edir(3) : 
        Dipole               -1.1980 Ry au,         -3.0450 Debye
        Dipole field         -0.0007 Ry au, 
 
        Potential amp.        0.0786 Ry
        Total length         54.7057 bohr
 
 
     Adding external electric field

     Computed dipole along edir(3) : 
        Dipole               -1.1980 Ry au,         -3.0450 Debye
        Dipole field         -0.0007 Ry au, 
 
        Potential amp.        0.0786 Ry
        Total length         54.7057 bohr
 

     total cpu time spent up to now is      100.6 secs

     total energy              =   -8069.73986288 Ry
     estimated scf accuracy    <      61.15793733 Ry

     total magnetization       =   106.00 Bohr mag/cell
     absolute magnetization    =   157.44 Bohr mag/cell

     iteration #  6     ecut=    50.00 Ry     beta= 0.10
     Davidson diagonalization with overlap
     ethr =  5.52E-03,  avg # of iterations =  1.5

     negative rho (up, down):  1.417E-05 6.685E-05
 
     Adding external electric field

     Computed dipole along edir(3) : 
        Dipole               -0.8321 Ry au,         -2.1150 Debye
        Dipole field         -0.0005 Ry au, 
 
        Potential amp.        0.0546 Ry
        Total length         54.7057 bohr
 
 
     Adding external electric field

     Computed dipole along edir(3) : 
        Dipole               -0.8321 Ry au,         -2.1150 Debye
        Dipole field         -0.0005 Ry au, 
 
        Potential amp.        0.0546 Ry
        Total length         54.7057 bohr
 

     total cpu time spent up to now is      115.8 secs

     total energy              =   -8076.91710203 Ry
     estimated scf accuracy    <       9.16755544 Ry

     total magnetization       =    95.27 Bohr mag/cell
     absolute magnetization    =   123.10 Bohr mag/cell

     iteration #  7     ecut=    50.00 Ry     beta= 0.10
     Davidson diagonalization with overlap
     ethr =  8.27E-04,  avg # of iterations =  6.0

     negative rho (up, down):  9.675E-06 4.176E-05
 
     Adding external electric field

     Computed dipole along edir(3) : 
        Dipole               -0.8451 Ry au,         -2.1479 Debye
        Dipole field         -0.0005 Ry au, 
 
        Potential amp.        0.0554 Ry
        Total length         54.7057 bohr
 
 
     Adding external electric field

     Computed dipole along edir(3) : 
        Dipole               -0.8451 Ry au,         -2.1479 Debye
        Dipole field         -0.0005 Ry au, 
 
        Potential amp.        0.0554 Ry
        Total length         54.7057 bohr
 

     total cpu time spent up to now is      139.0 secs

     total energy              =   -8078.83037598 Ry
     estimated scf accuracy    <      25.25339458 Ry

     total magnetization       =    70.01 Bohr mag/cell
     absolute magnetization    =    87.65 Bohr mag/cell

     iteration #  8     ecut=    50.00 Ry     beta= 0.10
     Davidson diagonalization with overlap
     ethr =  8.27E-04,  avg # of iterations =  1.0

     negative rho (up, down):  1.375E-05 4.998E-05
 
     Adding external electric field

     Computed dipole along edir(3) : 
        Dipole               -0.8836 Ry au,         -2.2459 Debye
        Dipole field         -0.0005 Ry au, 
 
        Potential amp.        0.0580 Ry
        Total length         54.7057 bohr
 
 
     Adding external electric field

     Computed dipole along edir(3) : 
        Dipole               -0.8836 Ry au,         -2.2459 Debye
        Dipole field         -0.0005 Ry au, 
 
        Potential amp.        0.0580 Ry
        Total length         54.7057 bohr
 

     total cpu time spent up to now is      152.4 secs

     total energy              =   -8078.44169571 Ry
     estimated scf accuracy    <      27.57022222 Ry

     total magnetization       =    69.83 Bohr mag/cell
     absolute magnetization    =    87.18 Bohr mag/cell

     iteration #  9     ecut=    50.00 Ry     beta= 0.10
     Davidson diagonalization with overlap
     ethr =  8.27E-04,  avg # of iterations =  1.0

     negative rho (up, down):  4.930E-05 8.688E-05
 
     Adding external electric field

     Computed dipole along edir(3) : 
        Dipole               -1.0692 Ry au,         -2.7175 Debye
        Dipole field         -0.0006 Ry au, 
 
        Potential amp.        0.0701 Ry
        Total length         54.7057 bohr
 
 
     Adding external electric field

     Computed dipole along edir(3) : 
        Dipole               -1.0692 Ry au,         -2.7175 Debye
        Dipole field         -0.0006 Ry au, 
 
        Potential amp.        0.0701 Ry
        Total length         54.7057 bohr
 

     total cpu time spent up to now is      165.9 secs

     total energy              =   -8077.44394888 Ry
     estimated scf accuracy    <      21.91126445 Ry

     total magnetization       =    71.63 Bohr mag/cell
     absolute magnetization    =    88.10 Bohr mag/cell

     iteration # 10     ecut=    50.00 Ry     beta= 0.10
     Davidson diagonalization with overlap
     ethr =  8.27E-04,  avg # of iterations =  2.0

     negative rho (up, down):  3.929E-05 4.505E-05
 
     Adding external electric field

     Computed dipole along edir(3) : 
        Dipole               -1.0812 Ry au,         -2.7482 Debye
        Dipole field         -0.0006 Ry au, 
 
        Potential amp.        0.0709 Ry
        Total length         54.7057 bohr
 
 
     Adding external electric field

     Computed dipole along edir(3) : 
        Dipole               -1.0812 Ry au,         -2.7482 Debye
        Dipole field         -0.0006 Ry au, 
 
        Potential amp.        0.0709 Ry
        Total length         54.7057 bohr
 

     total cpu time spent up to now is      180.3 secs

     total energy              =   -8078.10893508 Ry
     estimated scf accuracy    <       1.53873382 Ry

     total magnetization       =    96.04 Bohr mag/cell
     absolute magnetization    =   107.77 Bohr mag/cell

     iteration # 11     ecut=    50.00 Ry     beta= 0.10
     Davidson diagonalization with overlap
     ethr =  1.39E-04,  avg # of iterations = 15.5

     negative rho (up, down):  8.699E-06 5.023E-05
 
     Adding external electric field

     Computed dipole along edir(3) : 
        Dipole               -1.0361 Ry au,         -2.6334 Debye
        Dipole field         -0.0006 Ry au, 
 
        Potential amp.        0.0680 Ry
        Total length         54.7057 bohr
 
 
     Adding external electric field

     Computed dipole along edir(3) : 
        Dipole               -1.0361 Ry au,         -2.6334 Debye
        Dipole field         -0.0006 Ry au, 
 
        Potential amp.        0.0680 Ry
        Total length         54.7057 bohr
 

     total cpu time spent up to now is      207.7 secs

     total energy              =   -8078.17807090 Ry
     estimated scf accuracy    <       1.19851458 Ry

     total magnetization       =    97.81 Bohr mag/cell
     absolute magnetization    =   108.28 Bohr mag/cell

     iteration # 12     ecut=    50.00 Ry     beta= 0.10
     Davidson diagonalization with overlap
     ethr =  1.08E-04,  avg # of iterations =  2.0

     negative rho (up, down):  1.457E-07 5.354E-06
 
     Adding external electric field

     Computed dipole along edir(3) : 
        Dipole               -1.0006 Ry au,         -2.5433 Debye
        Dipole field         -0.0006 Ry au, 
 
        Potential amp.        0.0656 Ry
        Total length         54.7057 bohr
 
 
     Adding external electric field

     Computed dipole along edir(3) : 
        Dipole               -1.0006 Ry au,         -2.5433 Debye
        Dipole field         -0.0006 Ry au, 
 
        Potential amp.        0.0656 Ry
        Total length         54.7057 bohr
 

     total cpu time spent up to now is      222.5 secs

     total energy              =   -8078.27948310 Ry
     estimated scf accuracy    <       0.99668461 Ry

     total magnetization       =    96.42 Bohr mag/cell
     absolute magnetization    =   105.58 Bohr mag/cell

     iteration # 13     ecut=    50.00 Ry     beta= 0.10
     Davidson diagonalization with overlap
     ethr =  9.00E-05,  avg # of iterations =  2.0

     negative rho (up, down):  9.756E-08 1.576E-06
 
     Adding external electric field

     Computed dipole along edir(3) : 
        Dipole               -0.9659 Ry au,         -2.4551 Debye
        Dipole field         -0.0006 Ry au, 
 
        Potential amp.        0.0634 Ry
        Total length         54.7057 bohr
 
 
     Adding external electric field

     Computed dipole along edir(3) : 
        Dipole               -0.9659 Ry au,         -2.4551 Debye
        Dipole field         -0.0006 Ry au, 
 
        Potential amp.        0.0634 Ry
        Total length         54.7057 bohr
 

     total cpu time spent up to now is      237.8 secs

     total energy              =   -8078.35666329 Ry
     estimated scf accuracy    <       2.80796867 Ry

     total magnetization       =    90.92 Bohr mag/cell
     absolute magnetization    =    98.91 Bohr mag/cell

     iteration # 14     ecut=    50.00 Ry     beta= 0.10
     Davidson diagonalization with overlap
     ethr =  9.00E-05,  avg # of iterations =  1.5

     negative rho (up, down):  1.994E-07 6.887E-06
 
     Adding external electric field

     Computed dipole along edir(3) : 
        Dipole               -1.0078 Ry au,         -2.5615 Debye
        Dipole field         -0.0006 Ry au, 
 
        Potential amp.        0.0661 Ry
        Total length         54.7057 bohr
 
 
     Adding external electric field

     Computed dipole along edir(3) : 
        Dipole               -1.0078 Ry au,         -2.5615 Debye
        Dipole field         -0.0006 Ry au, 
 
        Potential amp.        0.0661 Ry
        Total length         54.7057 bohr
 

     total cpu time spent up to now is      251.4 secs

     total energy              =   -8078.30164776 Ry
     estimated scf accuracy    <       5.30291401 Ry

     total magnetization       =    87.83 Bohr mag/cell
     absolute magnetization    =    96.33 Bohr mag/cell

     iteration # 15     ecut=    50.00 Ry     beta= 0.10
     Davidson diagonalization with overlap
     ethr =  9.00E-05,  avg # of iterations =  2.0

     negative rho (up, down):  2.393E-07 6.435E-05
 
     Adding external electric field

     Computed dipole along edir(3) : 
        Dipole               -1.0477 Ry au,         -2.6630 Debye
        Dipole field         -0.0006 Ry au, 
 
        Potential amp.        0.0687 Ry
        Total length         54.7057 bohr
 
 
     Adding external electric field

     Computed dipole along edir(3) : 
        Dipole               -1.0477 Ry au,         -2.6630 Debye
        Dipole field         -0.0006 Ry au, 
 
        Potential amp.        0.0687 Ry
        Total length         54.7057 bohr
 

     total cpu time spent up to now is      265.9 secs

     total energy              =   -8078.43098784 Ry
     estimated scf accuracy    <       1.35173233 Ry

     total magnetization       =    93.67 Bohr mag/cell
     absolute magnetization    =   100.83 Bohr mag/cell

     iteration # 16     ecut=    50.00 Ry     beta= 0.10
     Davidson diagonalization with overlap
     ethr =  9.00E-05,  avg # of iterations =  2.0

     negative rho (up, down):  2.558E-07 1.834E-04
 
     Adding external electric field

     Computed dipole along edir(3) : 
        Dipole               -1.0618 Ry au,         -2.6989 Debye
        Dipole field         -0.0006 Ry au, 
 
        Potential amp.        0.0696 Ry
        Total length         54.7057 bohr
 
 
     Adding external electric field

     Computed dipole along edir(3) : 
        Dipole               -1.0618 Ry au,         -2.6989 Debye
        Dipole field         -0.0006 Ry au, 
 
        Potential amp.        0.0696 Ry
        Total length         54.7057 bohr
 

     total cpu time spent up to now is      280.3 secs

     total energy              =   -8078.48166781 Ry
     estimated scf accuracy    <       0.60603668 Ry

     total magnetization       =    95.37 Bohr mag/cell
     absolute magnetization    =    99.92 Bohr mag/cell

     iteration # 17     ecut=    50.00 Ry     beta= 0.10
     Davidson diagonalization with overlap
     ethr =  5.47E-05,  avg # of iterations =  2.0

     negative rho (up, down):  8.926E-07 2.784E-04
 
     Adding external electric field

     Computed dipole along edir(3) : 
        Dipole               -1.0913 Ry au,         -2.7739 Debye
        Dipole field         -0.0007 Ry au, 
 
        Potential amp.        0.0716 Ry
        Total length         54.7057 bohr
 
 
     Adding external electric field

     Computed dipole along edir(3) : 
        Dipole               -1.0913 Ry au,         -2.7739 Debye
        Dipole field         -0.0007 Ry au, 
 
        Potential amp.        0.0716 Ry
        Total length         54.7057 bohr
 

     total cpu time spent up to now is      295.2 secs

     total energy              =   -8078.49820023 Ry
     estimated scf accuracy    <       0.44508123 Ry

     total magnetization       =    95.08 Bohr mag/cell
     absolute magnetization    =    98.47 Bohr mag/cell

     iteration # 18     ecut=    50.00 Ry     beta= 0.10
     Davidson diagonalization with overlap
     ethr =  4.02E-05,  avg # of iterations =  2.0

     negative rho (up, down):  2.445E-06 2.610E-04
 
     Adding external electric field

     Computed dipole along edir(3) : 
        Dipole               -1.0772 Ry au,         -2.7380 Debye
        Dipole field         -0.0006 Ry au, 
 
        Potential amp.        0.0707 Ry
        Total length         54.7057 bohr
 
 
     Adding external electric field

     Computed dipole along edir(3) : 
        Dipole               -1.0772 Ry au,         -2.7380 Debye
        Dipole field         -0.0006 Ry au, 
 
        Potential amp.        0.0707 Ry
        Total length         54.7057 bohr
 

     total cpu time spent up to now is      310.1 secs

     total energy              =   -8078.53282908 Ry
     estimated scf accuracy    <       0.20830008 Ry

     total magnetization       =    97.04 Bohr mag/cell
     absolute magnetization    =    99.67 Bohr mag/cell

     iteration # 19     ecut=    50.00 Ry     beta= 0.10
     Davidson diagonalization with overlap
     ethr =  1.88E-05,  avg # of iterations = 25.5

     negative rho (up, down):  1.793E-05 2.123E-04
 
     Adding external electric field

     Computed dipole along edir(3) : 
        Dipole               -1.0466 Ry au,         -2.6601 Debye
        Dipole field         -0.0006 Ry au, 
 
        Potential amp.        0.0686 Ry
        Total length         54.7057 bohr
 
 
     Adding external electric field

     Computed dipole along edir(3) : 
        Dipole               -1.0466 Ry au,         -2.6601 Debye
        Dipole field         -0.0006 Ry au, 
 
        Potential amp.        0.0686 Ry
        Total length         54.7057 bohr
 

     total cpu time spent up to now is      353.0 secs

     total energy              =   -8078.55793545 Ry
     estimated scf accuracy    <       0.13243203 Ry

     total magnetization       =    97.03 Bohr mag/cell
     absolute magnetization    =    98.93 Bohr mag/cell

     iteration # 20     ecut=    50.00 Ry     beta= 0.10
     Davidson diagonalization with overlap
     ethr =  1.20E-05,  avg # of iterations =  2.0

     negative rho (up, down):  2.784E-05 8.404E-05
 
     Adding external electric field

     Computed dipole along edir(3) : 
        Dipole               -0.9932 Ry au,         -2.5245 Debye
        Dipole field         -0.0006 Ry au, 
 
        Potential amp.        0.0651 Ry
        Total length         54.7057 bohr
 
 
     Adding external electric field

     Computed dipole along edir(3) : 
        Dipole               -0.9932 Ry au,         -2.5245 Debye
        Dipole field         -0.0006 Ry au, 
 
        Potential amp.        0.0651 Ry
        Total length         54.7057 bohr
 

     total cpu time spent up to now is      367.8 secs

     total energy              =   -8078.56531173 Ry
     estimated scf accuracy    <       0.05830103 Ry

     total magnetization       =    97.24 Bohr mag/cell
     absolute magnetization    =    98.60 Bohr mag/cell

     iteration # 21     ecut=    50.00 Ry     beta= 0.10
     Davidson diagonalization with overlap
     c_bands:  1 eigenvalues not converged
     ethr =  5.26E-06,  avg # of iterations = 11.0

     negative rho (up, down):  2.187E-05 4.540E-05
 
     Adding external electric field

     Computed dipole along edir(3) : 
        Dipole               -0.9296 Ry au,         -2.3627 Debye
        Dipole field         -0.0006 Ry au, 
 
        Potential amp.        0.0610 Ry
        Total length         54.7057 bohr
 
 
     Adding external electric field

     Computed dipole along edir(3) : 
        Dipole               -0.9296 Ry au,         -2.3627 Debye
        Dipole field         -0.0006 Ry au, 
 
        Potential amp.        0.0610 Ry
        Total length         54.7057 bohr
 

     total cpu time spent up to now is      387.6 secs

     total energy              =   -8078.56478685 Ry
     estimated scf accuracy    <       0.03542404 Ry

     total magnetization       =    97.20 Bohr mag/cell
     absolute magnetization    =    98.42 Bohr mag/cell

     iteration # 22     ecut=    50.00 Ry     beta= 0.10
     Davidson diagonalization with overlap
     c_bands:  1 eigenvalues not converged
     ethr =  3.20E-06,  avg # of iterations = 12.0

     negative rho (up, down):  2.065E-05 3.496E-05
 
     Adding external electric field

     Computed dipole along edir(3) : 
        Dipole               -0.9387 Ry au,         -2.3858 Debye
        Dipole field         -0.0006 Ry au, 
 
        Potential amp.        0.0616 Ry
        Total length         54.7057 bohr
 
 
     Adding external electric field

     Computed dipole along edir(3) : 
        Dipole               -0.9387 Ry au,         -2.3858 Debye
        Dipole field         -0.0006 Ry au, 
 
        Potential amp.        0.0616 Ry
        Total length         54.7057 bohr
 

     total cpu time spent up to now is      406.8 secs

     total energy              =   -8078.56645786 Ry
     estimated scf accuracy    <       0.06306465 Ry

     total magnetization       =    97.23 Bohr mag/cell
     absolute magnetization    =    98.32 Bohr mag/cell

     iteration # 23     ecut=    50.00 Ry     beta= 0.10
     Davidson diagonalization with overlap
     ethr =  3.20E-06,  avg # of iterations = 18.0

     negative rho (up, down):  1.007E-05 2.036E-05
 
     Adding external electric field

     Computed dipole along edir(3) : 
        Dipole               -0.9118 Ry au,         -2.3176 Debye
        Dipole field         -0.0005 Ry au, 
 
        Potential amp.        0.0598 Ry
        Total length         54.7057 bohr
 
 
     Adding external electric field

     Computed dipole along edir(3) : 
        Dipole               -0.9118 Ry au,         -2.3176 Debye
        Dipole field         -0.0005 Ry au, 
 
        Potential amp.        0.0598 Ry
        Total length         54.7057 bohr
 

     total cpu time spent up to now is      432.8 secs

     total energy              =   -8078.56583541 Ry
     estimated scf accuracy    <       0.06187415 Ry

     total magnetization       =    97.18 Bohr mag/cell
     absolute magnetization    =    98.29 Bohr mag/cell

     iteration # 24     ecut=    50.00 Ry     beta= 0.10
     Davidson diagonalization with overlap
     ethr =  3.20E-06,  avg # of iterations =  2.0

     negative rho (up, down):  3.698E-06 9.761E-06
 
     Adding external electric field

     Computed dipole along edir(3) : 
        Dipole               -0.8469 Ry au,         -2.1527 Debye
        Dipole field         -0.0005 Ry au, 
 
        Potential amp.        0.0555 Ry
        Total length         54.7057 bohr
 
 
     Adding external electric field

     Computed dipole along edir(3) : 
        Dipole               -0.8469 Ry au,         -2.1527 Debye
        Dipole field         -0.0005 Ry au, 
 
        Potential amp.        0.0555 Ry
        Total length         54.7057 bohr
 

     total cpu time spent up to now is      446.5 secs

     total energy              =   -8078.56448621 Ry
     estimated scf accuracy    <       0.05821128 Ry

     total magnetization       =    97.18 Bohr mag/cell
     absolute magnetization    =    98.26 Bohr mag/cell

     iteration # 25     ecut=    50.00 Ry     beta= 0.10
     Davidson diagonalization with overlap
     ethr =  3.20E-06,  avg # of iterations =  2.0

     negative rho (up, down):  5.932E-06 1.044E-05
 
     Adding external electric field

     Computed dipole along edir(3) : 
        Dipole               -0.8075 Ry au,         -2.0526 Debye
        Dipole field         -0.0005 Ry au, 
 
        Potential amp.        0.0530 Ry
        Total length         54.7057 bohr
 
 
     Adding external electric field

     Computed dipole along edir(3) : 
        Dipole               -0.8075 Ry au,         -2.0526 Debye
        Dipole field         -0.0005 Ry au, 
 
        Potential amp.        0.0530 Ry
        Total length         54.7057 bohr
 

     total cpu time spent up to now is      460.4 secs

     total energy              =   -8078.56478927 Ry
     estimated scf accuracy    <       0.04581460 Ry

     total magnetization       =    97.12 Bohr mag/cell
     absolute magnetization    =    98.20 Bohr mag/cell

     iteration # 26     ecut=    50.00 Ry     beta= 0.10
     Davidson diagonalization with overlap
     ethr =  3.20E-06,  avg # of iterations =  2.0

     negative rho (up, down):  1.274E-05 1.209E-05
 
     Adding external electric field

     Computed dipole along edir(3) : 
        Dipole               -0.7265 Ry au,         -1.8467 Debye
        Dipole field         -0.0004 Ry au, 
 
        Potential amp.        0.0477 Ry
        Total length         54.7057 bohr
 
 
     Adding external electric field

     Computed dipole along edir(3) : 
        Dipole               -0.7265 Ry au,         -1.8467 Debye
        Dipole field         -0.0004 Ry au, 
 
        Potential amp.        0.0477 Ry
        Total length         54.7057 bohr
 

     total cpu time spent up to now is      474.9 secs

     total energy              =   -8078.56461248 Ry
     estimated scf accuracy    <       0.04154067 Ry

     total magnetization       =    97.11 Bohr mag/cell
     absolute magnetization    =    98.22 Bohr mag/cell

     iteration # 27     ecut=    50.00 Ry     beta= 0.10
     Davidson diagonalization with overlap
     ethr =  3.20E-06,  avg # of iterations =  2.0

     negative rho (up, down):  1.718E-05 1.276E-05
 
     Adding external electric field

     Computed dipole along edir(3) : 
        Dipole               -0.6859 Ry au,         -1.7435 Debye
        Dipole field         -0.0004 Ry au, 
 
        Potential amp.        0.0450 Ry
        Total length         54.7057 bohr
 
 
     Adding external electric field

     Computed dipole along edir(3) : 
        Dipole               -0.6859 Ry au,         -1.7435 Debye
        Dipole field         -0.0004 Ry au, 
 
        Potential amp.        0.0450 Ry
        Total length         54.7057 bohr
 

     total cpu time spent up to now is      488.9 secs

     total energy              =   -8078.56422397 Ry
     estimated scf accuracy    <       0.04390717 Ry

     total magnetization       =    97.20 Bohr mag/cell
     absolute magnetization    =    98.38 Bohr mag/cell

     iteration # 28     ecut=    50.00 Ry     beta= 0.10
     Davidson diagonalization with overlap
     ethr =  3.20E-06,  avg # of iterations =  2.0

     negative rho (up, down):  2.084E-05 1.434E-05
 
     Adding external electric field

     Computed dipole along edir(3) : 
        Dipole               -0.6578 Ry au,         -1.6719 Debye
        Dipole field         -0.0004 Ry au, 
 
        Potential amp.        0.0431 Ry
        Total length         54.7057 bohr
 
 
     Adding external electric field

     Computed dipole along edir(3) : 
        Dipole               -0.6578 Ry au,         -1.6719 Debye
        Dipole field         -0.0004 Ry au, 
 
        Potential amp.        0.0431 Ry
        Total length         54.7057 bohr
 

     total cpu time spent up to now is      502.7 secs

     total energy              =   -8078.56391548 Ry
     estimated scf accuracy    <       0.03848111 Ry

     total magnetization       =    97.21 Bohr mag/cell
     absolute magnetization    =    98.43 Bohr mag/cell

     iteration # 29     ecut=    50.00 Ry     beta= 0.10
     Davidson diagonalization with overlap
     ethr =  3.20E-06,  avg # of iterations =  2.0

     negative rho (up, down):  3.353E-05 2.908E-05
 
     Adding external electric field

     Computed dipole along edir(3) : 
        Dipole               -0.5686 Ry au,         -1.4453 Debye
        Dipole field         -0.0003 Ry au, 
 
        Potential amp.        0.0373 Ry
        Total length         54.7057 bohr
 
 
     Adding external electric field

     Computed dipole along edir(3) : 
        Dipole               -0.5686 Ry au,         -1.4453 Debye
        Dipole field         -0.0003 Ry au, 
 
        Potential amp.        0.0373 Ry
        Total length         54.7057 bohr
 

     total cpu time spent up to now is      516.1 secs

     total energy              =   -8078.56294932 Ry
     estimated scf accuracy    <       0.03600263 Ry

     total magnetization       =    97.22 Bohr mag/cell
     absolute magnetization    =    98.44 Bohr mag/cell

     iteration # 30     ecut=    50.00 Ry     beta= 0.10
     Davidson diagonalization with overlap
     c_bands:  2 eigenvalues not converged
     c_bands:  5 eigenvalues not converged
     ethr =  3.20E-06,  avg # of iterations = 20.0

     negative rho (up, down):  7.331E-05 8.636E-05
 
     Adding external electric field

     Computed dipole along edir(3) : 
        Dipole               -0.4725 Ry au,         -1.2011 Debye
        Dipole field         -0.0003 Ry au, 
 
        Potential amp.        0.0310 Ry
        Total length         54.7057 bohr
 
 
     Adding external electric field

     Computed dipole along edir(3) : 
        Dipole               -0.4725 Ry au,         -1.2011 Debye
        Dipole field         -0.0003 Ry au, 
 
        Potential amp.        0.0310 Ry
        Total length         54.7057 bohr
 

     total cpu time spent up to now is      541.1 secs

     total energy              =   -8078.56213153 Ry
     estimated scf accuracy    <       0.02657953 Ry

     total magnetization       =    97.20 Bohr mag/cell
     absolute magnetization    =    98.42 Bohr mag/cell

     iteration # 31     ecut=    50.00 Ry     beta= 0.10
     Davidson diagonalization with overlap
     ethr =  2.40E-06,  avg # of iterations =  2.0

     negative rho (up, down):  1.161E-03 1.608E-03
 
     Adding external electric field

     Computed dipole along edir(3) : 
        Dipole               -0.2237 Ry au,         -0.5687 Debye
        Dipole field         -0.0001 Ry au, 
 
        Potential amp.        0.0147 Ry
        Total length         54.7057 bohr
 
 
     Adding external electric field

     Computed dipole along edir(3) : 
        Dipole               -0.2237 Ry au,         -0.5687 Debye
        Dipole field         -0.0001 Ry au, 
 
        Potential amp.        0.0147 Ry
        Total length         54.7057 bohr
 

     total cpu time spent up to now is      555.0 secs

     total energy              =   -8078.55981368 Ry
     estimated scf accuracy    <       0.02374469 Ry

     total magnetization       =    97.18 Bohr mag/cell
     absolute magnetization    =    98.43 Bohr mag/cell

     iteration # 32     ecut=    50.00 Ry     beta= 0.10
     Davidson diagonalization with overlap
     ethr =  2.14E-06,  avg # of iterations = 16.0

     negative rho (up, down):  5.321E-04 7.989E-04
 
     Adding external electric field

     Computed dipole along edir(3) : 
        Dipole               -0.2096 Ry au,         -0.5327 Debye
        Dipole field         -0.0001 Ry au, 
 
        Potential amp.        0.0137 Ry
        Total length         54.7057 bohr
 
 
     Adding external electric field

     Computed dipole along edir(3) : 
        Dipole               -0.2096 Ry au,         -0.5327 Debye
        Dipole field         -0.0001 Ry au, 
 
        Potential amp.        0.0137 Ry
        Total length         54.7057 bohr
 

     total cpu time spent up to now is      582.1 secs

     total energy              =   -8078.56033794 Ry
     estimated scf accuracy    <       0.01760514 Ry

     total magnetization       =    97.13 Bohr mag/cell
     absolute magnetization    =    98.45 Bohr mag/cell

     iteration # 33     ecut=    50.00 Ry     beta= 0.10
     Davidson diagonalization with overlap
     ethr =  1.59E-06,  avg # of iterations =  2.5

     negative rho (up, down):  9.974E-04 1.432E-03
 
     Adding external electric field

     Computed dipole along edir(3) : 
        Dipole               -0.1183 Ry au,         -0.3007 Debye
        Dipole field         -0.0001 Ry au, 
 
        Potential amp.        0.0078 Ry
        Total length         54.7057 bohr
 
 
     Adding external electric field

     Computed dipole along edir(3) : 
        Dipole               -0.1183 Ry au,         -0.3007 Debye
        Dipole field         -0.0001 Ry au, 
 
        Potential amp.        0.0078 Ry
        Total length         54.7057 bohr
 

     total cpu time spent up to now is      596.2 secs

     total energy              =   -8078.56060823 Ry
     estimated scf accuracy    <       0.01410671 Ry

     total magnetization       =    97.09 Bohr mag/cell
     absolute magnetization    =    98.41 Bohr mag/cell

     iteration # 34     ecut=    50.00 Ry     beta= 0.10
     Davidson diagonalization with overlap
     ethr =  1.27E-06,  avg # of iterations =  2.5

     negative rho (up, down):  3.543E-04 5.104E-04
 
     Adding external electric field

     Computed dipole along edir(3) : 
        Dipole               -0.1500 Ry au,         -0.3811 Debye
        Dipole field         -0.0001 Ry au, 
 
        Potential amp.        0.0098 Ry
        Total length         54.7057 bohr
 
 
     Adding external electric field

     Computed dipole along edir(3) : 
        Dipole               -0.1500 Ry au,         -0.3811 Debye
        Dipole field         -0.0001 Ry au, 
 
        Potential amp.        0.0098 Ry
        Total length         54.7057 bohr
 

     total cpu time spent up to now is      610.1 secs

     total energy              =   -8078.56108729 Ry
     estimated scf accuracy    <       0.00788765 Ry

     total magnetization       =    97.02 Bohr mag/cell
     absolute magnetization    =    98.32 Bohr mag/cell

     iteration # 35     ecut=    50.00 Ry     beta= 0.10
     Davidson diagonalization with overlap
     ethr =  7.12E-07,  avg # of iterations =  2.0

     negative rho (up, down):  4.357E-04 4.987E-04
 
     Adding external electric field

     Computed dipole along edir(3) : 
        Dipole               -0.1129 Ry au,         -0.2869 Debye
        Dipole field         -0.0001 Ry au, 
 
        Potential amp.        0.0074 Ry
        Total length         54.7057 bohr
 
 
     Adding external electric field

     Computed dipole along edir(3) : 
        Dipole               -0.1129 Ry au,         -0.2869 Debye
        Dipole field         -0.0001 Ry au, 
 
        Potential amp.        0.0074 Ry
        Total length         54.7057 bohr
 

     total cpu time spent up to now is      623.5 secs

     total energy              =   -8078.56126577 Ry
     estimated scf accuracy    <       0.00540266 Ry

     total magnetization       =    97.08 Bohr mag/cell
     absolute magnetization    =    98.34 Bohr mag/cell

     iteration # 36     ecut=    50.00 Ry     beta= 0.10
     Davidson diagonalization with overlap
     ethr =  4.88E-07,  avg # of iterations =  2.0

     negative rho (up, down):  1.322E-04 1.125E-04
 
     Adding external electric field

     Computed dipole along edir(3) : 
        Dipole               -0.1347 Ry au,         -0.3425 Debye
        Dipole field         -0.0001 Ry au, 
 
        Potential amp.        0.0088 Ry
        Total length         54.7057 bohr
 
 
     Adding external electric field

     Computed dipole along edir(3) : 
        Dipole               -0.1347 Ry au,         -0.3425 Debye
        Dipole field         -0.0001 Ry au, 
 
        Potential amp.        0.0088 Ry
        Total length         54.7057 bohr
 

     total cpu time spent up to now is      637.2 secs

     total energy              =   -8078.56125111 Ry
     estimated scf accuracy    <       0.00263104 Ry

     total magnetization       =    97.09 Bohr mag/cell
     absolute magnetization    =    98.35 Bohr mag/cell

     iteration # 37     ecut=    50.00 Ry     beta= 0.10
     Davidson diagonalization with overlap
     ethr =  2.37E-07,  avg # of iterations =  2.0

     negative rho (up, down):  1.363E-04 7.880E-05
 
     Adding external electric field

     Computed dipole along edir(3) : 
        Dipole               -0.1274 Ry au,         -0.3239 Debye
        Dipole field         -0.0001 Ry au, 
 
        Potential amp.        0.0084 Ry
        Total length         54.7057 bohr
 
 
     Adding external electric field

     Computed dipole along edir(3) : 
        Dipole               -0.1274 Ry au,         -0.3239 Debye
        Dipole field         -0.0001 Ry au, 
 
        Potential amp.        0.0084 Ry
        Total length         54.7057 bohr
 

     total cpu time spent up to now is      651.2 secs

     total energy              =   -8078.56126864 Ry
     estimated scf accuracy    <       0.00165852 Ry

     total magnetization       =    97.13 Bohr mag/cell
     absolute magnetization    =    98.40 Bohr mag/cell

     iteration # 38     ecut=    50.00 Ry     beta= 0.10
     Davidson diagonalization with overlap
     ethr =  1.50E-07,  avg # of iterations =  2.0

     negative rho (up, down):  7.411E-06 1.938E-06
 
     Adding external electric field

     Computed dipole along edir(3) : 
        Dipole               -0.1625 Ry au,         -0.4129 Debye
        Dipole field         -0.0001 Ry au, 
 
        Potential amp.        0.0107 Ry
        Total length         54.7057 bohr
 
 
     Adding external electric field

     Computed dipole along edir(3) : 
        Dipole               -0.1625 Ry au,         -0.4129 Debye
        Dipole field         -0.0001 Ry au, 
 
        Potential amp.        0.0107 Ry
        Total length         54.7057 bohr
 

     total cpu time spent up to now is      665.3 secs

     total energy              =   -8078.56124039 Ry
     estimated scf accuracy    <       0.00139332 Ry

     total magnetization       =    97.14 Bohr mag/cell
     absolute magnetization    =    98.41 Bohr mag/cell

     iteration # 39     ecut=    50.00 Ry     beta= 0.10
     Davidson diagonalization with overlap
     ethr =  1.26E-07,  avg # of iterations =  2.0

     negative rho (up, down):  7.892E-06 1.594E-06
 
     Adding external electric field

     Computed dipole along edir(3) : 
        Dipole               -0.1671 Ry au,         -0.4247 Debye
        Dipole field         -0.0001 Ry au, 
 
        Potential amp.        0.0110 Ry
        Total length         54.7057 bohr
 
 
     Adding external electric field

     Computed dipole along edir(3) : 
        Dipole               -0.1671 Ry au,         -0.4247 Debye
        Dipole field         -0.0001 Ry au, 
 
        Potential amp.        0.0110 Ry
        Total length         54.7057 bohr
 

     total cpu time spent up to now is      679.1 secs

     total energy              =   -8078.56124765 Ry
     estimated scf accuracy    <       0.00090930 Ry

     total magnetization       =    97.13 Bohr mag/cell
     absolute magnetization    =    98.38 Bohr mag/cell

     iteration # 40     ecut=    50.00 Ry     beta= 0.10
     Davidson diagonalization with overlap
     ethr =  8.21E-08,  avg # of iterations =  2.0

     negative rho (up, down):  8.498E-05 3.533E-05
 
     Adding external electric field

     Computed dipole along edir(3) : 
        Dipole               -0.1563 Ry au,         -0.3972 Debye
        Dipole field         -0.0001 Ry au, 
 
        Potential amp.        0.0102 Ry
        Total length         54.7057 bohr
 
 
     Adding external electric field

     Computed dipole along edir(3) : 
        Dipole               -0.1563 Ry au,         -0.3972 Debye
        Dipole field         -0.0001 Ry au, 
 
        Potential amp.        0.0102 Ry
        Total length         54.7057 bohr
 

     total cpu time spent up to now is      692.9 secs

     total energy              =   -8078.56126133 Ry
     estimated scf accuracy    <       0.00068778 Ry

     total magnetization       =    97.12 Bohr mag/cell
     absolute magnetization    =    98.38 Bohr mag/cell

     iteration # 41     ecut=    50.00 Ry     beta= 0.10
     Davidson diagonalization with overlap
     ethr =  6.21E-08,  avg # of iterations =  2.0

     negative rho (up, down):  5.750E-05 1.929E-05
 
     Adding external electric field

     Computed dipole along edir(3) : 
        Dipole               -0.1729 Ry au,         -0.4395 Debye
        Dipole field         -0.0001 Ry au, 
 
        Potential amp.        0.0113 Ry
        Total length         54.7057 bohr
 
 
     Adding external electric field

     Computed dipole along edir(3) : 
        Dipole               -0.1729 Ry au,         -0.4395 Debye
        Dipole field         -0.0001 Ry au, 
 
        Potential amp.        0.0113 Ry
        Total length         54.7057 bohr
 

     total cpu time spent up to now is      707.0 secs

     total energy              =   -8078.56127364 Ry
     estimated scf accuracy    <       0.00063113 Ry

     total magnetization       =    97.11 Bohr mag/cell
     absolute magnetization    =    98.38 Bohr mag/cell

     iteration # 42     ecut=    50.00 Ry     beta= 0.10
     Davidson diagonalization with overlap
     ethr =  5.70E-08,  avg # of iterations =  2.0

     negative rho (up, down):  3.562E-05 5.821E-06
 
     Adding external electric field

     Computed dipole along edir(3) : 
        Dipole               -0.1865 Ry au,         -0.4741 Debye
        Dipole field         -0.0001 Ry au, 
 
        Potential amp.        0.0122 Ry
        Total length         54.7057 bohr
 
 
     Adding external electric field

     Computed dipole along edir(3) : 
        Dipole               -0.1865 Ry au,         -0.4741 Debye
        Dipole field         -0.0001 Ry au, 
 
        Potential amp.        0.0122 Ry
        Total length         54.7057 bohr
 

     total cpu time spent up to now is      721.0 secs

     total energy              =   -8078.56130454 Ry
     estimated scf accuracy    <       0.00044385 Ry

     total magnetization       =    97.11 Bohr mag/cell
     absolute magnetization    =    98.38 Bohr mag/cell

     iteration # 43     ecut=    50.00 Ry     beta= 0.10
     Davidson diagonalization with overlap
     ethr =  4.01E-08,  avg # of iterations =  1.5

     negative rho (up, down):  1.152E-04 2.765E-05
 
     Adding external electric field

     Computed dipole along edir(3) : 
        Dipole               -0.1872 Ry au,         -0.4758 Debye
        Dipole field         -0.0001 Ry au, 
 
        Potential amp.        0.0123 Ry
        Total length         54.7057 bohr
 
 
     Adding external electric field

     Computed dipole along edir(3) : 
        Dipole               -0.1872 Ry au,         -0.4758 Debye
        Dipole field         -0.0001 Ry au, 
 
        Potential amp.        0.0123 Ry
        Total length         54.7057 bohr
 

     total cpu time spent up to now is      733.8 secs

     total energy              =   -8078.56135579 Ry
     estimated scf accuracy    <       0.00028108 Ry

     total magnetization       =    97.12 Bohr mag/cell
     absolute magnetization    =    98.38 Bohr mag/cell

     iteration # 44     ecut=    50.00 Ry     beta= 0.10
     Davidson diagonalization with overlap
     ethr =  2.54E-08,  avg # of iterations =  2.0

     negative rho (up, down):  2.813E-04 8.402E-05
 
     Adding external electric field

     Computed dipole along edir(3) : 
        Dipole               -0.1733 Ry au,         -0.4406 Debye
        Dipole field         -0.0001 Ry au, 
 
        Potential amp.        0.0114 Ry
        Total length         54.7057 bohr
 
 
     Adding external electric field

     Computed dipole along edir(3) : 
        Dipole               -0.1733 Ry au,         -0.4406 Debye
        Dipole field         -0.0001 Ry au, 
 
        Potential amp.        0.0114 Ry
        Total length         54.7057 bohr
 

     total cpu time spent up to now is      747.8 secs

     total energy              =   -8078.56138914 Ry
     estimated scf accuracy    <       0.00012660 Ry

     total magnetization       =    97.12 Bohr mag/cell
     absolute magnetization    =    98.36 Bohr mag/cell

     iteration # 45     ecut=    50.00 Ry     beta= 0.10
     Davidson diagonalization with overlap
     ethr =  1.14E-08,  avg # of iterations =  2.0

     negative rho (up, down):  9.552E-04 5.756E-04
 
     Adding external electric field

     Computed dipole along edir(3) : 
        Dipole               -0.1540 Ry au,         -0.3915 Debye
        Dipole field         -0.0001 Ry au, 
 
        Potential amp.        0.0101 Ry
        Total length         54.7057 bohr
 
 
     Adding external electric field

     Computed dipole along edir(3) : 
        Dipole               -0.1540 Ry au,         -0.3915 Debye
        Dipole field         -0.0001 Ry au, 
 
        Potential amp.        0.0101 Ry
        Total length         54.7057 bohr
 

     total cpu time spent up to now is      762.1 secs

     total energy              =   -8078.56140594 Ry
     estimated scf accuracy    <       0.00007366 Ry

     total magnetization       =    97.12 Bohr mag/cell
     absolute magnetization    =    98.35 Bohr mag/cell

     iteration # 46     ecut=    50.00 Ry     beta= 0.10
     Davidson diagonalization with overlap
     ethr =  6.65E-09,  avg # of iterations =  2.0

     negative rho (up, down):  1.054E-03 6.123E-04
 
     Adding external electric field

     Computed dipole along edir(3) : 
        Dipole               -0.1479 Ry au,         -0.3760 Debye
        Dipole field         -0.0001 Ry au, 
 
        Potential amp.        0.0097 Ry
        Total length         54.7057 bohr
 
 
     Adding external electric field

     Computed dipole along edir(3) : 
        Dipole               -0.1479 Ry au,         -0.3760 Debye
        Dipole field         -0.0001 Ry au, 
 
        Potential amp.        0.0097 Ry
        Total length         54.7057 bohr
 

     total cpu time spent up to now is      776.7 secs

     total energy              =   -8078.56141202 Ry
     estimated scf accuracy    <       0.00002582 Ry

     total magnetization       =    97.12 Bohr mag/cell
     absolute magnetization    =    98.34 Bohr mag/cell

     iteration # 47     ecut=    50.00 Ry     beta= 0.10
     Davidson diagonalization with overlap
     ethr =  2.33E-09,  avg # of iterations =  3.0

     negative rho (up, down):  1.045E-03 5.788E-04
 
     Adding external electric field

     Computed dipole along edir(3) : 
        Dipole               -0.1468 Ry au,         -0.3730 Debye
        Dipole field         -0.0001 Ry au, 
 
        Potential amp.        0.0096 Ry
        Total length         54.7057 bohr
 
 
     Adding external electric field

     Computed dipole along edir(3) : 
        Dipole               -0.1468 Ry au,         -0.3730 Debye
        Dipole field         -0.0001 Ry au, 
 
        Potential amp.        0.0096 Ry
        Total length         54.7057 bohr
 

     total cpu time spent up to now is      791.4 secs

     total energy              =   -8078.56141413 Ry
     estimated scf accuracy    <       0.00001222 Ry

     total magnetization       =    97.13 Bohr mag/cell
     absolute magnetization    =    98.34 Bohr mag/cell

     iteration # 48     ecut=    50.00 Ry     beta= 0.10
     Davidson diagonalization with overlap
     ethr =  1.10E-09,  avg # of iterations =  3.0

     negative rho (up, down):  1.364E-03 8.973E-04
 
     Adding external electric field

     Computed dipole along edir(3) : 
        Dipole               -0.1391 Ry au,         -0.3536 Debye
        Dipole field         -0.0001 Ry au, 
 
        Potential amp.        0.0091 Ry
        Total length         54.7057 bohr
 
 
     Adding external electric field

     Computed dipole along edir(3) : 
        Dipole               -0.1391 Ry au,         -0.3536 Debye
        Dipole field         -0.0001 Ry au, 
 
        Potential amp.        0.0091 Ry
        Total length         54.7057 bohr
 

     total cpu time spent up to now is      806.2 secs

     total energy              =   -8078.56141609 Ry
     estimated scf accuracy    <       0.00001008 Ry

     total magnetization       =    97.13 Bohr mag/cell
     absolute magnetization    =    98.34 Bohr mag/cell

     iteration # 49     ecut=    50.00 Ry     beta= 0.10
     Davidson diagonalization with overlap
     ethr =  9.09E-10,  avg # of iterations =  2.0

     negative rho (up, down):  1.412E-03 9.422E-04
 
     Adding external electric field

     Computed dipole along edir(3) : 
        Dipole               -0.1382 Ry au,         -0.3512 Debye
        Dipole field         -0.0001 Ry au, 
 
        Potential amp.        0.0091 Ry
        Total length         54.7057 bohr
 
 
     Adding external electric field

     Computed dipole along edir(3) : 
        Dipole               -0.1382 Ry au,         -0.3512 Debye
        Dipole field         -0.0001 Ry au, 
 
        Potential amp.        0.0091 Ry
        Total length         54.7057 bohr
 

     total cpu time spent up to now is      820.8 secs

     total energy              =   -8078.56141704 Ry
     estimated scf accuracy    <       0.00000433 Ry

     total magnetization       =    97.12 Bohr mag/cell
     absolute magnetization    =    98.34 Bohr mag/cell

     iteration # 50     ecut=    50.00 Ry     beta= 0.10
     Davidson diagonalization with overlap
     ethr =  3.91E-10,  avg # of iterations =  2.0

     negative rho (up, down):  1.381E-03 8.740E-04
 
     Adding external electric field

     Computed dipole along edir(3) : 
        Dipole               -0.1378 Ry au,         -0.3503 Debye
        Dipole field         -0.0001 Ry au, 
 
        Potential amp.        0.0090 Ry
        Total length         54.7057 bohr
 
 
     Adding external electric field

     Computed dipole along edir(3) : 
        Dipole               -0.1378 Ry au,         -0.3503 Debye
        Dipole field         -0.0001 Ry au, 
 
        Potential amp.        0.0090 Ry
        Total length         54.7057 bohr
 

     total cpu time spent up to now is      835.2 secs

     total energy              =   -8078.56141773 Ry
     estimated scf accuracy    <       0.00000327 Ry

     total magnetization       =    97.12 Bohr mag/cell
     absolute magnetization    =    98.34 Bohr mag/cell

     iteration # 51     ecut=    50.00 Ry     beta= 0.10
     Davidson diagonalization with overlap
     ethr =  2.95E-10,  avg # of iterations =  2.0

     negative rho (up, down):  1.341E-03 8.186E-04
 
     Adding external electric field

     Computed dipole along edir(3) : 
        Dipole               -0.1374 Ry au,         -0.3493 Debye
        Dipole field         -0.0001 Ry au, 
 
        Potential amp.        0.0090 Ry
        Total length         54.7057 bohr
 
 
     Adding external electric field

     Computed dipole along edir(3) : 
        Dipole               -0.1374 Ry au,         -0.3493 Debye
        Dipole field         -0.0001 Ry au, 
 
        Potential amp.        0.0090 Ry
        Total length         54.7057 bohr
 

     total cpu time spent up to now is      849.8 secs

     total energy              =   -8078.56141792 Ry
     estimated scf accuracy    <       0.00000132 Ry

     total magnetization       =    97.13 Bohr mag/cell
     absolute magnetization    =    98.34 Bohr mag/cell

     iteration # 52     ecut=    50.00 Ry     beta= 0.10
     Davidson diagonalization with overlap
     ethr =  1.19E-10,  avg # of iterations =  3.5

     negative rho (up, down):  1.166E-03 6.277E-04
 
     Adding external electric field

     Computed dipole along edir(3) : 
        Dipole               -0.1365 Ry au,         -0.3470 Debye
        Dipole field         -0.0001 Ry au, 
 
        Potential amp.        0.0090 Ry
        Total length         54.7057 bohr
 
 
     Adding external electric field

     Computed dipole along edir(3) : 
        Dipole               -0.1365 Ry au,         -0.3470 Debye
        Dipole field         -0.0001 Ry au, 
 
        Potential amp.        0.0090 Ry
        Total length         54.7057 bohr
 
 
     Magnetic moment per site  (integrated on atomic sphere of radius R)
     atom   1 (R=0.079)  charge=  7.1337  magn=  1.4159
     atom   2 (R=0.079)  charge=  7.1114  magn=  1.5285
     atom   3 (R=0.088)  charge= 12.1166  magn=  3.9608
     atom   4 (R=0.079)  charge=  7.1094  magn=  1.5318
     atom   5 (R=0.079)  charge=  7.1278  magn=  1.4988
     atom   6 (R=0.079)  charge=  7.1250  magn=  1.4946
     atom   7 (R=0.079)  charge=  7.1328  magn=  1.4124
     atom   8 (R=0.088)  charge= 12.1219  magn=  3.9039
     atom   9 (R=0.088)  charge= 12.1227  magn=  3.9843
     atom  10 (R=0.079)  charge=  7.1095  magn=  1.5260
     atom  11 (R=0.079)  charge=  7.1293  magn=  1.4967
     atom  12 (R=0.079)  charge=  7.1246  magn=  1.5015
     atom  13 (R=0.066)  charge=  0.8196  magn=  0.0066
     atom  14 (R=0.066)  charge=  0.8229  magn=  0.0036
     atom  15 (R=0.066)  charge=  0.8230  magn=  0.0052
     atom  16 (R=0.066)  charge=  0.8226  magn=  0.0088
     atom  17 (R=0.044)  charge=  2.0162  magn=  0.0666
     atom  18 (R=0.044)  charge=  2.0139  magn=  0.0923
     atom  19 (R=0.044)  charge=  2.0193  magn=  0.0750
     atom  20 (R=0.044)  charge=  2.0189  magn=  0.0640
     atom  21 (R=0.044)  charge=  2.0233  magn=  0.0467
     atom  22 (R=0.044)  charge=  2.0048  magn=  0.0448
     atom  23 (R=0.044)  charge=  2.0096  magn=  0.0373
     atom  24 (R=0.044)  charge=  2.0274  magn=  0.0458
     atom  25 (R=0.044)  charge=  2.0231  magn=  0.0421
     atom  26 (R=0.044)  charge=  2.0199  magn=  0.0508
     atom  27 (R=0.044)  charge=  2.0206  magn=  0.0469
     atom  28 (R=0.044)  charge=  2.0247  magn=  0.0381
     atom  29 (R=0.044)  charge=  2.0193  magn=  0.0481
     atom  30 (R=0.044)  charge=  2.0220  magn=  0.0457
     atom  31 (R=0.044)  charge=  2.0199  magn=  0.0579
     atom  32 (R=0.044)  charge=  2.0222  magn=  0.0487
     atom  33 (R=0.066)  charge=  0.8184  magn=  0.0068
     atom  34 (R=0.066)  charge=  0.8263  magn=  0.0045
     atom  35 (R=0.066)  charge=  0.8233  magn=  0.0050
     atom  36 (R=0.066)  charge=  0.8208  magn=  0.0077
     atom  37 (R=0.044)  charge=  2.0141  magn=  0.0784
     atom  38 (R=0.044)  charge=  2.0209  magn=  0.0725
     atom  39 (R=0.044)  charge=  2.0165  magn=  0.0739
     atom  40 (R=0.044)  charge=  2.0187  magn=  0.0680
     atom  41 (R=0.044)  charge=  2.0212  magn=  0.0553
     atom  42 (R=0.044)  charge=  2.0072  magn=  0.0439
     atom  43 (R=0.044)  charge=  2.0080  magn=  0.0360
     atom  44 (R=0.044)  charge=  2.0277  magn=  0.0457
     atom  45 (R=0.044)  charge=  2.0203  magn=  0.0563
     atom  46 (R=0.044)  charge=  2.0176  magn=  0.0501
     atom  47 (R=0.044)  charge=  2.0198  magn=  0.0468
     atom  48 (R=0.044)  charge=  2.0255  magn=  0.0381
     atom  49 (R=0.044)  charge=  2.0194  magn=  0.0493
     atom  50 (R=0.044)  charge=  2.0230  magn=  0.0441
     atom  51 (R=0.044)  charge=  2.0190  magn=  0.0544
     atom  52 (R=0.044)  charge=  2.0247  magn=  0.0366
     atom  53 (R=0.079)  charge=  7.1119  magn=  1.5297
     atom  54 (R=0.079)  charge=  7.1118  magn=  1.5259
     atom  55 (R=0.088)  charge= 12.1326  magn=  3.9449
     atom  56 (R=0.079)  charge=  7.1129  magn=  1.5222
     atom  57 (R=0.079)  charge=  7.1275  magn=  1.5018
     atom  58 (R=0.079)  charge=  7.1262  magn=  1.4929
     atom  59 (R=0.079)  charge=  7.1136  magn=  1.5232
     atom  60 (R=0.088)  charge= 12.1294  magn=  3.9325
     atom  61 (R=0.088)  charge= 12.1389  magn=  3.9677
     atom  62 (R=0.079)  charge=  7.1105  magn=  1.5232
     atom  63 (R=0.079)  charge=  7.1294  magn=  1.5031
     atom  64 (R=0.079)  charge=  7.1271  magn=  1.4944
     atom  65 (R=0.066)  charge=  0.8198  magn=  0.0066
     atom  66 (R=0.066)  charge=  0.8198  magn=  0.0065
     atom  67 (R=0.066)  charge=  0.8212  magn=  0.0077
     atom  68 (R=0.066)  charge=  0.8231  magn=  0.0088
     atom  69 (R=0.044)  charge=  2.0174  magn=  0.0699
     atom  70 (R=0.044)  charge=  2.0128  magn=  0.0812
     atom  71 (R=0.044)  charge=  2.0170  magn=  0.0691
     atom  72 (R=0.044)  charge=  2.0198  magn=  0.0637
     atom  73 (R=0.044)  charge=  2.0245  magn=  0.0476
     atom  74 (R=0.044)  charge=  2.0217  magn=  0.0546
     atom  75 (R=0.044)  charge=  2.0244  magn=  0.0476
     atom  76 (R=0.044)  charge=  2.0264  magn=  0.0476
     atom  77 (R=0.044)  charge=  2.0242  magn=  0.0435
     atom  78 (R=0.044)  charge=  2.0205  magn=  0.0561
     atom  79 (R=0.044)  charge=  2.0195  magn=  0.0479
     atom  80 (R=0.044)  charge=  2.0240  magn=  0.0380
     atom  81 (R=0.044)  charge=  2.0208  magn=  0.0472
     atom  82 (R=0.044)  charge=  2.0229  magn=  0.0476
     atom  83 (R=0.044)  charge=  2.0199  magn=  0.0582
     atom  84 (R=0.044)  charge=  2.0243  magn=  0.0494
     atom  85 (R=0.066)  charge=  0.8186  magn=  0.0068
     atom  86 (R=0.066)  charge=  0.8234  magn=  0.0091
     atom  87 (R=0.066)  charge=  0.8212  magn=  0.0073
     atom  88 (R=0.066)  charge=  0.8216  magn=  0.0077
     atom  89 (R=0.044)  charge=  2.0149  magn=  0.0810
     atom  90 (R=0.044)  charge=  2.0202  magn=  0.0641
     atom  91 (R=0.044)  charge=  2.0177  magn=  0.0687
     atom  92 (R=0.044)  charge=  2.0200  magn=  0.0681
     atom  93 (R=0.044)  charge=  2.0203  magn=  0.0569
     atom  94 (R=0.044)  charge=  2.0304  magn=  0.0470
     atom  95 (R=0.044)  charge=  2.0246  magn=  0.0471
     atom  96 (R=0.044)  charge=  2.0258  magn=  0.0462
     atom  97 (R=0.044)  charge=  2.0187  magn=  0.0565
     atom  98 (R=0.044)  charge=  2.0199  magn=  0.0547
     atom  99 (R=0.044)  charge=  2.0205  magn=  0.0478
     atom 100 (R=0.044)  charge=  2.0241  magn=  0.0385
     atom 101 (R=0.044)  charge=  2.0206  magn=  0.0496
[...]
    -5.9967  -5.9880  -5.9755  -5.9518  -5.9079  -5.8967  -5.8646  -5.8434
    -5.8376  -5.8266  -5.8211  -5.7749  -5.7630  -5.7591  -5.6937  -5.6780
    -5.6717  -5.6499  -5.6246  -5.6128  -5.5886  -5.5793  -5.5647  -5.5430
    -5.5406  -5.5144  -5.5041  -5.5017  -5.4816  -5.4773  -5.4584  -5.3748
    -5.3563  -5.3251  -5.2790  -5.2590  -5.2506  -5.2446  -5.2298  -5.1634
    -5.1538  -5.1146  -5.0752  -5.0486  -5.0407  -4.9947  -4.9257  -4.9029
    -4.8689  -4.8549  -4.8095  -4.8013  -4.7832  -4.7784  -4.7452  -4.7359
    -4.6596  -4.6384  -4.5992  -4.5767  -4.5495  -4.4767  -4.4457  -4.4075
    -4.3935  -4.3796  -4.3133  -4.2891  -4.2837  -4.2395  -4.2193  -4.2042
    -4.1728  -4.1473  -4.1110  -4.0655  -4.0593  -4.0086  -3.9785  -3.9687
    -3.8948  -3.8658  -3.8532  -3.8416  -3.8112  -3.7611  -3.7459  -3.7398
    -3.7181  -3.7129  -3.6771  -3.6749  -3.6205  -3.6181  -3.6011  -3.5897
    -3.5420  -3.5353  -3.5281  -3.5123  -3.5000  -3.4838  -3.4702  -3.4297
    -3.4173  -3.4137  -3.3863  -3.3767  -3.3670  -3.3462  -3.3307  -3.3221
    -3.2916  -3.2826  -3.2766  -3.2582  -3.2148  -3.1977  -3.1832  -3.1571
    -3.1418  -3.0991  -3.0933  -3.0734  -3.0540  -3.0359  -3.0294  -3.0018
    -2.9774  -2.9451  -2.9402  -2.9110  -2.8855  -2.8602  -2.8541  -2.8265
    -2.8136  -2.7797  -2.7390  -2.7160  -2.7075  -2.6925  -2.6873  -2.6870
    -2.6728  -2.6579  -2.6421  -2.6291  -2.6242  -2.6095  -2.5908  -2.5824
    -2.5599  -2.5473  -2.5218  -2.5185  -2.5101  -2.4992  -2.4721  -2.4661
    -2.4353  -2.4199  -2.4028  -2.3919  -2.3734  -2.3500  -2.3421  -2.3178
    -2.3005  -2.2888  -2.2782  -2.2674  -2.2323  -2.2044  -2.1914  -2.1849
    -2.1602  -2.1510  -2.1343  -2.0883  -2.0871  -2.0673  -2.0445  -2.0258
    -2.0148  -2.0034  -1.9835  -1.9669  -1.9634  -1.9358  -1.9065  -1.8838
    -1.8747  -1.8648  -1.8557  -1.8346  -1.8247  -1.8177  -1.8062  -1.7935
    -1.7278  -1.6919  -1.6815  -1.6751  -1.6536  -1.6282  -1.6244  -1.6087
    -1.6036  -1.5832  -1.5767  -1.5364  -1.5338  -1.5154  -1.4935  -1.4491
    -1.4421  -1.4320  -1.4081  -1.3797  -1.3737  -1.3487  -1.3404  -1.3223
    -1.3112  -1.3004  -1.2578  -1.2166  -1.1769  -1.1701  -1.1470  -1.1109
    -1.0682  -1.0394  -1.0027  -0.9997  -0.9912  -0.8829  -0.8402  -0.7970
    -0.7666  -0.6361  -0.6220  -0.6122  -0.4539  -0.4111  -0.2725  -0.2130
     0.1813   0.1958   0.2378   0.2612   0.2685   0.2931   0.2996   0.3095
     0.3189   0.3306   0.3430   0.3709   0.3729   0.3844   0.3925   0.4062
     0.4110   0.4152   0.4250   0.4346   0.4399   0.4473   0.4693   0.4718
     0.4801   0.4837   0.4937   0.4972   0.5098   0.5175   0.5203   0.5297
     0.5378   0.5442   0.5558   0.5587   0.5652   0.5721   0.5850   0.5937
     0.6092   0.6144   0.6237   0.6368   0.6428   0.6474   0.6568   0.6623
     0.6685   0.6820   0.7047   0.7125   0.7229   0.7308   0.7353   0.7433
     0.7498   0.7739   0.7848   0.7935   0.7978   0.8124   0.8131   0.8242
     0.8304   0.8499   0.8523   0.8661   0.8762   0.8786   0.8837   0.9036
     0.9103   0.9710   0.9841   0.9974   1.0306   1.1101   1.1337   1.1530
     1.6987   1.7627   1.7765   1.7856   1.7993   1.8263   1.8409   1.8690
     1.8789   1.9073   1.9402   1.9571   1.9727   1.9933   2.0165   2.0230
     2.0560   2.0789   2.0853   2.1011   2.1059   2.1260   2.1419   2.1612
     2.1908   2.2052   2.2080   2.2182   2.2287   2.2613   2.2683   2.2823
     2.2881   2.2999   2.3077   2.3480   2.3661   2.3703   2.4053   2.4333
     2.4597   2.4633   2.4874   2.5106   2.5191   2.5278   2.5666   2.6075
     2.6215   2.6627   2.7291   2.7728   2.8064   2.8650   2.8879   3.4346
     3.5046   3.6768   3.6974   3.7361   3.7607   3.7901   3.8210   3.8535
     3.8882   3.9459   3.9514   3.9552   3.9911   3.9983   4.0083   4.0259
     4.0479   4.0783   4.0928   4.1081   4.1376   4.1529   4.1616   4.2009
     4.2081   4.2189   4.2532   4.2681   4.3076   4.5978   4.6034   4.7487
     4.7898   4.8485   4.8926   4.9186   4.9595   4.9899   4.9967   5.0523
     5.0763   5.0914   5.1553   5.1726   5.2156   5.2217   5.3873   6.1799
     6.3608   6.4435   6.5825   6.6551   6.7180   6.7369   6.8505   6.9064
     6.9410   6.9590   7.0041   7.1075   7.2207   7.2714   7.3247   7.3661
     7.3897   7.4133   7.4767   7.5083   7.5696   7.5884   7.7021   7.7273
     7.7685   7.8695   7.9011   7.9227   7.9547   7.9945   8.0155   8.0439
     8.0758   8.0979   8.1249   8.1632   8.1697   8.2146   8.2402   8.3040
     8.3233   8.3330   8.3536   8.3725   8.3856   8.4084   8.4348   8.4437
     8.4678   8.4896   8.5056   8.5459   8.5619   8.5785   8.6250   8.6309
     8.6645

     the Fermi energy is     1.6931 ev

!    total energy              =   -8078.56141692 Ry
     estimated scf accuracy    <       0.00000085 Ry
     smearing contrib. (-TS)   =      -0.02485578 Ry
     internal energy E=F+TS    =   -8078.53656114 Ry

     The total energy is F=E-TS. E is the sum of the following terms:
     one-electron contribution =  -94704.10355205 Ry
     hartree contribution      =   47936.68896782 Ry
     xc contribution           =   -2177.35719372 Ry
     ewald contribution        =   40868.00540908 Ry
     Dispersion Correction     =      -1.77020345 Ry
     electric field correction =       0.00001117 Ry

     total magnetization       =    97.13 Bohr mag/cell
     absolute magnetization    =    98.34 Bohr mag/cell

     convergence has been achieved in  52 iterations

     negative rho (up, down):  1.166E-03 6.277E-04

     Forces acting on atoms (cartesian axes, Ry/au):

     atom    1 type  1   force =     0.02436736   -0.01790387    0.02005507
     atom    2 type  1   force =    -0.00193809    0.00000384   -0.00562121
     atom    3 type  2   force =    -0.03038559   -0.01559878   -0.00837596
     atom    4 type  1   force =     0.00184257   -0.00313316   -0.00449748
     atom    5 type  1   force =    -0.00386924    0.00228426   -0.00195648
     atom    6 type  1   force =     0.00249691    0.00749376   -0.00423453
     atom    7 type  1   force =     0.03215774   -0.01979564    0.01789698
     atom    8 type  2   force =    -0.00199496   -0.00003121   -0.00912062
     atom    9 type  2   force =    -0.02894893   -0.01524150   -0.00836044
     atom   10 type  1   force =     0.00197516   -0.00291942   -0.00428119
     atom   11 type  1   force =    -0.00337829    0.00265859   -0.00107034
     atom   12 type  1   force =     0.00369969    0.00687421   -0.00371081
     atom   13 type  3   force =     0.00213220    0.00064252   -0.00761062
     atom   14 type  3   force =    -0.02974972    0.04992294   -0.06595737
     atom   15 type  3   force =     0.03462138    0.03754634   -0.05986920
     atom   16 type  3   force =    -0.00448221    0.00316266   -0.00092624
     atom   17 type  4   force =    -0.00199467    0.00136142    0.00279756
     atom   18 type  4   force =    -0.00158793   -0.00521066    0.02731546
     atom   19 type  4   force =     0.00395845    0.00284014    0.02953633
     atom   20 type  4   force =     0.00016414   -0.00278511   -0.00472983
     atom   21 type  4   force =    -0.00303333   -0.00228786    0.00334703
     atom   22 type  4   force =     0.00473802   -0.00329551    0.03424720
     atom   23 type  4   force =    -0.00598056   -0.00107441    0.03245759
     atom   24 type  4   force =     0.00069484   -0.00097623   -0.00005695
     atom   25 type  4   force =    -0.00134584    0.00072375    0.00216385
     atom   26 type  4   force =    -0.01451813   -0.02269932   -0.00180949
     atom   27 type  4   force =     0.00177340   -0.00073879    0.00120128
     atom   28 type  4   force =    -0.01765215    0.00340264    0.00121179
     atom   29 type  4   force =     0.02063302   -0.00460096    0.00830776
     atom   30 type  4   force =     0.01241148   -0.03406520    0.00115904
     atom   31 type  4   force =     0.00051505    0.00104737    0.00232190
     atom   32 type  4   force =    -0.00211177    0.00007409    0.00265781
     atom   33 type  3   force =    -0.00055423   -0.00164580   -0.00507664
     atom   34 type  3   force =    -0.03022406    0.05982993   -0.08314609
     atom   35 type  3   force =     0.03460993    0.03340302   -0.05925504
     atom   36 type  3   force =    -0.00379659    0.00471545   -0.00076633
     atom   37 type  4   force =    -0.00106945    0.00134531    0.00306219
     atom   38 type  4   force =    -0.00305277   -0.00560888    0.03289627
     atom   39 type  4   force =     0.00441531    0.00392779    0.02923355
     atom   40 type  4   force =     0.00018494   -0.00319569   -0.00488360
     atom   41 type  4   force =    -0.00004084    0.00005367    0.00355202
     atom   42 type  4   force =     0.00543256    0.00027018    0.01998679
     atom   43 type  4   force =    -0.00179136    0.00038905    0.03451476
     atom   44 type  4   force =     0.00088938   -0.00082191    0.00002494
     atom   45 type  4   force =    -0.00023084   -0.00277610    0.00127775
     atom   46 type  4   force =    -0.01510978   -0.02037140   -0.00047212
     atom   47 type  4   force =     0.00198960   -0.00060009    0.00126486
     atom   48 type  4   force =    -0.01801530    0.00402732    0.00163699
     atom   49 type  4   force =     0.01642705   -0.00277326    0.00501836
     atom   50 type  4   force =     0.01181416   -0.03674876    0.00439530
     atom   51 type  4   force =     0.00105503    0.00095127    0.00171520
     atom   52 type  4   force =     0.00099077   -0.00222218    0.00362438
     atom   53 type  1   force =     0.00150034    0.00032744   -0.00073486
     atom   54 type  1   force =     0.00119068    0.00008908    0.00028667
     atom   55 type  2   force =     0.00011910   -0.00013423   -0.00014725
     atom   56 type  1   force =    -0.00011999   -0.00022796    0.00162152
     atom   57 type  1   force =     0.00054876    0.00031075    0.00039065
     atom   58 type  1   force =     0.00015833   -0.00064515    0.00035249
     atom   59 type  1   force =     0.00050852    0.00064705   -0.00099790
     atom   60 type  2   force =    -0.00125798   -0.00157108    0.00612123
     atom   61 type  2   force =    -0.00048727   -0.00019384   -0.00037050
     atom   62 type  1   force =     0.00017284    0.00176738    0.00103735
     atom   63 type  1   force =    -0.00058149    0.00052503    0.00019239
     atom   64 type  1   force =     0.00024982   -0.00052391   -0.00008678
     atom   65 type  3   force =    -0.00025200    0.00195713    0.00209009
     atom   66 type  3   force =    -0.00003006   -0.00026484   -0.00171403
     atom   67 type  3   force =     0.00039304    0.00073932   -0.00065875
     atom   68 type  3   force =    -0.00050340   -0.00200023    0.00209961
     atom   69 type  4   force =    -0.00090238   -0.00001092   -0.00087349
     atom   70 type  4   force =    -0.00008499    0.00012311    0.00035982
     atom   71 type  4   force =     0.00017593   -0.00041748   -0.00013673
     atom   72 type  4   force =    -0.00067484    0.00081591   -0.00178856
     atom   73 type  4   force =     0.00156854    0.00006806    0.00057016
     atom   74 type  4   force =    -0.00017288   -0.00067237    0.00188495
     atom   75 type  4   force =     0.00000073    0.00011653    0.00023627
     atom   76 type  4   force =    -0.00096724   -0.00059316    0.00029107
     atom   77 type  4   force =    -0.00113658    0.00115980    0.00004946
     atom   78 type  4   force =    -0.00029698   -0.00005190    0.00031366
     atom   79 type  4   force =     0.00105038    0.00171244   -0.00179308
     atom   80 type  4   force =     0.00002871    0.00059793    0.00011174
     atom   81 type  4   force =    -0.00050551   -0.00022366    0.00034579
     atom   82 type  4   force =     0.00027795   -0.00001658    0.00000398
     atom   83 type  4   force =     0.00044958   -0.00077325   -0.00032999
     atom   84 type  4   force =    -0.00034124   -0.00039167   -0.00042158
     atom   85 type  3   force =     0.00050086    0.00040866    0.00011783
     atom   86 type  3   force =     0.00068949   -0.00067012   -0.00065238
     atom   87 type  3   force =    -0.00016622   -0.00004949   -0.00102534
     atom   88 type  3   force =    -0.00199554   -0.00169713    0.00162875
     atom   89 type  4   force =    -0.00000456   -0.00001581    0.00012001
     atom   90 type  4   force =     0.00004077   -0.00047528    0.00174249
     atom   91 type  4   force =     0.00017336    0.00002267    0.00031539
     atom   92 type  4   force =     0.00057047   -0.00058361   -0.00123702
     atom   93 type  4   force =     0.00120957    0.00030884    0.00068539
     atom   94 type  4   force =    -0.00027321    0.00001464    0.00144812
     atom   95 type  4   force =     0.00020542    0.00015995    0.00054012
     atom   96 type  4   force =    -0.00109466   -0.00071634    0.00161797
     atom   97 type  4   force =     0.00058105    0.00021625   -0.00071076
     atom   98 type  4   force =    -0.00065388   -0.00014284    0.00032870
     atom   99 type  4   force =     0.00027971    0.00118072   -0.00168131
     atom  100 type  4   force =     0.00052675    0.00039787    0.00052191
     atom  101 type  4   force =    -0.00034878   -0.00016272    0.00055671
     atom  102 type  4   force =     0.00082812   -0.00024527    0.00038724
     atom  103 type  4   force =     0.00148128    0.00009502    0.00109471
     atom  104 type  4   force =    -0.00070630   -0.00081098    0.00031225
     atom  105 type  1   force =    -0.00016127   -0.00014919   -0.00010788
     atom  106 type  1   force =     0.00061602   -0.00001901   -0.00008363
     atom  107 type  2   force =     0.00017970    0.00046248    0.00040534
     atom  108 type  1   force =    -0.00011955   -0.00049920    0.00035482
     atom  109 type  1   force =    -0.00000915   -0.00037539    0.00005239
     atom  110 type  1   force =    -0.00043027    0.00027019   -0.00028688
     atom  111 type  1   force =     0.00004326   -0.00054237    0.00010172
     atom  112 type  2   force =     0.00011967    0.00046256   -0.00005474
     atom  113 type  2   force =     0.00019150    0.00033779   -0.00030122
     atom  114 type  1   force =    -0.00014332    0.00028455    0.00021158
     atom  115 type  1   force =     0.00029686    0.00035159   -0.00036414
     atom  116 type  1   force =     0.00012366    0.00017651   -0.00002814
     atom  117 type  3   force =    -0.00062972   -0.00009703    0.00021415
     atom  118 type  3   force =    -0.00051703    0.00013148    0.00017381
     atom  119 type  3   force =    -0.00017595   -0.00008924   -0.00032384
     atom  120 type  3   force =     0.00018165    0.00030315   -0.00048650
     atom  121 type  4   force =     0.00041605   -0.00009098    0.00036434
     atom  122 type  4   force =    -0.00029580    0.00016041    0.00024040
     atom  123 type  4   force =    -0.00012113    0.00009312    0.00006799
     atom  124 type  4   force =    -0.00000337   -0.00052659   -0.00011252
     atom  125 type  4   force =     0.00073105    0.00021739    0.00026725
     atom  126 type  4   force =    -0.00002813   -0.00043422    0.00009571
     atom  127 type  4   force =     0.00023724    0.00012252   -0.00020809
     atom  128 type  4   force =    -0.00008940    0.00033023   -0.00028059
     atom  129 type  4   force =     0.00016064    0.00004355    0.00021515
     atom  130 type  4   force =    -0.00007459   -0.00005260    0.00023638
     atom  131 type  4   force =     0.00000174   -0.00033983    0.00031532
     atom  132 type  4   force =     0.00025398    0.00016796    0.00019271
     atom  133 type  4   force =    -0.00028287    0.00002433    0.00020688
     atom  134 type  4   force =    -0.00017509    0.00027724   -0.00011514
     atom  135 type  4   force =     0.00008139    0.00069718    0.00009850
     atom  136 type  4   force =    -0.00049202   -0.00009082    0.00016359
     atom  137 type  3   force =     0.00002537   -0.00012344   -0.00004411
     atom  138 type  3   force =    -0.00031218    0.00014488    0.00025589
     atom  139 type  3   force =     0.00004754   -0.00022854   -0.00005587
     atom  140 type  3   force =    -0.00040739    0.00002918   -0.00046486
     atom  141 type  4   force =     0.00016599   -0.00016286    0.00027290
     atom  142 type  4   force =     0.00005348    0.00011742    0.00039995
     atom  143 type  4   force =    -0.00000186    0.00004281   -0.00014795
     atom  144 type  4   force =     0.00016863   -0.00034152   -0.00044461
     atom  145 type  4   force =    -0.00010344   -0.00036799   -0.00027236
     atom  146 type  4   force =    -0.00017826   -0.00018436    0.00018922
     atom  147 type  4   force =     0.00022231   -0.00026731    0.00003910
     atom  148 type  4   force =    -0.00052660   -0.00012613    0.00017509
     atom  149 type  4   force =     0.00084044   -0.00001602    0.00027024
     atom  150 type  4   force =     0.00013249   -0.00023752   -0.00021730
     atom  151 type  4   force =     0.00002880   -0.00022218    0.00049134
     atom  152 type  4   force =    -0.00009943   -0.00020830    0.00009468
     atom  153 type  4   force =     0.00004885    0.00030099   -0.00008426
     atom  154 type  4   force =    -0.00017638    0.00019395    0.00021369
     atom  155 type  4   force =     0.00005782   -0.00008919    0.00007391
     atom  156 type  4   force =     0.00001761    0.00013388    0.00006587
     atom  157 type  4   force =     0.00985393    0.00701832    0.00375009
     atom  158 type  5   force =    -0.01079908   -0.00632344   -0.00329292

     Total force =     0.226077     Total SCF correction =     0.003097
 
     init_run     :      8.67s CPU      9.29s WALL (       1 calls)
     electrons    :    812.29s CPU    853.06s WALL (       1 calls)
     forces       :      4.11s CPU      4.65s WALL (       1 calls)
     force_london :      0.10s CPU      0.10s WALL (       1 calls)

     Called by init_run:
     wfcinit      :      5.26s CPU      5.44s WALL (       1 calls)
     potinit      :      0.60s CPU      0.75s WALL (       1 calls)
     hinit0       :      1.56s CPU      1.64s WALL (       1 calls)

     Called by electrons:
     c_bands      :    650.00s CPU    673.91s WALL (      52 calls)
     sum_band     :    100.48s CPU    109.05s WALL (      52 calls)
     v_of_rho     :     14.73s CPU     16.30s WALL (      53 calls)
     newd         :     31.44s CPU     38.24s WALL (      53 calls)
     mix_rho      :     15.09s CPU     15.20s WALL (      52 calls)
     energy_londo :      0.09s CPU      0.09s WALL (       1 calls)

     Called by c_bands:
     init_us_2    :      1.61s CPU      1.66s WALL (     212 calls)
     init_us_2:cp :      1.61s CPU      1.66s WALL (     212 calls)
     regterg      :    638.06s CPU    661.76s WALL (     109 calls)

     Called by *egterg:
     rdiaghg      :    169.66s CPU    181.55s WALL (     536 calls)
     h_psi        :    238.21s CPU    243.15s WALL (     538 calls)
     s_psi        :     40.18s CPU     40.25s WALL (     538 calls)
     g_psi        :      0.29s CPU      0.29s WALL (     427 calls)

     Called by h_psi:
     h_psi:calbec :     60.66s CPU     64.39s WALL (     538 calls)
     vloc_psi     :    136.54s CPU    137.24s WALL (     538 calls)
     add_vuspsi   :     40.47s CPU     40.97s WALL (     538 calls)

     General routines
     calbec       :     88.32s CPU     93.90s WALL (     650 calls)
     fft          :     19.92s CPU     21.98s WALL (     967 calls)
     ffts         :      8.90s CPU      8.94s WALL (    6431 calls)
     fftw         :    152.33s CPU    153.05s WALL (  187352 calls)
     interpolate  :      1.22s CPU      1.29s WALL (     106 calls)
 
     Parallel routines
 
     PWSCF        :  13m47.21s CPU  14m29.47s WALL

 
   This run was terminated on:  19:13: 9  17Nov2025            

=------------------------------------------------------------------------------=
   JOB DONE.
=------------------------------------------------------------------------------=
