
     Program PWSCF v.7.2 starts on 17Nov2025 at 17: 6: 4 

     This program is part of the open-source Quantum ESPRESSO suite
     for quantum simulation of materials; please cite
         "P. Giannozzi et al., J. Phys.:Condens. Matter 21 395502 (2009);
         "P. Giannozzi et al., J. Phys.:Condens. Matter 29 465901 (2017);
         "P. Giannozzi et al., J. Chem. Phys. 152 154105 (2020);
          URL http://www.quantum-espresso.org", 
     in publications or presentations arising from this work. More details at
     http://www.quantum-espresso.org/quote

     Parallel version (MPI), running on    64 processors

     MPI processes distributed on     4 nodes
     457305 MiB available memory on the printing compute node when the environment starts
 
     Reading input from PWINPUT_atm157_xm

     Current dimensions of program PWSCF are:
     Max number of different atomic species (ntypx) = 10
     Max number of k-points (npk) =  40000
     Max angular momentum in pseudopotentials (lmaxx) =  4
     Presently no symmetry can be used with electric field

     file Ni.pbe-n-rrkjus_psl.1.0.0.UPF: wavefunction(s)  3D renormalized
     file Mn.pbe-spn-rrkjus_psl.0.3.1.UPF: wavefunction(s)  3D renormalized
     file O.pbe-rrkjus.UPF: wavefunction(s)  2S renormalized
     file H.pbe-rrkjus.UPF: wavefunction(s)  1S renormalized

     gamma-point specific algorithms are used
 
     R & G space division:  proc/nbgrp/npool/nimage =      64
     Subspace diagonalization in iterative solution of the eigenvalue problem:
     one sub-group per band group will be used
     custom distributed-memory algorithm (size of sub-group:  7*  7 procs)

 
     Parallelization info
     --------------------
     sticks:   dense  smooth     PW     G-vecs:    dense   smooth      PW
     Min         214      85     20                61830    15614    1928
     Max         216      86     22                61864    15658    1982
     Sum       13727    5503   1375              3958051  1001255  125211
 
     Using Slab Decomposition
 


     bravais-lattice index     =            0
     lattice parameter (alat)  =      17.8532  a.u.
     unit-cell volume          =   20962.6682 (a.u.)^3
     number of atoms/cell      =          158
     number of atomic types    =            5
     number of electrons       =      1108.00
     number of Kohn-Sham states=          665
     kinetic-energy cutoff     =      50.0000  Ry
     charge density cutoff     =     500.0000  Ry
     scf convergence threshold =      1.0E-06
     mixing beta               =       0.1000
     number of iterations used =            8  local-TF  mixing
     Exchange-correlation=  SLA  PW   PBE  PBE
                           (   1   4   3   4   0   0   0)

     celldm(1)=  17.853155  celldm(2)=   0.000000  celldm(3)=   0.000000
     celldm(4)=   0.000000  celldm(5)=   0.000000  celldm(6)=   0.000000

     crystal axes: (cart. coord. in units of alat)
               a(1) = (   1.000000   0.000000   0.000000 )  
               a(2) = (   0.003237   1.081997   0.000000 )  
               a(3) = (   0.000000   0.000000   3.404673 )  

     reciprocal axes: (cart. coord. in units 2 pi/alat)
               b(1) = (  1.000000 -0.002992  0.000000 )  
               b(2) = (  0.000000  0.924217  0.000000 )  
               b(3) = (  0.000000  0.000000  0.293714 )  


     PseudoPot. # 1 for Ni read from file:
     ~/PSEUDO/Ni.pbe-n-rrkjus_psl.1.0.0.UPF
     MD5 check sum: Not computed, couldn't open file
     Pseudo is Ultrasoft + core correction, Zval = 10.0
     Generated using "atomic" code by A. Dal Corso  v.5.1.2
     Using radial grid of 1195 points,  6 beta functions with: 
                l(1) =   0
                l(2) =   0
                l(3) =   1
                l(4) =   1
                l(5) =   2
                l(6) =   2
     Q(r) pseudized with 0 coefficients 


     PseudoPot. # 2 for Mn read from file:
     ~/PSEUDO/Mn.pbe-spn-rrkjus_psl.0.3.1.UPF
     MD5 check sum: Not computed, couldn't open file
     Pseudo is Ultrasoft + core correction, Zval = 15.0
     Generated using &quot;atomic&quot; code by A. Dal Corso  v.6.2.2
     Using radial grid of 1187 points,  6 beta functions with: 
                l(1) =   0
                l(2) =   0
                l(3) =   1
                l(4) =   1
                l(5) =   2
                l(6) =   2
     Q(r) pseudized with 0 coefficients 


     PseudoPot. # 3 for P  read from file:
     ~/PSEUDO/P.pbe-n-rrkjus_psl.1.0.0.UPF
     MD5 check sum: Not computed, couldn't open file
     Pseudo is Ultrasoft + core correction, Zval =  5.0
     Generated using "atomic" code by A. Dal Corso  v.5.1
     Using radial grid of 1147 points,  6 beta functions with: 
                l(1) =   0
                l(2) =   0
                l(3) =   1
                l(4) =   1
                l(5) =   2
                l(6) =   2
     Q(r) pseudized with 0 coefficients 


     PseudoPot. # 4 for O  read from file:
     ~/PSEUDO/O.pbe-rrkjus.UPF
     MD5 check sum: Not computed, couldn't open file
     Pseudo is Ultrasoft, Zval =  6.0
     Generated by new atomic code, or converted to UPF format
     Using radial grid of 1269 points,  4 beta functions with: 
                l(1) =   0
                l(2) =   0
                l(3) =   1
                l(4) =   1
     Q(r) pseudized with 0 coefficients 


     PseudoPot. # 5 for H  read from file:
     ~/PSEUDO/H.pbe-rrkjus.UPF
     MD5 check sum: Not computed, couldn't open file
     Pseudo is Ultrasoft, Zval =  1.0
     Generated by new atomic code, or converted to UPF format
     Using radial grid of 1061 points,  2 beta functions with: 
                l(1) =   0
                l(2) =   0
     Q(r) pseudized with 0 coefficients 


     atomic species   valence    mass     pseudopotential
     Ni               10.00    58.69300     Ni( 1.00)
     Mn               15.00    54.93800     Mn( 1.00)
     P                 5.00    30.97300     P ( 1.00)
     O                 6.00    15.99900     O ( 1.00)
     H                 1.00     1.00790     H ( 1.00)

     Starting magnetic structure 
     atomic species   magnetization
     Ni              1.000
     Mn              1.000
     P               1.000
     O               1.000
     H               0.000

     No symmetry found



   Cartesian axes

     site n.     atom                  positions (alat units)
         1        Ni     tau(   1) = (   0.2448189   0.8359134   0.1216996  )
         2        Ni     tau(   2) = (   0.4920952   0.7731948   0.4438949  )
         3        Mn     tau(   3) = (   0.0113021   0.2918949   0.1160512  )
         4        Ni     tau(   4) = (   0.2586115   0.2268566   0.4417628  )
         5        Ni     tau(   5) = (   1.0019827   1.0705803   0.2835623  )
         6        Ni     tau(   6) = (   0.2518099   0.5339061   0.2823483  )
         7        Ni     tau(   7) = (   0.7400999   0.8349186   0.1225624  )
         8        Mn     tau(   8) = (   0.9886961   0.7700845   0.4492175  )
         9        Mn     tau(   9) = (   0.5113421   0.2944667   0.1158892  )
        10        Ni     tau(  10) = (   0.7560857   0.2263843   0.4422798  )
        11        Ni     tau(  11) = (   0.5009386   1.0712238   0.2822610  )
        12        Ni     tau(  12) = (   0.7496978   0.5336600   0.2834396  )
        13        P      tau(  13) = (   0.2147792   0.9686896   0.4382665  )
        14        P      tau(  14) = (   0.4607377   0.6441916   0.1265334  )
        15        P      tau(  15) = (   0.2883218   0.0913464   0.1265752  )
        16        P      tau(  16) = (   0.0408981   0.4221836   0.4354960  )
        17        O      tau(  17) = (   0.1380864   0.9007819   0.3023220  )
        18        O      tau(  18) = (   0.3817439   0.7113683   0.2624610  )
        19        O      tau(  19) = (   0.3638364   0.1608547   0.2624417  )
        20        O      tau(  20) = (   0.1207568   0.3545755   0.3021219  )
        21        O      tau(  21) = (   0.1552194   0.8797563   0.5625160  )
        22        O      tau(  22) = (   0.4022820   0.7317969   0.0010585  )
        23        O      tau(  23) = (   0.3454844   0.1823965   0.0026336  )
        24        O      tau(  24) = (   0.1017019   0.3344979   0.5594858  )
        25        O      tau(  25) = (   0.0970074   0.5770714   0.4346455  )
        26        O      tau(  26) = (   0.3534166   1.0203677   0.1270707  )
        27        O      tau(  27) = (   0.3778024   0.4172402   0.4261028  )
        28        O      tau(  28) = (   0.1256171   0.0954063   0.1372153  )
        29        O      tau(  29) = (   0.1232168   0.6482422   0.1385172  )
        30        O      tau(  30) = (   0.4028533   0.4897833   0.1289718  )
        31        O      tau(  31) = (   0.1511050   0.0405554   0.4369979  )
        32        O      tau(  32) = (   0.3776556   0.9624293   0.4288159  )
        33        P      tau(  33) = (   0.7084770   0.9682119   0.4394551  )
        34        P      tau(  34) = (   0.9603154   0.6409658   0.1292469  )
        35        P      tau(  35) = (   0.7875734   0.0899770   0.1274098  )
        36        P      tau(  36) = (   0.5405152   0.4272620   0.4364455  )
        37        O      tau(  37) = (   0.6323583   0.8977630   0.3036670  )
        38        O      tau(  38) = (   0.8809646   0.7091921   0.2627111  )
        39        O      tau(  39) = (   0.8631054   0.1587239   0.2636487  )
        40        O      tau(  40) = (   0.6202581   0.3578380   0.3034239  )
        41        O      tau(  41) = (   0.6499160   0.8772596   0.5630912  )
        42        O      tau(  42) = (   0.8990171   0.7283464   0.0054426  )
        43        O      tau(  43) = (   0.8448361   0.1806154   0.0030658  )
        44        O      tau(  44) = (   0.6023096   0.3392612   0.5600469  )
        45        O      tau(  45) = (   0.5960222   0.5826131   0.4346340  )
        46        O      tau(  46) = (   0.8515023   1.0184215   0.1281632  )
        47        O      tau(  47) = (   0.8779640   0.4148900   0.4260983  )
        48        O      tau(  48) = (   0.6251159   0.0957170   0.1376895  )
        49        O      tau(  49) = (   0.6237654   0.6481585   0.1378370  )
        50        O      tau(  50) = (   0.9038046   0.4863338   0.1307354  )
        51        O      tau(  51) = (   0.6458737   0.0402574   0.4377979  )
        52        O      tau(  52) = (   0.8712434   0.9635255   0.4285638  )
        53        Ni     tau(  53) = (   0.2420320   0.8169913   0.7491577  )
        54        Ni     tau(  54) = (   0.4893084   0.7542727   1.0713530  )
        55        Mn     tau(  55) = (   0.0085152   0.2729728   0.7435093  )
        56        Ni     tau(  56) = (   0.2558246   0.2079345   1.0692209  )
        57        Ni     tau(  57) = (   0.9991959   1.0516583   0.9110204  )
        58        Ni     tau(  58) = (   0.2490231   0.5149840   0.9098064  )
        59        Ni     tau(  59) = (   0.7373131   0.8159965   0.7500205  )
        60        Mn     tau(  60) = (   0.9859093   0.7511625   1.0766756  )
        61        Mn     tau(  61) = (   0.5085552   0.2755447   0.7433473  )
        62        Ni     tau(  62) = (   0.7532989   0.2074622   1.0697379  )
        63        Ni     tau(  63) = (   0.4981517   1.0523018   0.9097191  )
        64        Ni     tau(  64) = (   0.7469109   0.5147379   0.9108977  )
        65        P      tau(  65) = (   0.2119924   0.9497675   1.0657246  )
        66        P      tau(  66) = (   0.4579509   0.6252695   0.7539915  )
        67        P      tau(  67) = (   0.2855349   0.0724244   0.7540333  )
        68        P      tau(  68) = (   0.0381112   0.4032615   1.0629541  )
        69        O      tau(  69) = (   0.1352995   0.8818598   0.9297801  )
        70        O      tau(  70) = (   0.3789570   0.6924463   0.8899191  )
        71        O      tau(  71) = (   0.3610496   0.1419327   0.8898998  )
        72        O      tau(  72) = (   0.1179700   0.3356534   0.9295800  )
        73        O      tau(  73) = (   0.1524325   0.8608343   1.1899741  )
        74        O      tau(  74) = (   0.3994952   0.7128748   0.6285166  )
        75        O      tau(  75) = (   0.3426976   0.1634744   0.6300917  )
        76        O      tau(  76) = (   0.0989151   0.3155758   1.1869439  )
        77        O      tau(  77) = (   0.0942206   0.5581494   1.0621036  )
        78        O      tau(  78) = (   0.3506297   1.0014456   0.7545288  )
        79        O      tau(  79) = (   0.3750155   0.3983181   1.0535609  )
        80        O      tau(  80) = (   0.1228303   0.0764842   0.7646734  )
        81        O      tau(  81) = (   0.1204299   0.6293201   0.7659753  )
        82        O      tau(  82) = (   0.4000664   0.4708612   0.7564299  )
        83        O      tau(  83) = (   0.1483182   0.0216333   1.0644560  )
        84        O      tau(  84) = (   0.3748687   0.9435072   1.0562740  )
        85        P      tau(  85) = (   0.7056901   0.9492898   1.0669132  )
        86        P      tau(  86) = (   0.9575286   0.6220438   0.7567050  )
        87        P      tau(  87) = (   0.7847866   0.0710549   0.7548679  )
        88        P      tau(  88) = (   0.5377283   0.4083400   1.0639036  )
        89        O      tau(  89) = (   0.6295714   0.8788409   0.9311251  )
        90        O      tau(  90) = (   0.8781778   0.6902700   0.8901692  )
        91        O      tau(  91) = (   0.8603186   0.1398018   0.8911068  )
        92        O      tau(  92) = (   0.6174712   0.3389159   0.9308820  )
        93        O      tau(  93) = (   0.6471291   0.8583376   1.1905493  )
        94        O      tau(  94) = (   0.8962302   0.7094244   0.6329007  )
        95        O      tau(  95) = (   0.8420493   0.1616933   0.6305239  )
        96        O      tau(  96) = (   0.5995227   0.3203391   1.1875050  )
        97        O      tau(  97) = (   0.5932354   0.5636910   1.0620921  )
        98        O      tau(  98) = (   0.8487155   0.9994995   0.7556213  )
        99        O      tau(  99) = (   0.8751772   0.3959680   1.0535564  )
       100        O      tau( 100) = (   0.6223291   0.0767949   0.7651476  )
       101        O      tau( 101) = (   0.6209785   0.6292365   0.7652951  )
       102        O      tau( 102) = (   0.9010178   0.4674118   0.7581935  )
       103        O      tau( 103) = (   0.6430869   0.0213354   1.0652560  )
       104        O      tau( 104) = (   0.8684566   0.9446034   1.0560219  )
       105        Ni     tau( 105) = (   0.2423630   0.7994359   1.3760354  )
       106        Ni     tau( 106) = (   0.4993973   0.7391311   1.6804864  )
       107        Mn     tau( 107) = (   0.0089498   0.2581752   1.3751757  )
       108        Ni     tau( 108) = (   0.2555203   0.1875480   1.7147440  )
       109        Ni     tau( 109) = (   1.0007969   1.0339332   1.5383184  )
       110        Ni     tau( 110) = (   0.2460225   0.4956919   1.5440603  )
       111        Ni     tau( 111) = (   0.7359931   0.8001260   1.3774046  )
       112        Mn     tau( 112) = (   0.9973763   0.7324626   1.6978130  )
       113        Mn     tau( 113) = (   0.5067604   0.2591059   1.3740250  )
       114        Ni     tau( 114) = (   0.7428480   0.1952512   1.6837944  )
       115        Ni     tau( 115) = (   0.4987731   1.0381547   1.5410978  )
       116        Ni     tau( 116) = (   0.7427219   0.4966249   1.5424991  )
       117        P      tau( 117) = (   0.2131870   0.9257933   1.6916587  )
       118        P      tau( 118) = (   0.4559119   0.6044880   1.3805992  )
       119        P      tau( 119) = (   0.2850881   0.0578616   1.3821893  )
       120        P      tau( 120) = (   0.0323162   0.3787027   1.6982374  )
       121        O      tau( 121) = (   0.1347071   0.8640073   1.5492256  )
       122        O      tau( 122) = (   0.3772882   0.6717903   1.5162818  )
       123        O      tau( 123) = (   0.3593898   0.1286559   1.5165302  )
       124        O      tau( 124) = (   0.1109838   0.3262818   1.5555432  )
       125        O      tau( 125) = (   0.1539942   0.8264869   1.8062921  )
       126        O      tau( 126) = (   0.3971693   0.6924762   1.2552325  )
       127        O      tau( 127) = (   0.3421563   0.1469372   1.2562216  )
       128        O      tau( 128) = (   0.0898411   0.2811759   1.8130034  )
       129        O      tau( 129) = (   0.0853118   0.5370915   1.7040182  )
       130        O      tau( 130) = (   0.3491208   0.9864055   1.3828534  )
       131        O      tau( 131) = (   0.3706482   0.3857699   1.6886489  )
       132        O      tau( 132) = (   0.1216767   0.0634913   1.3916025  )
       133        O      tau( 133) = (   0.1193436   0.6078482   1.3967511  )
       134        O      tau( 134) = (   0.3973442   0.4503950   1.3837012  )
       135        O      tau( 135) = (   0.1487970  -0.0030508   1.6922434  )
       136        O      tau( 136) = (   0.3761859   0.9190075   1.6784506  )
       137        P      tau( 137) = (   0.7099731   0.9276212   1.6969971  )
       138        P      tau( 138) = (   0.9565988   0.6017915   1.3869988  )
       139        P      tau( 139) = (   0.7850320   0.0557964   1.3814017  )
       140        P      tau( 140) = (   0.5341584   0.3909479   1.7019963  )
       141        O      tau( 141) = (   0.6329335   0.8686924   1.5518520  )
       142        O      tau( 142) = (   0.8798187   0.6672706   1.5242031  )
       143        O      tau( 143) = (   0.8611821   0.1236672   1.5173706  )
       144        O      tau( 144) = (   0.6104268   0.3268639   1.5598222  )
       145        O      tau( 145) = (   0.6499567   0.8294727   1.8098310  )
       146        O      tau( 146) = (   0.8965323   0.6932672   1.2652725  )
       147        O      tau( 147) = (   0.8423135   0.1469704   1.2572506  )
       148        O      tau( 148) = (   0.5974078   0.2970599   1.8177101  )
       149        O      tau( 149) = (   0.5903229   0.5473287   1.6970866  )
       150        O      tau( 150) = (   0.8477944   0.9841351   1.3810722  )
       151        O      tau( 151) = (   0.8683058   0.3760079   1.6828064  )
       152        O      tau( 152) = (   0.6224566   0.0643770   1.3939749  )
       153        O      tau( 153) = (   0.6187923   0.6106371   1.3938596  )
       154        O      tau( 154) = (   0.8971193   0.4481891   1.3841611  )
       155        O      tau( 155) = (   0.6540414   0.0026232   1.6976259  )
       156        O      tau( 156) = (   0.8743841   0.9191802   1.6841294  )
       157        O      tau( 157) = (   0.3733149   0.1030868   1.8397344  )
       158        H      tau( 158) = (   0.4562925   0.1635293   1.8648188  )

     -------------------------------------------------
     Parameters for Dispersion (Grimme-D2) Correction:
     -------------------------------------------------
       atom      VdW radius       C_6     

        Ni         2.952        374.666
        Mn         2.952        374.666
        P          3.222        271.980
        O          2.536         24.284
        H          1.892          4.857

     number of k points=     1  Gaussian smearing, width (Ry)=  0.0100
                       cart. coord. in units 2pi/alat
        k(    1) = (   0.0000000   0.0000000   0.0000000), wk =   1.0000000

     Dense  grid:  1979026 G-vectors     FFT dimensions: ( 128, 144, 450)

     Smooth grid:   500628 G-vectors     FFT dimensions: (  81,  90, 288)

     Estimated max dynamical RAM per process >     333.40 MB

     Estimated total dynamical RAM >      20.84 GB

     Check: negative core charge=   -0.000002
     Generating pointlists ...
     new r_m :   0.0790 (alat units)  1.4095 (a.u.) for type    1
     new r_m :   0.0876 (alat units)  1.5646 (a.u.) for type    2
     new r_m :   0.0665 (alat units)  1.1867 (a.u.) for type    3
     new r_m :   0.0436 (alat units)  0.7783 (a.u.) for type    4
     new r_m :   0.0436 (alat units)  0.7783 (a.u.) for type    5

     Initial potential from superposition of free atoms

     starting charge    1107.8886, renormalised to    1108.0000

     negative rho (up, down):  1.530E-03 4.672E-04
 
     Adding external electric field

     Computed dipole along edir(3) : 
        Dipole                1.6307 Ry au,          4.1449 Debye
        Dipole field          0.0010 Ry au, 
 
        Potential amp.       -0.1070 Ry
        Total length         54.7057 bohr
 
 
     Adding external electric field

     Computed dipole along edir(3) : 
        Dipole                1.6307 Ry au,          4.1449 Debye
        Dipole field          0.0010 Ry au, 
 
        Potential amp.       -0.1070 Ry
        Total length         54.7057 bohr
 
     Starting wfcs are  818 randomized atomic wfcs

     total cpu time spent up to now is       14.0 secs

     Self-consistent Calculation

     iteration #  1     ecut=    50.00 Ry     beta= 0.10
     Davidson diagonalization with overlap
     ethr =  1.00E-02,  avg # of iterations =  5.5

     negative rho (up, down):  4.457E-01 1.055E-06
 
     Adding external electric field

     Computed dipole along edir(3) : 
        Dipole               -3.4728 Ry au,         -8.8269 Debye
        Dipole field         -0.0021 Ry au, 
 
        Potential amp.        0.2278 Ry
        Total length         54.7057 bohr
 
 
     Adding external electric field

     Computed dipole along edir(3) : 
        Dipole               -3.4728 Ry au,         -8.8269 Debye
        Dipole field         -0.0021 Ry au, 
 
        Potential amp.        0.2278 Ry
        Total length         54.7057 bohr
 

     total cpu time spent up to now is       47.4 secs

     total energy              =   -7859.14462808 Ry
     estimated scf accuracy    <     749.43509776 Ry

     total magnetization       =   222.00 Bohr mag/cell
     absolute magnetization    =   319.61 Bohr mag/cell

     iteration #  2     ecut=    50.00 Ry     beta= 0.10
     Davidson diagonalization with overlap
     ethr =  1.00E-02,  avg # of iterations =  2.0

     negative rho (up, down):  4.097E-01 7.688E-07
 
     Adding external electric field

     Computed dipole along edir(3) : 
        Dipole               -2.5550 Ry au,         -6.4941 Debye
        Dipole field         -0.0015 Ry au, 
 
        Potential amp.        0.1676 Ry
        Total length         54.7057 bohr
 
 
     Adding external electric field

     Computed dipole along edir(3) : 
        Dipole               -2.5550 Ry au,         -6.4941 Debye
        Dipole field         -0.0015 Ry au, 
 
        Potential amp.        0.1676 Ry
        Total length         54.7057 bohr
 

     total cpu time spent up to now is       67.6 secs

     total energy              =   -7941.56237707 Ry
     estimated scf accuracy    <     166.23975556 Ry

     total magnetization       =   162.07 Bohr mag/cell
     absolute magnetization    =   210.39 Bohr mag/cell

     iteration #  3     ecut=    50.00 Ry     beta= 0.10
     Davidson diagonalization with overlap
     ethr =  1.00E-02,  avg # of iterations =  1.0

     negative rho (up, down):  3.596E-01 7.086E-07
 
     Adding external electric field

     Computed dipole along edir(3) : 
        Dipole               -2.1071 Ry au,         -5.3557 Debye
        Dipole field         -0.0013 Ry au, 
 
        Potential amp.        0.1382 Ry
        Total length         54.7057 bohr
 
 
     Adding external electric field

     Computed dipole along edir(3) : 
        Dipole               -2.1071 Ry au,         -5.3557 Debye
        Dipole field         -0.0013 Ry au, 
 
        Potential amp.        0.1382 Ry
        Total length         54.7057 bohr
 

     total cpu time spent up to now is       82.9 secs

     total energy              =   -7973.67648057 Ry
     estimated scf accuracy    <     104.31430797 Ry

     total magnetization       =   140.41 Bohr mag/cell
     absolute magnetization    =   190.50 Bohr mag/cell

     iteration #  4     ecut=    50.00 Ry     beta= 0.10
     Davidson diagonalization with overlap
     ethr =  9.41E-03,  avg # of iterations =  1.0

     negative rho (up, down):  2.834E-01 3.096E-07
 
     Adding external electric field

     Computed dipole along edir(3) : 
        Dipole               -2.0482 Ry au,         -5.2061 Debye
        Dipole field         -0.0012 Ry au, 
 
        Potential amp.        0.1343 Ry
        Total length         54.7057 bohr
 
 
     Adding external electric field

     Computed dipole along edir(3) : 
        Dipole               -2.0482 Ry au,         -5.2061 Debye
        Dipole field         -0.0012 Ry au, 
 
        Potential amp.        0.1343 Ry
        Total length         54.7057 bohr
 

     total cpu time spent up to now is       97.8 secs

     total energy              =   -8004.57648025 Ry
     estimated scf accuracy    <      82.32135949 Ry

     total magnetization       =   123.59 Bohr mag/cell
     absolute magnetization    =   175.81 Bohr mag/cell

     iteration #  5     ecut=    50.00 Ry     beta= 0.10
     Davidson diagonalization with overlap
     ethr =  7.43E-03,  avg # of iterations =  1.0

     negative rho (up, down):  2.715E-02 4.448E-08
 
     Adding external electric field

     Computed dipole along edir(3) : 
        Dipole               -1.5017 Ry au,         -3.8169 Debye
        Dipole field         -0.0009 Ry au, 
 
        Potential amp.        0.0985 Ry
        Total length         54.7057 bohr
 
 
     Adding external electric field

     Computed dipole along edir(3) : 
        Dipole               -1.5017 Ry au,         -3.8169 Debye
        Dipole field         -0.0009 Ry au, 
 
        Potential amp.        0.0985 Ry
        Total length         54.7057 bohr
 

     total cpu time spent up to now is      112.6 secs

     total energy              =   -8064.82362972 Ry
     estimated scf accuracy    <      65.80616104 Ry

     total magnetization       =   106.05 Bohr mag/cell
     absolute magnetization    =   159.15 Bohr mag/cell

     iteration #  6     ecut=    50.00 Ry     beta= 0.10
     Davidson diagonalization with overlap
     ethr =  5.94E-03,  avg # of iterations =  1.5

     negative rho (up, down):  1.020E-04 1.637E-04
 
     Adding external electric field

     Computed dipole along edir(3) : 
        Dipole               -1.0789 Ry au,         -2.7423 Debye
        Dipole field         -0.0006 Ry au, 
 
        Potential amp.        0.0708 Ry
        Total length         54.7057 bohr
 
 
     Adding external electric field

     Computed dipole along edir(3) : 
        Dipole               -1.0789 Ry au,         -2.7423 Debye
        Dipole field         -0.0006 Ry au, 
 
        Potential amp.        0.0708 Ry
        Total length         54.7057 bohr
 

     total cpu time spent up to now is      128.3 secs

     total energy              =   -8076.35966631 Ry
     estimated scf accuracy    <      13.06084812 Ry

     total magnetization       =   100.00 Bohr mag/cell
     absolute magnetization    =   131.42 Bohr mag/cell

     iteration #  7     ecut=    50.00 Ry     beta= 0.10
     Davidson diagonalization with overlap
     ethr =  1.18E-03,  avg # of iterations =  6.5

     negative rho (up, down):  9.819E-05 1.639E-04
 
     Adding external electric field

     Computed dipole along edir(3) : 
        Dipole               -1.0724 Ry au,         -2.7257 Debye
        Dipole field         -0.0006 Ry au, 
 
        Potential amp.        0.0703 Ry
        Total length         54.7057 bohr
 
 
     Adding external electric field

     Computed dipole along edir(3) : 
        Dipole               -1.0724 Ry au,         -2.7257 Debye
        Dipole field         -0.0006 Ry au, 
 
        Potential amp.        0.0703 Ry
        Total length         54.7057 bohr
 

     total cpu time spent up to now is      155.4 secs

     total energy              =   -8078.79448753 Ry
     estimated scf accuracy    <      28.47063582 Ry

     total magnetization       =    69.94 Bohr mag/cell
     absolute magnetization    =    87.71 Bohr mag/cell

     iteration #  8     ecut=    50.00 Ry     beta= 0.10
     Davidson diagonalization with overlap
     ethr =  1.18E-03,  avg # of iterations =  1.0

     negative rho (up, down):  9.911E-05 1.829E-04
 
     Adding external electric field

     Computed dipole along edir(3) : 
        Dipole               -1.0646 Ry au,         -2.7059 Debye
        Dipole field         -0.0006 Ry au, 
 
        Potential amp.        0.0698 Ry
        Total length         54.7057 bohr
 
 
     Adding external electric field

     Computed dipole along edir(3) : 
        Dipole               -1.0646 Ry au,         -2.7059 Debye
        Dipole field         -0.0006 Ry au, 
 
        Potential amp.        0.0698 Ry
        Total length         54.7057 bohr
 

     total cpu time spent up to now is      169.7 secs

     total energy              =   -8079.00571174 Ry
     estimated scf accuracy    <      28.18671618 Ry

     total magnetization       =    69.96 Bohr mag/cell
     absolute magnetization    =    87.31 Bohr mag/cell

     iteration #  9     ecut=    50.00 Ry     beta= 0.10
     Davidson diagonalization with overlap
     ethr =  1.18E-03,  avg # of iterations =  1.0

     negative rho (up, down):  9.016E-05 1.854E-04
 
     Adding external electric field

     Computed dipole along edir(3) : 
        Dipole               -1.0643 Ry au,         -2.7052 Debye
        Dipole field         -0.0006 Ry au, 
 
        Potential amp.        0.0698 Ry
        Total length         54.7057 bohr
 
 
     Adding external electric field

     Computed dipole along edir(3) : 
        Dipole               -1.0643 Ry au,         -2.7052 Debye
        Dipole field         -0.0006 Ry au, 
 
        Potential amp.        0.0698 Ry
        Total length         54.7057 bohr
 

     total cpu time spent up to now is      184.0 secs

     total energy              =   -8078.73057831 Ry
     estimated scf accuracy    <      30.70520428 Ry

     total magnetization       =    69.06 Bohr mag/cell
     absolute magnetization    =    86.21 Bohr mag/cell

     iteration # 10     ecut=    50.00 Ry     beta= 0.10
     Davidson diagonalization with overlap
     ethr =  1.18E-03,  avg # of iterations =  1.0

     negative rho (up, down):  1.135E-02 1.330E-02
 
     Adding external electric field

     Computed dipole along edir(3) : 
        Dipole               -1.1309 Ry au,         -2.8744 Debye
        Dipole field         -0.0007 Ry au, 
 
        Potential amp.        0.0742 Ry
        Total length         54.7057 bohr
 
 
     Adding external electric field

     Computed dipole along edir(3) : 
        Dipole               -1.1309 Ry au,         -2.8744 Debye
        Dipole field         -0.0007 Ry au, 
 
        Potential amp.        0.0742 Ry
        Total length         54.7057 bohr
 

     total cpu time spent up to now is      197.5 secs

     total energy              =   -8077.56463452 Ry
     estimated scf accuracy    <      26.46257512 Ry

     total magnetization       =    70.08 Bohr mag/cell
     absolute magnetization    =    86.39 Bohr mag/cell

     iteration # 11     ecut=    50.00 Ry     beta= 0.10
     Davidson diagonalization with overlap
     ethr =  1.18E-03,  avg # of iterations =  1.0

     negative rho (up, down):  1.947E-02 2.267E-02
 
     Adding external electric field

     Computed dipole along edir(3) : 
        Dipole               -1.1224 Ry au,         -2.8528 Debye
        Dipole field         -0.0007 Ry au, 
 
        Potential amp.        0.0736 Ry
        Total length         54.7057 bohr
 
 
     Adding external electric field

     Computed dipole along edir(3) : 
        Dipole               -1.1224 Ry au,         -2.8528 Debye
        Dipole field         -0.0007 Ry au, 
 
        Potential amp.        0.0736 Ry
        Total length         54.7057 bohr
 

     total cpu time spent up to now is      211.4 secs

     total energy              =   -8078.14295622 Ry
     estimated scf accuracy    <       4.16029229 Ry

     total magnetization       =    91.79 Bohr mag/cell
     absolute magnetization    =   102.51 Bohr mag/cell

     iteration # 12     ecut=    50.00 Ry     beta= 0.10
     Davidson diagonalization with overlap
     ethr =  3.75E-04,  avg # of iterations =  2.0

     negative rho (up, down):  1.182E-02 1.503E-02
 
     Adding external electric field

     Computed dipole along edir(3) : 
        Dipole               -1.0987 Ry au,         -2.7926 Debye
        Dipole field         -0.0007 Ry au, 
 
        Potential amp.        0.0721 Ry
        Total length         54.7057 bohr
 
 
     Adding external electric field

     Computed dipole along edir(3) : 
        Dipole               -1.0987 Ry au,         -2.7926 Debye
        Dipole field         -0.0007 Ry au, 
 
        Potential amp.        0.0721 Ry
        Total length         54.7057 bohr
 

     total cpu time spent up to now is      227.0 secs

     total energy              =   -8078.15167832 Ry
     estimated scf accuracy    <       1.83009964 Ry

     total magnetization       =    95.48 Bohr mag/cell
     absolute magnetization    =   104.70 Bohr mag/cell

     iteration # 13     ecut=    50.00 Ry     beta= 0.10
     Davidson diagonalization with overlap
     ethr =  1.65E-04,  avg # of iterations = 11.5

     negative rho (up, down):  1.012E-02 1.413E-02
 
     Adding external electric field

     Computed dipole along edir(3) : 
        Dipole               -1.0561 Ry au,         -2.6843 Debye
        Dipole field         -0.0006 Ry au, 
 
        Potential amp.        0.0693 Ry
        Total length         54.7057 bohr
 
 
     Adding external electric field

     Computed dipole along edir(3) : 
        Dipole               -1.0561 Ry au,         -2.6843 Debye
        Dipole field         -0.0006 Ry au, 
 
        Potential amp.        0.0693 Ry
        Total length         54.7057 bohr
 

     total cpu time spent up to now is      254.1 secs

     total energy              =   -8078.18786011 Ry
     estimated scf accuracy    <       3.02300468 Ry

     total magnetization       =    92.30 Bohr mag/cell
     absolute magnetization    =   101.62 Bohr mag/cell

     iteration # 14     ecut=    50.00 Ry     beta= 0.10
     Davidson diagonalization with overlap
     ethr =  1.65E-04,  avg # of iterations =  1.0

     negative rho (up, down):  1.093E-02 1.409E-02
 
     Adding external electric field

     Computed dipole along edir(3) : 
        Dipole               -1.0696 Ry au,         -2.7187 Debye
        Dipole field         -0.0006 Ry au, 
 
        Potential amp.        0.0702 Ry
        Total length         54.7057 bohr
 
 
     Adding external electric field

     Computed dipole along edir(3) : 
        Dipole               -1.0696 Ry au,         -2.7187 Debye
        Dipole field         -0.0006 Ry au, 
 
        Potential amp.        0.0702 Ry
        Total length         54.7057 bohr
 

     total cpu time spent up to now is      268.3 secs

     total energy              =   -8078.27716844 Ry
     estimated scf accuracy    <       1.21477193 Ry

     total magnetization       =    94.35 Bohr mag/cell
     absolute magnetization    =   102.28 Bohr mag/cell

     iteration # 15     ecut=    50.00 Ry     beta= 0.10
     Davidson diagonalization with overlap
     ethr =  1.10E-04,  avg # of iterations =  1.5

     negative rho (up, down):  7.478E-03 9.837E-03
 
     Adding external electric field

     Computed dipole along edir(3) : 
        Dipole               -1.0477 Ry au,         -2.6630 Debye
        Dipole field         -0.0006 Ry au, 
 
        Potential amp.        0.0687 Ry
        Total length         54.7057 bohr
 
 
     Adding external electric field

     Computed dipole along edir(3) : 
        Dipole               -1.0477 Ry au,         -2.6630 Debye
        Dipole field         -0.0006 Ry au, 
 
        Potential amp.        0.0687 Ry
        Total length         54.7057 bohr
 

     total cpu time spent up to now is      283.1 secs

     total energy              =   -8078.36032680 Ry
     estimated scf accuracy    <       0.67094147 Ry

     total magnetization       =    97.55 Bohr mag/cell
     absolute magnetization    =   104.51 Bohr mag/cell

     iteration # 16     ecut=    50.00 Ry     beta= 0.10
     Davidson diagonalization with overlap
     ethr =  6.06E-05,  avg # of iterations =  1.5

     negative rho (up, down):  4.628E-04 4.820E-04
 
     Adding external electric field

     Computed dipole along edir(3) : 
        Dipole               -0.9822 Ry au,         -2.4966 Debye
        Dipole field         -0.0006 Ry au, 
 
        Potential amp.        0.0644 Ry
        Total length         54.7057 bohr
 
 
     Adding external electric field

     Computed dipole along edir(3) : 
        Dipole               -0.9822 Ry au,         -2.4966 Debye
        Dipole field         -0.0006 Ry au, 
 
        Potential amp.        0.0644 Ry
        Total length         54.7057 bohr
 

     total cpu time spent up to now is      298.0 secs

     total energy              =   -8078.48073287 Ry
     estimated scf accuracy    <       0.58613803 Ry

     total magnetization       =    97.99 Bohr mag/cell
     absolute magnetization    =   104.08 Bohr mag/cell

     iteration # 17     ecut=    50.00 Ry     beta= 0.10
     Davidson diagonalization with overlap
     ethr =  5.29E-05,  avg # of iterations =  2.0

     negative rho (up, down):  3.946E-05 1.702E-05
 
     Adding external electric field

     Computed dipole along edir(3) : 
        Dipole               -0.9692 Ry au,         -2.4634 Debye
        Dipole field         -0.0006 Ry au, 
 
        Potential amp.        0.0636 Ry
        Total length         54.7057 bohr
 
 
     Adding external electric field

     Computed dipole along edir(3) : 
        Dipole               -0.9692 Ry au,         -2.4634 Debye
        Dipole field         -0.0006 Ry au, 
 
        Potential amp.        0.0636 Ry
        Total length         54.7057 bohr
 

     total cpu time spent up to now is      313.8 secs

     total energy              =   -8078.50752493 Ry
     estimated scf accuracy    <       0.39629377 Ry

     total magnetization       =    97.61 Bohr mag/cell
     absolute magnetization    =   101.71 Bohr mag/cell

     iteration # 18     ecut=    50.00 Ry     beta= 0.10
     Davidson diagonalization with overlap
     ethr =  3.58E-05,  avg # of iterations =  2.0

     negative rho (up, down):  2.085E-05 5.687E-06
 
     Adding external electric field

     Computed dipole along edir(3) : 
        Dipole               -0.9675 Ry au,         -2.4592 Debye
        Dipole field         -0.0006 Ry au, 
 
        Potential amp.        0.0635 Ry
        Total length         54.7057 bohr
 
 
     Adding external electric field

     Computed dipole along edir(3) : 
        Dipole               -0.9675 Ry au,         -2.4592 Debye
        Dipole field         -0.0006 Ry au, 
 
        Potential amp.        0.0635 Ry
        Total length         54.7057 bohr
 

     total cpu time spent up to now is      329.4 secs

     total energy              =   -8078.51303863 Ry
     estimated scf accuracy    <       0.28470588 Ry

     total magnetization       =    97.04 Bohr mag/cell
     absolute magnetization    =   100.69 Bohr mag/cell

     iteration # 19     ecut=    50.00 Ry     beta= 0.10
     Davidson diagonalization with overlap
     ethr =  2.57E-05,  avg # of iterations =  2.0

     negative rho (up, down):  2.497E-05 1.302E-05
 
     Adding external electric field

     Computed dipole along edir(3) : 
        Dipole               -0.9150 Ry au,         -2.3257 Debye
        Dipole field         -0.0005 Ry au, 
 
        Potential amp.        0.0600 Ry
        Total length         54.7057 bohr
 
 
     Adding external electric field

     Computed dipole along edir(3) : 
        Dipole               -0.9150 Ry au,         -2.3257 Debye
        Dipole field         -0.0005 Ry au, 
 
        Potential amp.        0.0600 Ry
        Total length         54.7057 bohr
 

     total cpu time spent up to now is      345.8 secs

     total energy              =   -8078.54318304 Ry
     estimated scf accuracy    <       0.22860039 Ry

     total magnetization       =    96.88 Bohr mag/cell
     absolute magnetization    =   100.40 Bohr mag/cell

     iteration # 20     ecut=    50.00 Ry     beta= 0.10
     Davidson diagonalization with overlap
     ethr =  2.06E-05,  avg # of iterations =  2.0

     negative rho (up, down):  1.387E-05 5.958E-06
 
     Adding external electric field

     Computed dipole along edir(3) : 
        Dipole               -0.9031 Ry au,         -2.2954 Debye
        Dipole field         -0.0005 Ry au, 
 
        Potential amp.        0.0592 Ry
        Total length         54.7057 bohr
 
 
     Adding external electric field

     Computed dipole along edir(3) : 
        Dipole               -0.9031 Ry au,         -2.2954 Debye
        Dipole field         -0.0005 Ry au, 
 
        Potential amp.        0.0592 Ry
        Total length         54.7057 bohr
 

     total cpu time spent up to now is      362.4 secs

     total energy              =   -8078.55444632 Ry
     estimated scf accuracy    <       0.19749431 Ry

     total magnetization       =    97.13 Bohr mag/cell
     absolute magnetization    =    99.50 Bohr mag/cell

     iteration # 21     ecut=    50.00 Ry     beta= 0.10
     Davidson diagonalization with overlap
     ethr =  1.78E-05,  avg # of iterations =  1.5

     negative rho (up, down):  2.009E-05 2.341E-06
 
     Adding external electric field

     Computed dipole along edir(3) : 
        Dipole               -0.8841 Ry au,         -2.2471 Debye
        Dipole field         -0.0005 Ry au, 
 
        Potential amp.        0.0580 Ry
        Total length         54.7057 bohr
 
 
     Adding external electric field

     Computed dipole along edir(3) : 
        Dipole               -0.8841 Ry au,         -2.2471 Debye
        Dipole field         -0.0005 Ry au, 
 
        Potential amp.        0.0580 Ry
        Total length         54.7057 bohr
 

     total cpu time spent up to now is      377.0 secs

     total energy              =   -8078.55133170 Ry
     estimated scf accuracy    <       0.16666599 Ry

     total magnetization       =    97.13 Bohr mag/cell
     absolute magnetization    =    99.31 Bohr mag/cell

     iteration # 22     ecut=    50.00 Ry     beta= 0.10
     Davidson diagonalization with overlap
     ethr =  1.50E-05,  avg # of iterations =  2.0

     negative rho (up, down):  5.466E-05 2.240E-06
 
     Adding external electric field

     Computed dipole along edir(3) : 
        Dipole               -0.8124 Ry au,         -2.0649 Debye
        Dipole field         -0.0005 Ry au, 
 
        Potential amp.        0.0533 Ry
        Total length         54.7057 bohr
 
 
     Adding external electric field

     Computed dipole along edir(3) : 
        Dipole               -0.8124 Ry au,         -2.0649 Debye
        Dipole field         -0.0005 Ry au, 
 
        Potential amp.        0.0533 Ry
        Total length         54.7057 bohr
 

     total cpu time spent up to now is      392.6 secs

     total energy              =   -8078.54574781 Ry
     estimated scf accuracy    <       0.12920340 Ry

     total magnetization       =    97.04 Bohr mag/cell
     absolute magnetization    =    99.08 Bohr mag/cell

     iteration # 23     ecut=    50.00 Ry     beta= 0.10
     Davidson diagonalization with overlap
     c_bands:  2 eigenvalues not converged
     ethr =  1.17E-05,  avg # of iterations = 27.0

     negative rho (up, down):  9.414E-05 5.563E-06
 
     Adding external electric field

     Computed dipole along edir(3) : 
        Dipole               -0.7871 Ry au,         -2.0007 Debye
        Dipole field         -0.0005 Ry au, 
 
        Potential amp.        0.0516 Ry
        Total length         54.7057 bohr
 
 
     Adding external electric field

     Computed dipole along edir(3) : 
        Dipole               -0.7871 Ry au,         -2.0007 Debye
        Dipole field         -0.0005 Ry au, 
 
        Potential amp.        0.0516 Ry
        Total length         54.7057 bohr
 

     total cpu time spent up to now is      432.9 secs

     total energy              =   -8078.54814209 Ry
     estimated scf accuracy    <       0.10165092 Ry

     total magnetization       =    97.32 Bohr mag/cell
     absolute magnetization    =    98.84 Bohr mag/cell

     iteration # 24     ecut=    50.00 Ry     beta= 0.10
     Davidson diagonalization with overlap
     ethr =  9.17E-06,  avg # of iterations =  2.0

     negative rho (up, down):  1.289E-06 8.119E-10
 
     Adding external electric field

     Computed dipole along edir(3) : 
        Dipole               -0.6663 Ry au,         -1.6936 Debye
        Dipole field         -0.0004 Ry au, 
 
        Potential amp.        0.0437 Ry
        Total length         54.7057 bohr
 
 
     Adding external electric field

     Computed dipole along edir(3) : 
        Dipole               -0.6663 Ry au,         -1.6936 Debye
        Dipole field         -0.0004 Ry au, 
 
        Potential amp.        0.0437 Ry
        Total length         54.7057 bohr
 

     total cpu time spent up to now is      447.8 secs

     total energy              =   -8078.55238756 Ry
     estimated scf accuracy    <       0.09335663 Ry

     total magnetization       =    97.34 Bohr mag/cell
     absolute magnetization    =    98.78 Bohr mag/cell

     iteration # 25     ecut=    50.00 Ry     beta= 0.10
     Davidson diagonalization with overlap
     ethr =  8.43E-06,  avg # of iterations =  2.0

     negative rho (up, down):  4.386E-04 2.431E-04
 
     Adding external electric field

     Computed dipole along edir(3) : 
        Dipole               -0.5632 Ry au,         -1.4315 Debye
        Dipole field         -0.0003 Ry au, 
 
        Potential amp.        0.0369 Ry
        Total length         54.7057 bohr
 
 
     Adding external electric field

     Computed dipole along edir(3) : 
        Dipole               -0.5632 Ry au,         -1.4315 Debye
        Dipole field         -0.0003 Ry au, 
 
        Potential amp.        0.0369 Ry
        Total length         54.7057 bohr
 

     total cpu time spent up to now is      464.0 secs

     total energy              =   -8078.55387345 Ry
     estimated scf accuracy    <       0.09551221 Ry

     total magnetization       =    97.52 Bohr mag/cell
     absolute magnetization    =    98.93 Bohr mag/cell

     iteration # 26     ecut=    50.00 Ry     beta= 0.10
     Davidson diagonalization with overlap
     ethr =  8.43E-06,  avg # of iterations =  2.0

     negative rho (up, down):  4.126E-04 1.655E-04
 
     Adding external electric field

     Computed dipole along edir(3) : 
        Dipole               -0.5698 Ry au,         -1.4482 Debye
        Dipole field         -0.0003 Ry au, 
 
        Potential amp.        0.0374 Ry
        Total length         54.7057 bohr
 
 
     Adding external electric field

     Computed dipole along edir(3) : 
        Dipole               -0.5698 Ry au,         -1.4482 Debye
        Dipole field         -0.0003 Ry au, 
 
        Potential amp.        0.0374 Ry
        Total length         54.7057 bohr
 

     total cpu time spent up to now is      480.2 secs

     total energy              =   -8078.55143566 Ry
     estimated scf accuracy    <       0.08468983 Ry

     total magnetization       =    97.33 Bohr mag/cell
     absolute magnetization    =    98.74 Bohr mag/cell

     iteration # 27     ecut=    50.00 Ry     beta= 0.10
     Davidson diagonalization with overlap
     ethr =  7.64E-06,  avg # of iterations =  1.5

     negative rho (up, down):  7.222E-04 4.427E-04
 
     Adding external electric field

     Computed dipole along edir(3) : 
        Dipole               -0.5448 Ry au,         -1.3848 Debye
        Dipole field         -0.0003 Ry au, 
 
        Potential amp.        0.0357 Ry
        Total length         54.7057 bohr
 
 
     Adding external electric field

     Computed dipole along edir(3) : 
        Dipole               -0.5448 Ry au,         -1.3848 Debye
        Dipole field         -0.0003 Ry au, 
 
        Potential amp.        0.0357 Ry
        Total length         54.7057 bohr
 

     total cpu time spent up to now is      494.7 secs

     total energy              =   -8078.55210649 Ry
     estimated scf accuracy    <       0.07855283 Ry

     total magnetization       =    97.25 Bohr mag/cell
     absolute magnetization    =    98.60 Bohr mag/cell

     iteration # 28     ecut=    50.00 Ry     beta= 0.10
     Davidson diagonalization with overlap
     ethr =  7.09E-06,  avg # of iterations =  2.0

     negative rho (up, down):  5.795E-04 2.808E-04
 
     Adding external electric field

     Computed dipole along edir(3) : 
        Dipole               -0.5409 Ry au,         -1.3747 Debye
        Dipole field         -0.0003 Ry au, 
 
        Potential amp.        0.0355 Ry
        Total length         54.7057 bohr
 
 
     Adding external electric field

     Computed dipole along edir(3) : 
        Dipole               -0.5409 Ry au,         -1.3747 Debye
        Dipole field         -0.0003 Ry au, 
 
        Potential amp.        0.0355 Ry
        Total length         54.7057 bohr
 

     total cpu time spent up to now is      510.5 secs

     total energy              =   -8078.55199603 Ry
     estimated scf accuracy    <       0.07507085 Ry

     total magnetization       =    97.25 Bohr mag/cell
     absolute magnetization    =    98.65 Bohr mag/cell

     iteration # 29     ecut=    50.00 Ry     beta= 0.10
     Davidson diagonalization with overlap
     ethr =  6.78E-06,  avg # of iterations =  2.0

     negative rho (up, down):  9.046E-04 4.943E-04
 
     Adding external electric field

     Computed dipole along edir(3) : 
        Dipole               -0.5226 Ry au,         -1.3284 Debye
        Dipole field         -0.0003 Ry au, 
 
        Potential amp.        0.0343 Ry
        Total length         54.7057 bohr
 
 
     Adding external electric field

     Computed dipole along edir(3) : 
        Dipole               -0.5226 Ry au,         -1.3284 Debye
        Dipole field         -0.0003 Ry au, 
 
        Potential amp.        0.0343 Ry
        Total length         54.7057 bohr
 

     total cpu time spent up to now is      526.1 secs

     total energy              =   -8078.55135735 Ry
     estimated scf accuracy    <       0.08587421 Ry

     total magnetization       =    97.39 Bohr mag/cell
     absolute magnetization    =    98.83 Bohr mag/cell

     iteration # 30     ecut=    50.00 Ry     beta= 0.10
     Davidson diagonalization with overlap
     ethr =  6.78E-06,  avg # of iterations =  1.0

     negative rho (up, down):  3.068E-03 2.075E-03
 
     Adding external electric field

     Computed dipole along edir(3) : 
        Dipole               -0.4430 Ry au,         -1.1260 Debye
        Dipole field         -0.0003 Ry au, 
 
        Potential amp.        0.0291 Ry
        Total length         54.7057 bohr
 
 
     Adding external electric field

     Computed dipole along edir(3) : 
        Dipole               -0.4430 Ry au,         -1.1260 Debye
        Dipole field         -0.0003 Ry au, 
 
        Potential amp.        0.0291 Ry
        Total length         54.7057 bohr
 

     total cpu time spent up to now is      540.2 secs

     total energy              =   -8078.54780346 Ry
     estimated scf accuracy    <       0.08049316 Ry

     total magnetization       =    97.35 Bohr mag/cell
     absolute magnetization    =    98.80 Bohr mag/cell

     iteration # 31     ecut=    50.00 Ry     beta= 0.10
     Davidson diagonalization with overlap
     ethr =  6.78E-06,  avg # of iterations =  2.0

     negative rho (up, down):  3.326E-03 2.651E-03
 
     Adding external electric field

     Computed dipole along edir(3) : 
        Dipole               -0.4592 Ry au,         -1.1671 Debye
        Dipole field         -0.0003 Ry au, 
 
        Potential amp.        0.0301 Ry
        Total length         54.7057 bohr
 
 
     Adding external electric field

     Computed dipole along edir(3) : 
        Dipole               -0.4592 Ry au,         -1.1671 Debye
        Dipole field         -0.0003 Ry au, 
 
        Potential amp.        0.0301 Ry
        Total length         54.7057 bohr
 

     total cpu time spent up to now is      556.0 secs

     total energy              =   -8078.54507401 Ry
     estimated scf accuracy    <       0.07227566 Ry

     total magnetization       =    97.37 Bohr mag/cell
     absolute magnetization    =    98.86 Bohr mag/cell

     iteration # 32     ecut=    50.00 Ry     beta= 0.10
     Davidson diagonalization with overlap
     ethr =  6.52E-06,  avg # of iterations =  2.0

     negative rho (up, down):  2.236E-03 1.437E-03
 
     Adding external electric field

     Computed dipole along edir(3) : 
        Dipole               -0.4558 Ry au,         -1.1584 Debye
        Dipole field         -0.0003 Ry au, 
 
        Potential amp.        0.0299 Ry
        Total length         54.7057 bohr
 
 
     Adding external electric field

     Computed dipole along edir(3) : 
        Dipole               -0.4558 Ry au,         -1.1584 Debye
        Dipole field         -0.0003 Ry au, 
 
        Potential amp.        0.0299 Ry
        Total length         54.7057 bohr
 

     total cpu time spent up to now is      571.4 secs

     total energy              =   -8078.54702802 Ry
     estimated scf accuracy    <       0.07211633 Ry

     total magnetization       =    97.42 Bohr mag/cell
     absolute magnetization    =    98.74 Bohr mag/cell

     iteration # 33     ecut=    50.00 Ry     beta= 0.10
     Davidson diagonalization with overlap
     ethr =  6.51E-06,  avg # of iterations =  1.0

     negative rho (up, down):  1.365E-03 6.473E-04
 
     Adding external electric field

     Computed dipole along edir(3) : 
        Dipole               -0.4520 Ry au,         -1.1489 Debye
        Dipole field         -0.0003 Ry au, 
 
        Potential amp.        0.0296 Ry
        Total length         54.7057 bohr
 
 
     Adding external electric field

     Computed dipole along edir(3) : 
        Dipole               -0.4520 Ry au,         -1.1489 Debye
        Dipole field         -0.0003 Ry au, 
 
        Potential amp.        0.0296 Ry
        Total length         54.7057 bohr
 

     total cpu time spent up to now is      585.1 secs

     total energy              =   -8078.54634819 Ry
     estimated scf accuracy    <       0.06840888 Ry

     total magnetization       =    97.28 Bohr mag/cell
     absolute magnetization    =    98.71 Bohr mag/cell

     iteration # 34     ecut=    50.00 Ry     beta= 0.10
     Davidson diagonalization with overlap
     ethr =  6.17E-06,  avg # of iterations =  2.0

     negative rho (up, down):  9.011E-04 1.803E-04
 
     Adding external electric field

     Computed dipole along edir(3) : 
        Dipole               -0.3347 Ry au,         -0.8508 Debye
        Dipole field         -0.0002 Ry au, 
 
        Potential amp.        0.0220 Ry
        Total length         54.7057 bohr
 
 
     Adding external electric field

     Computed dipole along edir(3) : 
        Dipole               -0.3347 Ry au,         -0.8508 Debye
        Dipole field         -0.0002 Ry au, 
 
        Potential amp.        0.0220 Ry
        Total length         54.7057 bohr
 

     total cpu time spent up to now is      600.8 secs

     total energy              =   -8078.54062753 Ry
     estimated scf accuracy    <       0.06716013 Ry

     total magnetization       =    97.30 Bohr mag/cell
     absolute magnetization    =    98.74 Bohr mag/cell

     iteration # 35     ecut=    50.00 Ry     beta= 0.10
     Davidson diagonalization with overlap
     ethr =  6.06E-06,  avg # of iterations =  2.0

     negative rho (up, down):  1.928E-03 6.811E-04
 
     Adding external electric field

     Computed dipole along edir(3) : 
        Dipole               -0.3048 Ry au,         -0.7747 Debye
        Dipole field         -0.0002 Ry au, 
 
        Potential amp.        0.0200 Ry
        Total length         54.7057 bohr
 
 
     Adding external electric field

     Computed dipole along edir(3) : 
        Dipole               -0.3048 Ry au,         -0.7747 Debye
        Dipole field         -0.0002 Ry au, 
 
        Potential amp.        0.0200 Ry
        Total length         54.7057 bohr
 

     total cpu time spent up to now is      616.3 secs

     total energy              =   -8078.54307129 Ry
     estimated scf accuracy    <       0.06318771 Ry

     total magnetization       =    97.42 Bohr mag/cell
     absolute magnetization    =    98.83 Bohr mag/cell

     iteration # 36     ecut=    50.00 Ry     beta= 0.10
     Davidson diagonalization with overlap
     ethr =  5.70E-06,  avg # of iterations = 11.0

     negative rho (up, down):  4.078E-03 2.090E-03
 
     Adding external electric field

     Computed dipole along edir(3) : 
        Dipole               -0.2207 Ry au,         -0.5610 Debye
        Dipole field         -0.0001 Ry au, 
 
        Potential amp.        0.0145 Ry
        Total length         54.7057 bohr
 
 
     Adding external electric field

     Computed dipole along edir(3) : 
        Dipole               -0.2207 Ry au,         -0.5610 Debye
        Dipole field         -0.0001 Ry au, 
 
        Potential amp.        0.0145 Ry
        Total length         54.7057 bohr
 

     total cpu time spent up to now is      636.8 secs

     total energy              =   -8078.54593917 Ry
     estimated scf accuracy    <       0.05872074 Ry

     total magnetization       =    97.31 Bohr mag/cell
     absolute magnetization    =    98.75 Bohr mag/cell

     iteration # 37     ecut=    50.00 Ry     beta= 0.10
     Davidson diagonalization with overlap
     ethr =  5.30E-06,  avg # of iterations =  2.0

     negative rho (up, down):  1.683E-02 1.338E-02
 
     Adding external electric field

     Computed dipole along edir(3) : 
        Dipole                0.0488 Ry au,          0.1241 Debye
        Dipole field          0.0000 Ry au, 
 
        Potential amp.       -0.0032 Ry
        Total length         54.7057 bohr
 
 
     Adding external electric field

     Computed dipole along edir(3) : 
        Dipole                0.0488 Ry au,          0.1241 Debye
        Dipole field          0.0000 Ry au, 
 
        Potential amp.       -0.0032 Ry
        Total length         54.7057 bohr
 

     total cpu time spent up to now is      652.4 secs

     total energy              =   -8078.55119955 Ry
     estimated scf accuracy    <       0.05498591 Ry

     total magnetization       =    97.24 Bohr mag/cell
     absolute magnetization    =    98.67 Bohr mag/cell

     iteration # 38     ecut=    50.00 Ry     beta= 0.10
     Davidson diagonalization with overlap
     c_bands:  4 eigenvalues not converged
     ethr =  4.96E-06,  avg # of iterations = 12.5

     negative rho (up, down):  5.501E-03 3.607E-03
 
     Adding external electric field

     Computed dipole along edir(3) : 
        Dipole               -0.0345 Ry au,         -0.0876 Debye
        Dipole field         -0.0000 Ry au, 
 
        Potential amp.        0.0023 Ry
        Total length         54.7057 bohr
 
 
     Adding external electric field

     Computed dipole along edir(3) : 
        Dipole               -0.0345 Ry au,         -0.0876 Debye
        Dipole field         -0.0000 Ry au, 
 
        Potential amp.        0.0023 Ry
        Total length         54.7057 bohr
 

     total cpu time spent up to now is      678.8 secs

     total energy              =   -8078.55556163 Ry
     estimated scf accuracy    <       0.04456038 Ry

     total magnetization       =    97.10 Bohr mag/cell
     absolute magnetization    =    98.48 Bohr mag/cell

     iteration # 39     ecut=    50.00 Ry     beta= 0.10
     Davidson diagonalization with overlap
     ethr =  4.02E-06,  avg # of iterations =  3.0

     negative rho (up, down):  6.449E-03 5.239E-03
 
     Adding external electric field

     Computed dipole along edir(3) : 
        Dipole                0.0421 Ry au,          0.1070 Debye
        Dipole field          0.0000 Ry au, 
 
        Potential amp.       -0.0028 Ry
        Total length         54.7057 bohr
 
 
     Adding external electric field

     Computed dipole along edir(3) : 
        Dipole                0.0421 Ry au,          0.1070 Debye
        Dipole field          0.0000 Ry au, 
 
        Potential amp.       -0.0028 Ry
        Total length         54.7057 bohr
 

     total cpu time spent up to now is      695.9 secs

     total energy              =   -8078.56006613 Ry
     estimated scf accuracy    <       0.01562373 Ry

     total magnetization       =    97.31 Bohr mag/cell
     absolute magnetization    =    98.70 Bohr mag/cell

     iteration # 40     ecut=    50.00 Ry     beta= 0.10
     Davidson diagonalization with overlap
     c_bands:  4 eigenvalues not converged
     ethr =  1.41E-06,  avg # of iterations = 12.5

     negative rho (up, down):  5.579E-04 4.084E-04
 
     Adding external electric field

     Computed dipole along edir(3) : 
        Dipole               -0.0977 Ry au,         -0.2483 Debye
        Dipole field         -0.0001 Ry au, 
 
        Potential amp.        0.0064 Ry
        Total length         54.7057 bohr
 
 
     Adding external electric field

     Computed dipole along edir(3) : 
        Dipole               -0.0977 Ry au,         -0.2483 Debye
        Dipole field         -0.0001 Ry au, 
 
        Potential amp.        0.0064 Ry
        Total length         54.7057 bohr
 

     total cpu time spent up to now is      719.6 secs

     total energy              =   -8078.56003758 Ry
     estimated scf accuracy    <       0.00767032 Ry

     total magnetization       =    97.15 Bohr mag/cell
     absolute magnetization    =    98.56 Bohr mag/cell

     iteration # 41     ecut=    50.00 Ry     beta= 0.10
     Davidson diagonalization with overlap
     c_bands:  1 eigenvalues not converged
     ethr =  6.92E-07,  avg # of iterations = 12.0

     negative rho (up, down):  5.890E-04 5.692E-04
 
     Adding external electric field

     Computed dipole along edir(3) : 
        Dipole               -0.1013 Ry au,         -0.2576 Debye
        Dipole field         -0.0001 Ry au, 
 
        Potential amp.        0.0066 Ry
        Total length         54.7057 bohr
 
 
     Adding external electric field

     Computed dipole along edir(3) : 
        Dipole               -0.1013 Ry au,         -0.2576 Debye
        Dipole field         -0.0001 Ry au, 
 
        Potential amp.        0.0066 Ry
        Total length         54.7057 bohr
 

     total cpu time spent up to now is      741.6 secs

     total energy              =   -8078.56050258 Ry
     estimated scf accuracy    <       0.00409074 Ry

     total magnetization       =    97.15 Bohr mag/cell
     absolute magnetization    =    98.55 Bohr mag/cell

     iteration # 42     ecut=    50.00 Ry     beta= 0.10
     Davidson diagonalization with overlap
     ethr =  3.69E-07,  avg # of iterations =  2.0

     negative rho (up, down):  1.595E-04 1.537E-04
 
     Adding external electric field

     Computed dipole along edir(3) : 
        Dipole               -0.1674 Ry au,         -0.4256 Debye
        Dipole field         -0.0001 Ry au, 
 
        Potential amp.        0.0110 Ry
        Total length         54.7057 bohr
 
 
     Adding external electric field

     Computed dipole along edir(3) : 
        Dipole               -0.1674 Ry au,         -0.4256 Debye
        Dipole field         -0.0001 Ry au, 
 
        Potential amp.        0.0110 Ry
        Total length         54.7057 bohr
 

     total cpu time spent up to now is      757.3 secs

     total energy              =   -8078.56081891 Ry
     estimated scf accuracy    <       0.00346515 Ry

     total magnetization       =    97.11 Bohr mag/cell
     absolute magnetization    =    98.50 Bohr mag/cell

     iteration # 43     ecut=    50.00 Ry     beta= 0.10
     Davidson diagonalization with overlap
     ethr =  3.13E-07,  avg # of iterations =  2.0

     negative rho (up, down):  5.612E-05 5.425E-05
 
     Adding external electric field

     Computed dipole along edir(3) : 
        Dipole               -0.1885 Ry au,         -0.4791 Debye
        Dipole field         -0.0001 Ry au, 
 
        Potential amp.        0.0124 Ry
        Total length         54.7057 bohr
 
 
     Adding external electric field

     Computed dipole along edir(3) : 
        Dipole               -0.1885 Ry au,         -0.4791 Debye
        Dipole field         -0.0001 Ry au, 
 
        Potential amp.        0.0124 Ry
        Total length         54.7057 bohr
 

     total cpu time spent up to now is      773.6 secs

     total energy              =   -8078.56103863 Ry
     estimated scf accuracy    <       0.00224303 Ry

     total magnetization       =    97.13 Bohr mag/cell
     absolute magnetization    =    98.45 Bohr mag/cell

     iteration # 44     ecut=    50.00 Ry     beta= 0.10
     Davidson diagonalization with overlap
     ethr =  2.02E-07,  avg # of iterations =  2.0

     negative rho (up, down):  1.270E-05 1.160E-05
 
     Adding external electric field

     Computed dipole along edir(3) : 
        Dipole               -0.1906 Ry au,         -0.4844 Debye
        Dipole field         -0.0001 Ry au, 
 
        Potential amp.        0.0125 Ry
        Total length         54.7057 bohr
 
 
     Adding external electric field

     Computed dipole along edir(3) : 
        Dipole               -0.1906 Ry au,         -0.4844 Debye
        Dipole field         -0.0001 Ry au, 
 
        Potential amp.        0.0125 Ry
        Total length         54.7057 bohr
 

     total cpu time spent up to now is      789.1 secs

     total energy              =   -8078.56114765 Ry
     estimated scf accuracy    <       0.00158118 Ry

     total magnetization       =    97.14 Bohr mag/cell
     absolute magnetization    =    98.41 Bohr mag/cell

     iteration # 45     ecut=    50.00 Ry     beta= 0.10
     Davidson diagonalization with overlap
     ethr =  1.43E-07,  avg # of iterations =  2.0

     negative rho (up, down):  1.235E-05 1.128E-05
 
     Adding external electric field

     Computed dipole along edir(3) : 
        Dipole               -0.1969 Ry au,         -0.5006 Debye
        Dipole field         -0.0001 Ry au, 
 
        Potential amp.        0.0129 Ry
        Total length         54.7057 bohr
 
 
     Adding external electric field

     Computed dipole along edir(3) : 
        Dipole               -0.1969 Ry au,         -0.5006 Debye
        Dipole field         -0.0001 Ry au, 
 
        Potential amp.        0.0129 Ry
        Total length         54.7057 bohr
 

     total cpu time spent up to now is      804.8 secs

     total energy              =   -8078.56120133 Ry
     estimated scf accuracy    <       0.00122684 Ry

     total magnetization       =    97.12 Bohr mag/cell
     absolute magnetization    =    98.35 Bohr mag/cell

     iteration # 46     ecut=    50.00 Ry     beta= 0.10
     Davidson diagonalization with overlap
     ethr =  1.11E-07,  avg # of iterations =  1.0

     negative rho (up, down):  1.039E-05 8.817E-06
 
     Adding external electric field

     Computed dipole along edir(3) : 
        Dipole               -0.2091 Ry au,         -0.5315 Debye
        Dipole field         -0.0001 Ry au, 
 
        Potential amp.        0.0137 Ry
        Total length         54.7057 bohr
 
 
     Adding external electric field

     Computed dipole along edir(3) : 
        Dipole               -0.2091 Ry au,         -0.5315 Debye
        Dipole field         -0.0001 Ry au, 
 
        Potential amp.        0.0137 Ry
        Total length         54.7057 bohr
 

     total cpu time spent up to now is      818.8 secs

     total energy              =   -8078.56119287 Ry
     estimated scf accuracy    <       0.00118022 Ry

     total magnetization       =    97.12 Bohr mag/cell
     absolute magnetization    =    98.34 Bohr mag/cell

     iteration # 47     ecut=    50.00 Ry     beta= 0.10
     Davidson diagonalization with overlap
     ethr =  1.07E-07,  avg # of iterations =  1.5

     negative rho (up, down):  2.244E-05 2.378E-05
 
     Adding external electric field

     Computed dipole along edir(3) : 
        Dipole               -0.2205 Ry au,         -0.5605 Debye
        Dipole field         -0.0001 Ry au, 
 
        Potential amp.        0.0145 Ry
        Total length         54.7057 bohr
 
 
     Adding external electric field

     Computed dipole along edir(3) : 
        Dipole               -0.2205 Ry au,         -0.5605 Debye
        Dipole field         -0.0001 Ry au, 
 
        Potential amp.        0.0145 Ry
        Total length         54.7057 bohr
 

     total cpu time spent up to now is      832.9 secs

     total energy              =   -8078.56115495 Ry
     estimated scf accuracy    <       0.00109263 Ry

     total magnetization       =    97.12 Bohr mag/cell
     absolute magnetization    =    98.34 Bohr mag/cell

     iteration # 48     ecut=    50.00 Ry     beta= 0.10
     Davidson diagonalization with overlap
     ethr =  9.86E-08,  avg # of iterations =  1.5

     negative rho (up, down):  2.753E-05 2.776E-05
 
     Adding external electric field

     Computed dipole along edir(3) : 
        Dipole               -0.2176 Ry au,         -0.5530 Debye
        Dipole field         -0.0001 Ry au, 
 
        Potential amp.        0.0143 Ry
        Total length         54.7057 bohr
 
 
     Adding external electric field

     Computed dipole along edir(3) : 
        Dipole               -0.2176 Ry au,         -0.5530 Debye
        Dipole field         -0.0001 Ry au, 
 
        Potential amp.        0.0143 Ry
        Total length         54.7057 bohr
 

     total cpu time spent up to now is      847.9 secs

     total energy              =   -8078.56118236 Ry
     estimated scf accuracy    <       0.00073837 Ry

     total magnetization       =    97.10 Bohr mag/cell
     absolute magnetization    =    98.33 Bohr mag/cell

     iteration # 49     ecut=    50.00 Ry     beta= 0.10
     Davidson diagonalization with overlap
     ethr =  6.66E-08,  avg # of iterations =  2.0

     negative rho (up, down):  4.747E-05 3.753E-05
 
     Adding external electric field

     Computed dipole along edir(3) : 
        Dipole               -0.1987 Ry au,         -0.5050 Debye
        Dipole field         -0.0001 Ry au, 
 
        Potential amp.        0.0130 Ry
        Total length         54.7057 bohr
 
 
     Adding external electric field

     Computed dipole along edir(3) : 
        Dipole               -0.1987 Ry au,         -0.5050 Debye
        Dipole field         -0.0001 Ry au, 
 
        Potential amp.        0.0130 Ry
        Total length         54.7057 bohr
 

     total cpu time spent up to now is      863.1 secs

     total energy              =   -8078.56125322 Ry
     estimated scf accuracy    <       0.00048999 Ry

     total magnetization       =    97.10 Bohr mag/cell
     absolute magnetization    =    98.33 Bohr mag/cell

     iteration # 50     ecut=    50.00 Ry     beta= 0.10
     Davidson diagonalization with overlap
     ethr =  4.42E-08,  avg # of iterations =  2.0

     negative rho (up, down):  1.354E-04 8.826E-05
 
     Adding external electric field

     Computed dipole along edir(3) : 
        Dipole               -0.1788 Ry au,         -0.4546 Debye
        Dipole field         -0.0001 Ry au, 
 
        Potential amp.        0.0117 Ry
        Total length         54.7057 bohr
 
 
     Adding external electric field

     Computed dipole along edir(3) : 
        Dipole               -0.1788 Ry au,         -0.4546 Debye
        Dipole field         -0.0001 Ry au, 
 
        Potential amp.        0.0117 Ry
        Total length         54.7057 bohr
 

     total cpu time spent up to now is      878.9 secs

     total energy              =   -8078.56132141 Ry
     estimated scf accuracy    <       0.00038590 Ry

     total magnetization       =    97.11 Bohr mag/cell
     absolute magnetization    =    98.34 Bohr mag/cell

     iteration # 51     ecut=    50.00 Ry     beta= 0.10
     Davidson diagonalization with overlap
     ethr =  3.48E-08,  avg # of iterations =  2.0

     negative rho (up, down):  5.904E-04 3.464E-04
 
     Adding external electric field

     Computed dipole along edir(3) : 
        Dipole               -0.1575 Ry au,         -0.4002 Debye
        Dipole field         -0.0001 Ry au, 
 
        Potential amp.        0.0103 Ry
        Total length         54.7057 bohr
 
 
     Adding external electric field

     Computed dipole along edir(3) : 
        Dipole               -0.1575 Ry au,         -0.4002 Debye
        Dipole field         -0.0001 Ry au, 
 
        Potential amp.        0.0103 Ry
        Total length         54.7057 bohr
 

     total cpu time spent up to now is      894.7 secs

     total energy              =   -8078.56137913 Ry
     estimated scf accuracy    <       0.00029884 Ry

     total magnetization       =    97.12 Bohr mag/cell
     absolute magnetization    =    98.35 Bohr mag/cell

     iteration # 52     ecut=    50.00 Ry     beta= 0.10
     Davidson diagonalization with overlap
     ethr =  2.70E-08,  avg # of iterations =  2.0

     negative rho (up, down):  1.148E-03 7.653E-04
 
     Adding external electric field

     Computed dipole along edir(3) : 
        Dipole               -0.1488 Ry au,         -0.3783 Debye
        Dipole field         -0.0001 Ry au, 
 
        Potential amp.        0.0098 Ry
        Total length         54.7057 bohr
 
 
     Adding external electric field

     Computed dipole along edir(3) : 
        Dipole               -0.1488 Ry au,         -0.3783 Debye
        Dipole field         -0.0001 Ry au, 
 
        Potential amp.        0.0098 Ry
        Total length         54.7057 bohr
 

     total cpu time spent up to now is      910.5 secs

     total energy              =   -8078.56139653 Ry
     estimated scf accuracy    <       0.00016806 Ry

     total magnetization       =    97.13 Bohr mag/cell
     absolute magnetization    =    98.36 Bohr mag/cell

     iteration # 53     ecut=    50.00 Ry     beta= 0.10
     Davidson diagonalization with overlap
     ethr =  1.52E-08,  avg # of iterations =  2.0

     negative rho (up, down):  1.286E-03 8.566E-04
 
     Adding external electric field

     Computed dipole along edir(3) : 
        Dipole               -0.1480 Ry au,         -0.3761 Debye
        Dipole field         -0.0001 Ry au, 
 
        Potential amp.        0.0097 Ry
        Total length         54.7057 bohr
 
 
     Adding external electric field

     Computed dipole along edir(3) : 
        Dipole               -0.1480 Ry au,         -0.3761 Debye
        Dipole field         -0.0001 Ry au, 
 
        Potential amp.        0.0097 Ry
        Total length         54.7057 bohr
 

     total cpu time spent up to now is      926.6 secs

     total energy              =   -8078.56140074 Ry
     estimated scf accuracy    <       0.00009880 Ry

     total magnetization       =    97.13 Bohr mag/cell
     absolute magnetization    =    98.36 Bohr mag/cell

     iteration # 54     ecut=    50.00 Ry     beta= 0.10
     Davidson diagonalization with overlap
     ethr =  8.92E-09,  avg # of iterations =  2.0

     negative rho (up, down):  1.752E-03 1.367E-03
 
     Adding external electric field

     Computed dipole along edir(3) : 
        Dipole               -0.1362 Ry au,         -0.3463 Debye
        Dipole field         -0.0001 Ry au, 
 
        Potential amp.        0.0089 Ry
        Total length         54.7057 bohr
 
 
     Adding external electric field

     Computed dipole along edir(3) : 
        Dipole               -0.1362 Ry au,         -0.3463 Debye
        Dipole field         -0.0001 Ry au, 
 
        Potential amp.        0.0089 Ry
        Total length         54.7057 bohr
 

     total cpu time spent up to now is      943.0 secs

     total energy              =   -8078.56140115 Ry
     estimated scf accuracy    <       0.00006052 Ry

     total magnetization       =    97.13 Bohr mag/cell
     absolute magnetization    =    98.35 Bohr mag/cell

     iteration # 55     ecut=    50.00 Ry     beta= 0.10
     Davidson diagonalization with overlap
     ethr =  5.46E-09,  avg # of iterations =  2.0

     negative rho (up, down):  1.752E-03 1.358E-03
 
     Adding external electric field

     Computed dipole along edir(3) : 
        Dipole               -0.1348 Ry au,         -0.3427 Debye
        Dipole field         -0.0001 Ry au, 
 
        Potential amp.        0.0088 Ry
        Total length         54.7057 bohr
 
 
     Adding external electric field

     Computed dipole along edir(3) : 
        Dipole               -0.1348 Ry au,         -0.3427 Debye
        Dipole field         -0.0001 Ry au, 
 
        Potential amp.        0.0088 Ry
        Total length         54.7057 bohr
 

     total cpu time spent up to now is      959.0 secs

     total energy              =   -8078.56140265 Ry
     estimated scf accuracy    <       0.00002148 Ry

     total magnetization       =    97.13 Bohr mag/cell
     absolute magnetization    =    98.35 Bohr mag/cell

     iteration # 56     ecut=    50.00 Ry     beta= 0.10
     Davidson diagonalization with overlap
     ethr =  1.94E-09,  avg # of iterations =  2.0

     negative rho (up, down):  1.447E-03 9.492E-04
 
     Adding external electric field

     Computed dipole along edir(3) : 
        Dipole               -0.1371 Ry au,         -0.3484 Debye
        Dipole field         -0.0001 Ry au, 
 
        Potential amp.        0.0090 Ry
        Total length         54.7057 bohr
 
 
     Adding external electric field

     Computed dipole along edir(3) : 
        Dipole               -0.1371 Ry au,         -0.3484 Debye
        Dipole field         -0.0001 Ry au, 
 
        Potential amp.        0.0090 Ry
        Total length         54.7057 bohr
 

     total cpu time spent up to now is      975.1 secs

     total energy              =   -8078.56140192 Ry
     estimated scf accuracy    <       0.00001735 Ry

     total magnetization       =    97.13 Bohr mag/cell
     absolute magnetization    =    98.35 Bohr mag/cell

     iteration # 57     ecut=    50.00 Ry     beta= 0.10
     Davidson diagonalization with overlap
     ethr =  1.57E-09,  avg # of iterations =  2.0

     negative rho (up, down):  1.310E-03 7.810E-04
 
     Adding external electric field

     Computed dipole along edir(3) : 
        Dipole               -0.1358 Ry au,         -0.3452 Debye
        Dipole field         -0.0001 Ry au, 
 
        Potential amp.        0.0089 Ry
        Total length         54.7057 bohr
 
 
     Adding external electric field

     Computed dipole along edir(3) : 
        Dipole               -0.1358 Ry au,         -0.3452 Debye
        Dipole field         -0.0001 Ry au, 
 
        Potential amp.        0.0089 Ry
        Total length         54.7057 bohr
 

     total cpu time spent up to now is      991.3 secs

     total energy              =   -8078.56140156 Ry
     estimated scf accuracy    <       0.00000745 Ry

     total magnetization       =    97.13 Bohr mag/cell
     absolute magnetization    =    98.35 Bohr mag/cell

     iteration # 58     ecut=    50.00 Ry     beta= 0.10
     Davidson diagonalization with overlap
     ethr =  6.72E-10,  avg # of iterations =  3.0

     negative rho (up, down):  1.281E-03 7.463E-04
 
     Adding external electric field

     Computed dipole along edir(3) : 
        Dipole               -0.1328 Ry au,         -0.3375 Debye
[...]
    -5.9963  -5.9876  -5.9752  -5.9514  -5.9076  -5.8963  -5.8641  -5.8430
    -5.8373  -5.8260  -5.8208  -5.7745  -5.7628  -5.7587  -5.6933  -5.6775
    -5.6714  -5.6496  -5.6248  -5.6124  -5.5881  -5.5788  -5.5643  -5.5427
    -5.5402  -5.5141  -5.5038  -5.5014  -5.4812  -5.4770  -5.4579  -5.3745
    -5.3564  -5.3249  -5.2788  -5.2586  -5.2502  -5.2440  -5.2292  -5.1630
    -5.1538  -5.1143  -5.0745  -5.0482  -5.0404  -4.9942  -4.9251  -4.9024
    -4.8683  -4.8546  -4.8097  -4.8008  -4.7831  -4.7785  -4.7447  -4.7358
    -4.6589  -4.6385  -4.5991  -4.5770  -4.5492  -4.4778  -4.4464  -4.4070
    -4.3931  -4.3792  -4.3134  -4.2919  -4.2847  -4.2417  -4.2187  -4.2037
    -4.1729  -4.1492  -4.1105  -4.0652  -4.0590  -4.0089  -3.9797  -3.9687
    -3.8942  -3.8654  -3.8529  -3.8412  -3.8109  -3.7613  -3.7455  -3.7392
    -3.7178  -3.7126  -3.6767  -3.6751  -3.6200  -3.6177  -3.6007  -3.5894
    -3.5416  -3.5349  -3.5276  -3.5119  -3.4996  -3.4835  -3.4699  -3.4293
    -3.4170  -3.4134  -3.3860  -3.3764  -3.3667  -3.3460  -3.3303  -3.3220
    -3.2912  -3.2821  -3.2763  -3.2579  -3.2143  -3.1983  -3.1829  -3.1566
    -3.1415  -3.0991  -3.0929  -3.0729  -3.0535  -3.0353  -3.0290  -3.0013
    -2.9770  -2.9449  -2.9399  -2.9106  -2.8852  -2.8600  -2.8538  -2.8261
    -2.8132  -2.7792  -2.7393  -2.7157  -2.7071  -2.6921  -2.6869  -2.6865
    -2.6722  -2.6574  -2.6419  -2.6286  -2.6237  -2.6091  -2.5902  -2.5822
    -2.5595  -2.5470  -2.5214  -2.5183  -2.5096  -2.4990  -2.4719  -2.4659
    -2.4348  -2.4195  -2.4024  -2.3915  -2.3732  -2.3499  -2.3416  -2.3175
    -2.3001  -2.2885  -2.2779  -2.2671  -2.2319  -2.2043  -2.1909  -2.1846
    -2.1601  -2.1507  -2.1338  -2.0881  -2.0868  -2.0668  -2.0444  -2.0252
    -2.0146  -2.0031  -1.9830  -1.9666  -1.9633  -1.9354  -1.9061  -1.8833
    -1.8744  -1.8645  -1.8553  -1.8343  -1.8244  -1.8176  -1.8059  -1.7930
    -1.7273  -1.6918  -1.6813  -1.6749  -1.6533  -1.6278  -1.6241  -1.6082
    -1.6036  -1.5826  -1.5760  -1.5362  -1.5334  -1.5149  -1.4940  -1.4491
    -1.4418  -1.4325  -1.4087  -1.3797  -1.3734  -1.3486  -1.3399  -1.3219
    -1.3107  -1.2999  -1.2580  -1.2170  -1.1766  -1.1702  -1.1479  -1.1110
    -1.0682  -1.0407  -1.0018  -0.9993  -0.9903  -0.8930  -0.8393  -0.7961
    -0.7671  -0.6427  -0.6285  -0.6113  -0.4530  -0.4102  -0.2715  -0.2357
     0.1819   0.1963   0.2383   0.2617   0.2690   0.2936   0.3001   0.3101
     0.3194   0.3312   0.3435   0.3715   0.3735   0.3849   0.3929   0.4066
     0.4114   0.4156   0.4253   0.4349   0.4402   0.4477   0.4696   0.4723
     0.4805   0.4842   0.4941   0.4977   0.5102   0.5180   0.5207   0.5301
     0.5383   0.5447   0.5562   0.5592   0.5656   0.5723   0.5855   0.5941
     0.6096   0.6149   0.6242   0.6372   0.6431   0.6478   0.6573   0.6627
     0.6689   0.6824   0.7052   0.7130   0.7232   0.7308   0.7358   0.7436
     0.7499   0.7743   0.7849   0.7937   0.7978   0.8118   0.8132   0.8245
     0.8304   0.8496   0.8525   0.8662   0.8767   0.8790   0.8837   0.9039
     0.9107   0.9694   0.9844   0.9974   1.0310   1.1099   1.1343   1.1536
     1.6994   1.7633   1.7770   1.7862   1.7998   1.8269   1.8415   1.8695
     1.8795   1.9078   1.9407   1.9575   1.9730   1.9938   2.0173   2.0235
     2.0565   2.0792   2.0857   2.1017   2.1064   2.1266   2.1422   2.1616
     2.1913   2.2058   2.2085   2.2185   2.2295   2.2619   2.2678   2.2829
     2.2887   2.3006   2.3083   2.3486   2.3664   2.3707   2.4057   2.4337
     2.4601   2.4640   2.4882   2.5114   2.5199   2.5283   2.5667   2.6081
     2.6221   2.6633   2.7316   2.7734   2.8070   2.8656   2.8894   3.4362
     3.5063   3.6787   3.6991   3.7375   3.7623   3.7918   3.8227   3.8551
     3.8897   3.9475   3.9530   3.9567   3.9926   3.9999   4.0098   4.0275
     4.0495   4.0798   4.0943   4.1096   4.1392   4.1544   4.1631   4.2025
     4.2096   4.2204   4.2546   4.2696   4.3090   4.5992   4.6047   4.7505
     4.7917   4.8499   4.8934   4.9201   4.9614   4.9915   4.9984   5.0541
     5.0780   5.0931   5.1571   5.1744   5.2174   5.2232   5.3880   6.1802
     6.3614   6.4438   6.5831   6.6552   6.7182   6.7369   6.8509   6.9068
     6.9414   6.9592   7.0045   7.1074   7.2211   7.2716   7.3250   7.3664
     7.3901   7.4135   7.4763   7.5076   7.5699   7.5888   7.7024   7.7275
     7.7684   7.8698   7.9014   7.9229   7.9550   7.9948   8.0155   8.0439
     8.0762   8.0980   8.1252   8.1634   8.1699   8.2149   8.2406   8.3043
     8.3235   8.3331   8.3540   8.3727   8.3859   8.4082   8.4350   8.4435
     8.4682   8.4897   8.5057   8.5466   8.5623   8.5793   8.6244   8.6290
     8.6692

     the Fermi energy is     1.6936 ev

!    total energy              =   -8078.56140077 Ry
     estimated scf accuracy    <       0.00000077 Ry
     smearing contrib. (-TS)   =      -0.02485412 Ry
     internal energy E=F+TS    =   -8078.53654664 Ry

     The total energy is F=E-TS. E is the sum of the following terms:
     one-electron contribution =  -94704.32316607 Ry
     hartree contribution      =   47936.82012578 Ry
     xc contribution           =   -2177.35543988 Ry
     ewald contribution        =   40868.09208047 Ry
     Dispersion Correction     =      -1.77015811 Ry
     electric field correction =       0.00001116 Ry

     total magnetization       =    97.13 Bohr mag/cell
     absolute magnetization    =    98.34 Bohr mag/cell

     convergence has been achieved in  61 iterations

     negative rho (up, down):  1.166E-03 6.277E-04

     Forces acting on atoms (cartesian axes, Ry/au):

     atom    1 type  1   force =     0.02419662   -0.01793340    0.01980947
     atom    2 type  1   force =    -0.00192377    0.00004987   -0.00563984
     atom    3 type  2   force =    -0.03035461   -0.01544051   -0.00868793
     atom    4 type  1   force =     0.00190716   -0.00320815   -0.00463463
     atom    5 type  1   force =    -0.00383642    0.00216458   -0.00198841
     atom    6 type  1   force =     0.00255534    0.00755254   -0.00449497
     atom    7 type  1   force =     0.03189817   -0.01979370    0.01765836
     atom    8 type  2   force =    -0.00197919    0.00007829   -0.00914002
     atom    9 type  2   force =    -0.02889108   -0.01504127   -0.00862696
     atom   10 type  1   force =     0.00193954   -0.00300234   -0.00442550
     atom   11 type  1   force =    -0.00335029    0.00255046   -0.00110547
     atom   12 type  1   force =     0.00361260    0.00696556   -0.00394932
     atom   13 type  3   force =     0.00213252    0.00063550   -0.00759704
     atom   14 type  3   force =    -0.02975290    0.04991381   -0.06595696
     atom   15 type  3   force =     0.03462973    0.03755615   -0.05987322
     atom   16 type  3   force =    -0.00446433    0.00317228   -0.00091714
     atom   17 type  4   force =    -0.00199897    0.00135924    0.00280475
     atom   18 type  4   force =    -0.00159871   -0.00520173    0.02733625
     atom   19 type  4   force =     0.00397295    0.00285903    0.02954214
     atom   20 type  4   force =     0.00016682   -0.00279912   -0.00477889
     atom   21 type  4   force =    -0.00303162   -0.00229121    0.00335077
     atom   22 type  4   force =     0.00474082   -0.00333317    0.03431658
     atom   23 type  4   force =    -0.00598702   -0.00109529    0.03251791
     atom   24 type  4   force =     0.00071763   -0.00100197    0.00000428
     atom   25 type  4   force =    -0.00134634    0.00073549    0.00216796
     atom   26 type  4   force =    -0.01450875   -0.02270828   -0.00182031
     atom   27 type  4   force =     0.00174376   -0.00073289    0.00120137
     atom   28 type  4   force =    -0.01764573    0.00341990    0.00120354
     atom   29 type  4   force =     0.02061761   -0.00460658    0.00829954
     atom   30 type  4   force =     0.01244666   -0.03402114    0.00115870
     atom   31 type  4   force =     0.00049866    0.00106800    0.00232774
     atom   32 type  4   force =    -0.00210367    0.00007012    0.00266514
     atom   33 type  3   force =    -0.00053675   -0.00164431   -0.00506855
     atom   34 type  3   force =    -0.03023800    0.05982776   -0.08313251
     atom   35 type  3   force =     0.03461324    0.03341148   -0.05925923
     atom   36 type  3   force =    -0.00378481    0.00471237   -0.00075824
     atom   37 type  4   force =    -0.00108681    0.00133133    0.00305828
     atom   38 type  4   force =    -0.00305637   -0.00560737    0.03290888
     atom   39 type  4   force =     0.00443772    0.00394873    0.02923719
     atom   40 type  4   force =     0.00017967   -0.00319302   -0.00491816
     atom   41 type  4   force =    -0.00005500    0.00003804    0.00357370
     atom   42 type  4   force =     0.00544204    0.00023582    0.02003437
     atom   43 type  4   force =    -0.00179518    0.00036722    0.03458974
     atom   44 type  4   force =     0.00089321   -0.00083062    0.00007782
     atom   45 type  4   force =    -0.00022729   -0.00275887    0.00127987
     atom   46 type  4   force =    -0.01509269   -0.02038037   -0.00048215
     atom   47 type  4   force =     0.00193024   -0.00058875    0.00126278
     atom   48 type  4   force =    -0.01800973    0.00403875    0.00163042
     atom   49 type  4   force =     0.01640189   -0.00278599    0.00501310
     atom   50 type  4   force =     0.01184538   -0.03671968    0.00439105
     atom   51 type  4   force =     0.00102950    0.00097421    0.00172408
     atom   52 type  4   force =     0.00098107   -0.00223253    0.00362779
     atom   53 type  1   force =     0.00151896    0.00030718   -0.00073051
     atom   54 type  1   force =     0.00120507    0.00009787    0.00018849
     atom   55 type  2   force =     0.00012031   -0.00013617   -0.00004419
     atom   56 type  1   force =    -0.00005313   -0.00024887    0.00160215
     atom   57 type  1   force =     0.00050143    0.00017321    0.00046035
     atom   58 type  1   force =     0.00024342   -0.00052973    0.00033776
     atom   59 type  1   force =     0.00037319    0.00065249   -0.00095761
     atom   60 type  2   force =    -0.00130592   -0.00150982    0.00601423
     atom   61 type  2   force =    -0.00048463   -0.00008899   -0.00026199
     atom   62 type  1   force =     0.00014996    0.00167903    0.00109365
     atom   63 type  1   force =    -0.00053390    0.00040780    0.00024735
     atom   64 type  1   force =     0.00015448   -0.00040532   -0.00006278
     atom   65 type  3   force =    -0.00025367    0.00195912    0.00209361
     atom   66 type  3   force =    -0.00003080   -0.00027293   -0.00170897
     atom   67 type  3   force =     0.00039308    0.00073815   -0.00064598
     atom   68 type  3   force =    -0.00048273   -0.00200774    0.00209957
     atom   69 type  4   force =    -0.00091639   -0.00003176   -0.00087255
     atom   70 type  4   force =    -0.00009703    0.00013797    0.00038179
     atom   71 type  4   force =     0.00021000   -0.00038853   -0.00010430
     atom   72 type  4   force =    -0.00067296    0.00080665   -0.00183018
     atom   73 type  4   force =     0.00154901    0.00004857    0.00058077
     atom   74 type  4   force =    -0.00018057   -0.00065700    0.00188186
     atom   75 type  4   force =     0.00003047    0.00013998    0.00021062
     atom   76 type  4   force =    -0.00097293   -0.00060089    0.00035231
     atom   77 type  4   force =    -0.00114023    0.00119187    0.00006232
     atom   78 type  4   force =    -0.00027660   -0.00009185    0.00031206
     atom   79 type  4   force =     0.00101977    0.00172279   -0.00178114
     atom   80 type  4   force =     0.00000636    0.00059248    0.00011787
     atom   81 type  4   force =    -0.00046392   -0.00021478    0.00035316
     atom   82 type  4   force =     0.00028858   -0.00002055    0.00001586
     atom   83 type  4   force =     0.00041626   -0.00073784   -0.00031274
     atom   84 type  4   force =    -0.00030807   -0.00039474   -0.00041567
     atom   85 type  3   force =     0.00050720    0.00041200    0.00012057
     atom   86 type  3   force =     0.00067962   -0.00066992   -0.00064993
     atom   87 type  3   force =    -0.00016763   -0.00004900   -0.00101751
     atom   88 type  3   force =    -0.00199291   -0.00170328    0.00163723
     atom   89 type  4   force =    -0.00001206   -0.00003058    0.00010864
     atom   90 type  4   force =     0.00004981   -0.00045720    0.00177192
     atom   91 type  4   force =     0.00019631    0.00004617    0.00035418
     atom   92 type  4   force =     0.00057030   -0.00059735   -0.00126177
     atom   93 type  4   force =     0.00120308    0.00029281    0.00071210
     atom   94 type  4   force =    -0.00027574    0.00002600    0.00144392
     atom   95 type  4   force =     0.00023613    0.00018196    0.00051648
     atom   96 type  4   force =    -0.00109336   -0.00071336    0.00164666
     atom   97 type  4   force =     0.00059545    0.00024612   -0.00069379
     atom   98 type  4   force =    -0.00063150   -0.00018379    0.00033385
     atom   99 type  4   force =     0.00022425    0.00118663   -0.00165625
     atom  100 type  4   force =     0.00050399    0.00039834    0.00053183
     atom  101 type  4   force =    -0.00033230   -0.00016042    0.00056158
     atom  102 type  4   force =     0.00082219   -0.00027381    0.00039396
     atom  103 type  4   force =     0.00146670    0.00011747    0.00111068
     atom  104 type  4   force =    -0.00071740   -0.00083210    0.00031606
     atom  105 type  1   force =    -0.00012931   -0.00023744   -0.00015590
     atom  106 type  1   force =     0.00054296   -0.00028854   -0.00005084
     atom  107 type  2   force =     0.00011463    0.00053954    0.00049003
     atom  108 type  1   force =    -0.00262888    0.00098682   -0.00185789
     atom  109 type  1   force =    -0.00016478   -0.00033401    0.00007850
     atom  110 type  1   force =    -0.00039724    0.00025100   -0.00022118
     atom  111 type  1   force =    -0.00002215   -0.00058852    0.00011657
     atom  112 type  2   force =    -0.00000544    0.00030093    0.00003022
     atom  113 type  2   force =     0.00030233    0.00043690   -0.00023430
     atom  114 type  1   force =    -0.00003834    0.00022244    0.00024743
     atom  115 type  1   force =     0.00042572    0.00043715   -0.00038862
     atom  116 type  1   force =     0.00009520    0.00019541    0.00000306
     atom  117 type  3   force =    -0.00075706   -0.00004827    0.00022998
     atom  118 type  3   force =    -0.00051169    0.00012338    0.00017109
     atom  119 type  3   force =    -0.00018905   -0.00011340   -0.00038837
     atom  120 type  3   force =     0.00010981    0.00040286   -0.00054502
     atom  121 type  4   force =     0.00040504   -0.00015431    0.00032595
     atom  122 type  4   force =    -0.00030966    0.00016678    0.00028798
     atom  123 type  4   force =    -0.00009005    0.00014184    0.00008492
     atom  124 type  4   force =     0.00005373   -0.00056147   -0.00004886
     atom  125 type  4   force =     0.00074911    0.00021301    0.00029065
     atom  126 type  4   force =    -0.00004731   -0.00042012    0.00007025
     atom  127 type  4   force =     0.00025685    0.00013931   -0.00019268
     atom  128 type  4   force =    -0.00011222    0.00036976   -0.00031123
     atom  129 type  4   force =     0.00014943    0.00000380    0.00022306
     atom  130 type  4   force =    -0.00003387   -0.00009545    0.00023823
     atom  131 type  4   force =     0.00000050   -0.00033422    0.00033518
     atom  132 type  4   force =     0.00023982    0.00019130    0.00020645
     atom  133 type  4   force =    -0.00023742    0.00000722    0.00022155
     atom  134 type  4   force =    -0.00017083    0.00028764   -0.00009346
     atom  135 type  4   force =    -0.00027942    0.00053675   -0.00013637
     atom  136 type  4   force =    -0.00036585   -0.00005300    0.00020010
     atom  137 type  3   force =     0.00006701   -0.00017993   -0.00007359
     atom  138 type  3   force =    -0.00032915    0.00014947    0.00026367
     atom  139 type  3   force =     0.00005274   -0.00022842   -0.00006085
     atom  140 type  3   force =    -0.00024788    0.00001706   -0.00041949
     atom  141 type  4   force =     0.00016568   -0.00016670    0.00026134
     atom  142 type  4   force =     0.00006695    0.00010539    0.00041132
     atom  143 type  4   force =     0.00000654    0.00006738   -0.00013526
     atom  144 type  4   force =     0.00015465   -0.00034286   -0.00046125
     atom  145 type  4   force =    -0.00011232   -0.00037913   -0.00021136
     atom  146 type  4   force =    -0.00017446   -0.00018031    0.00017303
     atom  147 type  4   force =     0.00023275   -0.00025583    0.00005833
     atom  148 type  4   force =    -0.00095927   -0.00041175    0.00019901
     atom  149 type  4   force =     0.00084146    0.00002373    0.00026995
     atom  150 type  4   force =     0.00015897   -0.00027629   -0.00021789
     atom  151 type  4   force =     0.00003731   -0.00022390    0.00049353
     atom  152 type  4   force =    -0.00009509   -0.00020565    0.00011508
     atom  153 type  4   force =     0.00006828    0.00029419   -0.00007611
     atom  154 type  4   force =    -0.00015142    0.00018892    0.00023424
     atom  155 type  4   force =    -0.00006723   -0.00003180    0.00013416
     atom  156 type  4   force =    -0.00000402    0.00013049    0.00008167
     atom  157 type  4   force =     0.01310033    0.00624823    0.00618971
     atom  158 type  5   force =    -0.01047993   -0.00670599   -0.00293146

     Total force =     0.226231     Total SCF correction =     0.003607
 
     init_run     :     10.25s CPU     11.48s WALL (       1 calls)
     electrons    :    996.99s CPU   1042.12s WALL (       1 calls)
     forces       :      4.70s CPU      5.12s WALL (       1 calls)
     force_london :      0.09s CPU      0.09s WALL (       1 calls)

     Called by init_run:
     wfcinit      :      5.83s CPU      6.01s WALL (       1 calls)
     potinit      :      1.23s CPU      1.92s WALL (       1 calls)
     hinit0       :      1.81s CPU      1.98s WALL (       1 calls)

     Called by electrons:
     c_bands      :    787.69s CPU    811.00s WALL (      61 calls)
     sum_band     :    131.12s CPU    141.42s WALL (      61 calls)
     v_of_rho     :     16.85s CPU     20.57s WALL (      62 calls)
     newd         :     41.28s CPU     49.29s WALL (      62 calls)
     mix_rho      :     19.64s CPU     19.99s WALL (      61 calls)
     energy_londo :      0.09s CPU      0.09s WALL (       1 calls)

     Called by c_bands:
     init_us_2    :      1.94s CPU      1.98s WALL (     248 calls)
     init_us_2:cp :      1.94s CPU      1.98s WALL (     248 calls)
     regterg      :    772.96s CPU    795.63s WALL (     124 calls)

     Called by *egterg:
     rdiaghg      :    190.92s CPU    201.57s WALL (     508 calls)
     h_psi        :    298.57s CPU    304.22s WALL (     510 calls)
     s_psi        :     44.89s CPU     44.98s WALL (     510 calls)
     g_psi        :      0.33s CPU      0.33s WALL (     384 calls)

     Called by h_psi:
     h_psi:calbec :     75.20s CPU     79.82s WALL (     510 calls)
     vloc_psi     :    177.03s CPU    177.61s WALL (     510 calls)
     add_vuspsi   :     45.69s CPU     46.14s WALL (     510 calls)

     General routines
     calbec       :    110.75s CPU    117.73s WALL (     640 calls)
     fft          :     28.52s CPU     33.00s WALL (    1129 calls)
     ffts         :     11.27s CPU     11.29s WALL (    7565 calls)
     fftw         :    199.84s CPU    200.46s WALL (  213136 calls)
     interpolate  :      1.81s CPU      2.02s WALL (     124 calls)
 
     Parallel routines
 
     PWSCF        :  16m54.33s CPU  17m41.41s WALL

 
   This run was terminated on:  17:23:45  17Nov2025            

=------------------------------------------------------------------------------=
   JOB DONE.
=------------------------------------------------------------------------------=
