
     Program PWSCF v.7.2 starts on 18Nov2025 at  0:18:15 

     This program is part of the open-source Quantum ESPRESSO suite
     for quantum simulation of materials; please cite
         "P. Giannozzi et al., J. Phys.:Condens. Matter 21 395502 (2009);
         "P. Giannozzi et al., J. Phys.:Condens. Matter 29 465901 (2017);
         "P. Giannozzi et al., J. Chem. Phys. 152 154105 (2020);
          URL http://www.quantum-espresso.org", 
     in publications or presentations arising from this work. More details at
     http://www.quantum-espresso.org/quote

     Parallel version (MPI), running on    64 processors

     MPI processes distributed on     4 nodes
     449240 MiB available memory on the printing compute node when the environment starts
 
     Reading input from PWINPUT_atm158_xp

     Current dimensions of program PWSCF are:
     Max number of different atomic species (ntypx) = 10
     Max number of k-points (npk) =  40000
     Max angular momentum in pseudopotentials (lmaxx) =  4
     Presently no symmetry can be used with electric field

     file Ni.pbe-n-rrkjus_psl.1.0.0.UPF: wavefunction(s)  3D renormalized
     file Mn.pbe-spn-rrkjus_psl.0.3.1.UPF: wavefunction(s)  3D renormalized
     file O.pbe-rrkjus.UPF: wavefunction(s)  2S renormalized
     file H.pbe-rrkjus.UPF: wavefunction(s)  1S renormalized

     gamma-point specific algorithms are used
 
     R & G space division:  proc/nbgrp/npool/nimage =      64
     Subspace diagonalization in iterative solution of the eigenvalue problem:
     one sub-group per band group will be used
     custom distributed-memory algorithm (size of sub-group:  7*  7 procs)

 
     Parallelization info
     --------------------
     sticks:   dense  smooth     PW     G-vecs:    dense   smooth      PW
     Min         207      82     20                60552    15302    1896
     Max         210      84     22                60574    15336    1950
     Sum       13325    5345   1333              3876045   980655  122653
 
     Using Slab Decomposition
 


     bravais-lattice index     =            0
     lattice parameter (alat)  =      17.4067  a.u.
     unit-cell volume          =   20529.8182 (a.u.)^3
     number of atoms/cell      =          158
     number of atomic types    =            5
     number of electrons       =      1093.00
     number of Kohn-Sham states=          656
     kinetic-energy cutoff     =      50.0000  Ry
     charge density cutoff     =     500.0000  Ry
     scf convergence threshold =      1.0E-06
     mixing beta               =       0.1000
     number of iterations used =            8  local-TF  mixing
     Exchange-correlation=  SLA  PW   PBE  PBE
                           (   1   4   3   4   0   0   0)

     celldm(1)=  17.406729  celldm(2)=   0.000000  celldm(3)=   0.000000
     celldm(4)=   0.000000  celldm(5)=   0.000000  celldm(6)=   0.000000

     crystal axes: (cart. coord. in units of alat)
               a(1) = (   1.000000   0.000000   0.000000 )  
               a(2) = (  -0.001404   1.105696   0.000000 )  
               a(3) = (   0.000000   0.000000   3.520448 )  

     reciprocal axes: (cart. coord. in units 2 pi/alat)
               b(1) = (  1.000000  0.001270  0.000000 )  
               b(2) = (  0.000000  0.904408  0.000000 )  
               b(3) = (  0.000000  0.000000  0.284055 )  


     PseudoPot. # 1 for Ni read from file:
     ~/PSEUDO/Ni.pbe-n-rrkjus_psl.1.0.0.UPF
     MD5 check sum: Not computed, couldn't open file
     Pseudo is Ultrasoft + core correction, Zval = 10.0
     Generated using "atomic" code by A. Dal Corso  v.5.1.2
     Using radial grid of 1195 points,  6 beta functions with: 
                l(1) =   0
                l(2) =   0
                l(3) =   1
                l(4) =   1
                l(5) =   2
                l(6) =   2
     Q(r) pseudized with 0 coefficients 


     PseudoPot. # 2 for Mn read from file:
     ~/PSEUDO/Mn.pbe-spn-rrkjus_psl.0.3.1.UPF
     MD5 check sum: Not computed, couldn't open file
     Pseudo is Ultrasoft + core correction, Zval = 15.0
     Generated using &quot;atomic&quot; code by A. Dal Corso  v.6.2.2
     Using radial grid of 1187 points,  6 beta functions with: 
                l(1) =   0
                l(2) =   0
                l(3) =   1
                l(4) =   1
                l(5) =   2
                l(6) =   2
     Q(r) pseudized with 0 coefficients 


     PseudoPot. # 3 for P  read from file:
     ~/PSEUDO/P.pbe-n-rrkjus_psl.1.0.0.UPF
     MD5 check sum: Not computed, couldn't open file
     Pseudo is Ultrasoft + core correction, Zval =  5.0
     Generated using "atomic" code by A. Dal Corso  v.5.1
     Using radial grid of 1147 points,  6 beta functions with: 
                l(1) =   0
                l(2) =   0
                l(3) =   1
                l(4) =   1
                l(5) =   2
                l(6) =   2
     Q(r) pseudized with 0 coefficients 


     PseudoPot. # 4 for O  read from file:
     ~/PSEUDO/O.pbe-rrkjus.UPF
     MD5 check sum: Not computed, couldn't open file
     Pseudo is Ultrasoft, Zval =  6.0
     Generated by new atomic code, or converted to UPF format
     Using radial grid of 1269 points,  4 beta functions with: 
                l(1) =   0
                l(2) =   0
                l(3) =   1
                l(4) =   1
     Q(r) pseudized with 0 coefficients 


     PseudoPot. # 5 for H  read from file:
     ~/PSEUDO/H.pbe-rrkjus.UPF
     MD5 check sum: Not computed, couldn't open file
     Pseudo is Ultrasoft, Zval =  1.0
     Generated by new atomic code, or converted to UPF format
     Using radial grid of 1061 points,  2 beta functions with: 
                l(1) =   0
                l(2) =   0
     Q(r) pseudized with 0 coefficients 


     atomic species   valence    mass     pseudopotential
     Ni               10.00    58.69300     Ni( 1.00)
     Mn               15.00    54.93800     Mn( 1.00)
     P                 5.00    30.97300     P ( 1.00)
     O                 6.00    15.99900     O ( 1.00)
     H                 1.00     1.00790     H ( 1.00)

     Starting magnetic structure 
     atomic species   magnetization
     Ni              1.000
     Mn              1.000
     P               1.000
     O               1.000
     H               0.000

     No symmetry found



   Cartesian axes

     site n.     atom                  positions (alat units)
         1        Ni     tau(   1) = (   0.2407247   0.8678666   1.7788468  )
         2        Mn     tau(   2) = (   0.4849050   0.7928704   1.4298720  )
         3        Ni     tau(   3) = (  -0.0015463   0.3040756   1.7427651  )
         4        Ni     tau(   4) = (   0.2576988   0.2438884   1.4304882  )
         5        Ni     tau(   5) = (   0.4960089   1.1079636   1.5969794  )
         6        Ni     tau(   6) = (   0.2509439   0.5529914   1.6014984  )
         7        P      tau(   7) = (   0.2089048   1.0013970   1.4343524  )
         8        P      tau(   8) = (   0.4624796   0.6667191   1.7615344  )
         9        P      tau(   9) = (   0.2870509   0.1160398   1.7607833  )
        10        P      tau(  10) = (   0.0409376   0.4429602   1.4308127  )
        11        O      tau(  11) = (   0.1352892   0.9270454   1.5724618  )
        12        O      tau(  12) = (   0.3840209   0.7294626   1.6169117  )
        13        O      tau(  13) = (   0.3651818   0.1791486   1.6110775  )
        14        O      tau(  14) = (   0.1191348   0.3726454   1.5703673  )
        15        O      tau(  15) = (   0.1507888   0.9120623   1.3039965  )
        16        O      tau(  16) = (   0.4052423   0.7648049   1.8817709  )
        17        O      tau(  17) = (   0.3458822   0.2189915   1.8759922  )
        18        O      tau(  18) = (   0.1009621   0.3550841   1.3013183  )
        19        O      tau(  19) = (   0.0995916   0.6017289   1.4364553  )
        20        O      tau(  20) = (   0.3468601   1.0635796   1.7571918  )
        21        O      tau(  21) = (   0.3739296   0.4396566   1.4433176  )
        22        O      tau(  22) = (   0.1199364   0.1204540   1.7432983  )
        23        O      tau(  23) = (   0.1279675   0.6643683   1.7537820  )
        24        O      tau(  24) = (   0.4072413   0.5052188   1.7593813  )
        25        O      tau(  25) = (   0.1493697   0.0531357   1.4376636  )
        26        O      tau(  26) = (   0.3761102   0.9942916   1.4433476  )
        27        Ni     tau(  27) = (   0.2413539   0.8509941   1.1121345  )
        28        Mn     tau(  28) = (   0.4917018   0.7787406   0.7768134  )
        29        Ni     tau(  29) = (   0.0044877   0.2932623   1.1138982  )
        30        Ni     tau(  30) = (   0.2563139   0.2275682   0.7805625  )
        31        Ni     tau(  31) = (   0.4969120   1.0949007   0.9459116  )
        32        Ni     tau(  32) = (   0.2488318   0.5341111   0.9469721  )
        33        P      tau(  33) = (   0.2076029   0.9882917   0.7835381  )
        34        P      tau(  34) = (   0.4577012   0.6460068   1.1076436  )
        35        P      tau(  35) = (   0.2881931   0.0932770   1.1104179  )
        36        P      tau(  36) = (   0.0392916   0.4238898   0.7837243  )
        37        O      tau(  37) = (   0.1306755   0.9148866   0.9233554  )
        38        O      tau(  38) = (   0.3789780   0.7172835   0.9680652  )
        39        O      tau(  39) = (   0.3654852   0.1662865   0.9702638  )
        40        O      tau(  40) = (   0.1163776   0.3546954   0.9254186  )
        41        O      tau(  41) = (   0.1502901   0.8969129   0.6541592  )
        42        O      tau(  42) = (   0.3974525   0.7354243   1.2370031  )
        43        O      tau(  43) = (   0.3483097   0.1789497   1.2412670  )
        44        O      tau(  44) = (   0.0974932   0.3376387   0.6529083  )
        45        O      tau(  45) = (   0.0984699   0.5818903   0.7881021  )
        46        O      tau(  46) = (   0.3459978   1.0405493   1.1018526  )
        47        O      tau(  47) = (   0.3731719   0.4204123   0.7945555  )
        48        O      tau(  48) = (   0.1223503   0.0989699   1.1000566  )
        49        O      tau(  49) = (   0.1235438   0.6536772   1.0980598  )
        50        O      tau(  50) = (   0.4004339   0.4872435   1.1047245  )
        51        O      tau(  51) = (   0.1476543   0.0398268   0.7872561  )
        52        O      tau(  52) = (   0.3728637   0.9843360   0.7931368  )
        53        Ni     tau(  53) = (   0.2406075   0.8410745   0.4603118  )
        54        Mn     tau(  54) = (   0.4909555   0.7688210   0.1249907  )
        55        Ni     tau(  55) = (   0.0037414   0.2833427   0.4620755  )
        56        Ni     tau(  56) = (   0.2555676   0.2176485   0.1287398  )
        57        Ni     tau(  57) = (   0.4961657   1.0849810   0.2940889  )
        58        Ni     tau(  58) = (   0.2480854   0.5241915   0.2951494  )
        59        P      tau(  59) = (   0.2068565   0.9783721   0.1317154  )
        60        P      tau(  60) = (   0.4569549   0.6360871   0.4558210  )
        61        P      tau(  61) = (   0.2874467   0.0833574   0.4585952  )
        62        P      tau(  62) = (   0.0385452   0.4139702   0.1319017  )
        63        O      tau(  63) = (   0.1299291   0.9049669   0.2715327  )
        64        O      tau(  64) = (   0.3782317   0.7073639   0.3162425  )
        65        O      tau(  65) = (   0.3647389   0.1563669   0.3184411  )
        66        O      tau(  66) = (   0.1156313   0.3447757   0.2735959  )
        67        O      tau(  67) = (   0.1495437   0.8869933   0.0023366  )
        68        O      tau(  68) = (   0.3967062   0.7255047   0.5851804  )
        69        O      tau(  69) = (   0.3475634   0.1690300   0.5894443  )
        70        O      tau(  70) = (   0.0967469   0.3277190   0.0010856  )
        71        O      tau(  71) = (   0.0977236   0.5719706   0.1362794  )
        72        O      tau(  72) = (   0.3452514   1.0306297   0.4500300  )
        73        O      tau(  73) = (   0.3724256   0.4104926   0.1427328  )
        74        O      tau(  74) = (   0.1216040   0.0890503   0.4482339  )
        75        O      tau(  75) = (   0.1227974   0.6437575   0.4462371  )
        76        O      tau(  76) = (   0.3996875   0.4773239   0.4529018  )
        77        O      tau(  77) = (   0.1469079   0.0299071   0.1354334  )
        78        O      tau(  78) = (   0.3721173   0.9744163   0.1413141  )
        79        Ni     tau(  79) = (   0.7503448   0.8592094   1.7463632  )
        80        Mn     tau(  80) = (   0.9872971   0.7933476   1.4295363  )
        81        Ni     tau(  81) = (   0.4979646   0.3082874   1.7425819  )
        82        Ni     tau(  82) = (   0.7578558   0.2432444   1.4303909  )
        83        Ni     tau(  83) = (   0.9978877   1.1049697   1.6005729  )
        84        Ni     tau(  84) = (   0.7517688   0.5502669   1.5982123  )
        85        P      tau(  85) = (   0.7086164   1.0024684   1.4323347  )
        86        P      tau(  86) = (   0.9608587   0.6587254   1.7669171  )
        87        P      tau(  87) = (   0.7853186   0.1123438   1.7615591  )
        88        P      tau(  88) = (   0.5402593   0.4436461   1.4299959  )
        89        O      tau(  89) = (   0.6336250   0.9299726   1.5717212  )
        90        O      tau(  90) = (   0.8855214   0.7268460   1.6205628  )
        91        O      tau(  91) = (   0.8638479   0.1737568   1.6123671  )
        92        O      tau(  92) = (   0.6187851   0.3726638   1.5694972  )
        93        O      tau(  93) = (   0.6499804   0.9114421   1.3038010  )
        94        O      tau(  94) = (   0.8956097   0.7537924   1.8860885  )
        95        O      tau(  95) = (   0.8474504   0.2119799   1.8776314  )
        96        O      tau(  96) = (   0.6006963   0.3549684   1.3012062  )
        97        O      tau(  97) = (   0.6002576   0.6021520   1.4346509  )
        98        O      tau(  98) = (   0.8385044   1.0568597   1.7610063  )
        99        O      tau(  99) = (   0.8744145   0.4373900   1.4436920  )
       100        O      tau( 100) = (   0.6180356   0.1193672   1.7459243  )
       101        O      tau( 101) = (   0.6301005   0.6707638   1.7450210  )
       102        O      tau( 102) = (   0.9037180   0.4985801   1.7585357  )
       103        O      tau( 103) = (   0.6488284   0.0538192   1.4351739  )
       104        O      tau( 104) = (   0.8752493   0.9934614   1.4449032  )
       105        Ni     tau( 105) = (   0.7413539   0.8509941   1.1121345  )
       106        Mn     tau( 106) = (   0.9917018   0.7787406   0.7768134  )
       107        Ni     tau( 107) = (   0.5044877   0.2932623   1.1138982  )
       108        Ni     tau( 108) = (   0.7563139   0.2275682   0.7805625  )
       109        Ni     tau( 109) = (   0.9969120   1.0949007   0.9459116  )
       110        Ni     tau( 110) = (   0.7488318   0.5341111   0.9469721  )
       111        P      tau( 111) = (   0.7076029   0.9882917   0.7835381  )
       112        P      tau( 112) = (   0.9577012   0.6460068   1.1076436  )
       113        P      tau( 113) = (   0.7881931   0.0932770   1.1104179  )
       114        P      tau( 114) = (   0.5392916   0.4238898   0.7837243  )
       115        O      tau( 115) = (   0.6306755   0.9148866   0.9233554  )
       116        O      tau( 116) = (   0.8789780   0.7172835   0.9680652  )
       117        O      tau( 117) = (   0.8654852   0.1662865   0.9702638  )
       118        O      tau( 118) = (   0.6163776   0.3546954   0.9254186  )
       119        O      tau( 119) = (   0.6502901   0.8969129   0.6541592  )
       120        O      tau( 120) = (   0.8974525   0.7354243   1.2370031  )
       121        O      tau( 121) = (   0.8483097   0.1789497   1.2412670  )
       122        O      tau( 122) = (   0.5974932   0.3376387   0.6529083  )
       123        O      tau( 123) = (   0.5984699   0.5818903   0.7881021  )
       124        O      tau( 124) = (   0.8459978   1.0405493   1.1018526  )
       125        O      tau( 125) = (   0.8731719   0.4204123   0.7945555  )
       126        O      tau( 126) = (   0.6223503   0.0989699   1.1000566  )
       127        O      tau( 127) = (   0.6235438   0.6536772   1.0980598  )
       128        O      tau( 128) = (   0.9004339   0.4872435   1.1047245  )
       129        O      tau( 129) = (   0.6476543   0.0398268   0.7872561  )
       130        O      tau( 130) = (   0.8728637   0.9843360   0.7931368  )
       131        Ni     tau( 131) = (   0.7406075   0.8410745   0.4603118  )
       132        Mn     tau( 132) = (   0.9909555   0.7688210   0.1249907  )
       133        Ni     tau( 133) = (   0.5037414   0.2833427   0.4620755  )
       134        Ni     tau( 134) = (   0.7555676   0.2176485   0.1287398  )
       135        Ni     tau( 135) = (   0.9961657   1.0849810   0.2940889  )
       136        Ni     tau( 136) = (   0.7480854   0.5241915   0.2951494  )
       137        P      tau( 137) = (   0.7068565   0.9783721   0.1317154  )
       138        P      tau( 138) = (   0.9569549   0.6360871   0.4558210  )
       139        P      tau( 139) = (   0.7874467   0.0833574   0.4585952  )
       140        P      tau( 140) = (   0.5385452   0.4139702   0.1319017  )
       141        O      tau( 141) = (   0.6299291   0.9049669   0.2715327  )
       142        O      tau( 142) = (   0.8782317   0.7073639   0.3162425  )
       143        O      tau( 143) = (   0.8647389   0.1563669   0.3184411  )
       144        O      tau( 144) = (   0.6156313   0.3447757   0.2735959  )
       145        O      tau( 145) = (   0.6495437   0.8869933   0.0023366  )
       146        O      tau( 146) = (   0.8967062   0.7255047   0.5851804  )
       147        O      tau( 147) = (   0.8475634   0.1690300   0.5894443  )
       148        O      tau( 148) = (   0.5967469   0.3277190   0.0010856  )
       149        O      tau( 149) = (   0.5977236   0.5719706   0.1362794  )
       150        O      tau( 150) = (   0.8452514   1.0306297   0.4500300  )
       151        O      tau( 151) = (   0.8724256   0.4104926   0.1427328  )
       152        O      tau( 152) = (   0.6216040   0.0890503   0.4482339  )
       153        O      tau( 153) = (   0.6227974   0.6437575   0.4462371  )
       154        O      tau( 154) = (   0.8996875   0.4773239   0.4529018  )
       155        O      tau( 155) = (   0.6469079   0.0299071   0.1354334  )
       156        O      tau( 156) = (   0.8721173   0.9744163   0.1413141  )
       157        O      tau( 157) = (   1.1200851   0.9534950   1.9086669  )
       158        H      tau( 158) = (   1.0384958   0.8901699   1.9356829  )

     -------------------------------------------------
     Parameters for Dispersion (Grimme-D2) Correction:
     -------------------------------------------------
       atom      VdW radius       C_6     

        Ni         2.952        374.666
        Mn         2.952        374.666
        P          3.222        271.980
        O          2.536         24.284
        H          1.892          4.857

     number of k points=     1  Gaussian smearing, width (Ry)=  0.0100
                       cart. coord. in units 2pi/alat
        k(    1) = (   0.0000000   0.0000000   0.0000000), wk =   1.0000000

     Dense  grid:  1938023 G-vectors     FFT dimensions: ( 125, 144, 450)

     Smooth grid:   490328 G-vectors     FFT dimensions: (  80,  90, 288)

     Estimated max dynamical RAM per process >     326.29 MB

     Estimated total dynamical RAM >      20.39 GB

     Check: negative core charge=   -0.000001
     Generating pointlists ...
     new r_m :   0.0812 (alat units)  1.4132 (a.u.) for type    1
     new r_m :   0.0905 (alat units)  1.5755 (a.u.) for type    2
     new r_m :   0.0681 (alat units)  1.1855 (a.u.) for type    3
     new r_m :   0.0440 (alat units)  0.7665 (a.u.) for type    4
     new r_m :   0.0440 (alat units)  0.7665 (a.u.) for type    5

     Initial potential from superposition of free atoms

     starting charge    1092.8893, renormalised to    1093.0000

     negative rho (up, down):  1.397E-03 4.546E-04
 
     Adding external electric field

     Computed dipole along edir(3) : 
        Dipole                1.6517 Ry au,          4.1983 Debye
        Dipole field          0.0010 Ry au, 
 
        Potential amp.       -0.1115 Ry
        Total length         55.1515 bohr
 
 
     Adding external electric field

     Computed dipole along edir(3) : 
        Dipole                1.6517 Ry au,          4.1983 Debye
        Dipole field          0.0010 Ry au, 
 
        Potential amp.       -0.1115 Ry
        Total length         55.1515 bohr
 
     Starting wfcs are  815 randomized atomic wfcs

     total cpu time spent up to now is       15.8 secs

     Self-consistent Calculation

     iteration #  1     ecut=    50.00 Ry     beta= 0.10
     Davidson diagonalization with overlap
     ethr =  1.00E-02,  avg # of iterations =  6.0

     negative rho (up, down):  4.092E-01 8.120E-06
 
     Adding external electric field

     Computed dipole along edir(3) : 
        Dipole               -3.0532 Ry au,         -7.7606 Debye
        Dipole field         -0.0019 Ry au, 
 
        Potential amp.        0.2061 Ry
        Total length         55.1515 bohr
 
 
     Adding external electric field

     Computed dipole along edir(3) : 
        Dipole               -3.0532 Ry au,         -7.7606 Debye
        Dipole field         -0.0019 Ry au, 
 
        Potential amp.        0.2061 Ry
        Total length         55.1515 bohr
 

     total cpu time spent up to now is       67.8 secs

     total energy              =   -7521.50215417 Ry
     estimated scf accuracy    <     797.16598542 Ry

     total magnetization       =   219.00 Bohr mag/cell
     absolute magnetization    =   307.72 Bohr mag/cell

     iteration #  2     ecut=    50.00 Ry     beta= 0.10
     Davidson diagonalization with overlap
     ethr =  1.00E-02,  avg # of iterations =  2.0

     negative rho (up, down):  3.695E-01 7.050E-06
 
     Adding external electric field

     Computed dipole along edir(3) : 
        Dipole               -2.3954 Ry au,         -6.0885 Debye
        Dipole field         -0.0015 Ry au, 
 
        Potential amp.        0.1617 Ry
        Total length         55.1515 bohr
 
 
     Adding external electric field

     Computed dipole along edir(3) : 
        Dipole               -2.3954 Ry au,         -6.0885 Debye
        Dipole field         -0.0015 Ry au, 
 
        Potential amp.        0.1617 Ry
        Total length         55.1515 bohr
 

     total cpu time spent up to now is      103.5 secs

     total energy              =   -7605.14948832 Ry
     estimated scf accuracy    <     140.75669906 Ry

     total magnetization       =   150.10 Bohr mag/cell
     absolute magnetization    =   201.51 Bohr mag/cell

     iteration #  3     ecut=    50.00 Ry     beta= 0.10
     Davidson diagonalization with overlap
     ethr =  1.00E-02,  avg # of iterations =  1.5

     negative rho (up, down):  3.173E-01 6.830E-06
 
     Adding external electric field

     Computed dipole along edir(3) : 
        Dipole               -1.9282 Ry au,         -4.9011 Debye
        Dipole field         -0.0012 Ry au, 
 
        Potential amp.        0.1302 Ry
        Total length         55.1515 bohr
 
 
     Adding external electric field

     Computed dipole along edir(3) : 
        Dipole               -1.9282 Ry au,         -4.9011 Debye
        Dipole field         -0.0012 Ry au, 
 
        Potential amp.        0.1302 Ry
        Total length         55.1515 bohr
 

     total cpu time spent up to now is      123.8 secs

     total energy              =   -7639.52441747 Ry
     estimated scf accuracy    <     100.43353423 Ry

     total magnetization       =   129.23 Bohr mag/cell
     absolute magnetization    =   181.26 Bohr mag/cell

     iteration #  4     ecut=    50.00 Ry     beta= 0.10
     Davidson diagonalization with overlap
     ethr =  9.19E-03,  avg # of iterations =  1.5

     negative rho (up, down):  2.433E-01 7.376E-07
 
     Adding external electric field

     Computed dipole along edir(3) : 
        Dipole               -1.8402 Ry au,         -4.6774 Debye
        Dipole field         -0.0011 Ry au, 
 
        Potential amp.        0.1242 Ry
        Total length         55.1515 bohr
 
 
     Adding external electric field

     Computed dipole along edir(3) : 
        Dipole               -1.8402 Ry au,         -4.6774 Debye
        Dipole field         -0.0011 Ry au, 
 
        Potential amp.        0.1242 Ry
        Total length         55.1515 bohr
 

     total cpu time spent up to now is      139.5 secs

     total energy              =   -7671.15077531 Ry
     estimated scf accuracy    <      77.65172634 Ry

     total magnetization       =   110.59 Bohr mag/cell
     absolute magnetization    =   165.92 Bohr mag/cell

     iteration #  5     ecut=    50.00 Ry     beta= 0.10
     Davidson diagonalization with overlap
     ethr =  7.10E-03,  avg # of iterations =  1.0

     negative rho (up, down):  2.903E-03 1.061E-09
 
     Adding external electric field

     Computed dipole along edir(3) : 
        Dipole               -1.1169 Ry au,         -2.8388 Debye
        Dipole field         -0.0007 Ry au, 
 
        Potential amp.        0.0754 Ry
        Total length         55.1515 bohr
 
 
     Adding external electric field

     Computed dipole along edir(3) : 
        Dipole               -1.1169 Ry au,         -2.8388 Debye
        Dipole field         -0.0007 Ry au, 
 
        Potential amp.        0.0754 Ry
        Total length         55.1515 bohr
 

     total cpu time spent up to now is      153.5 secs

     total energy              =   -7729.90405156 Ry
     estimated scf accuracy    <      59.41861221 Ry

     total magnetization       =    97.00 Bohr mag/cell
     absolute magnetization    =   150.04 Bohr mag/cell

     iteration #  6     ecut=    50.00 Ry     beta= 0.10
     Davidson diagonalization with overlap
     ethr =  5.44E-03,  avg # of iterations =  1.5

     negative rho (up, down):  2.060E-05 8.438E-05
 
     Adding external electric field

     Computed dipole along edir(3) : 
        Dipole               -0.7905 Ry au,         -2.0092 Debye
        Dipole field         -0.0005 Ry au, 
 
        Potential amp.        0.0534 Ry
        Total length         55.1515 bohr
 
 
     Adding external electric field

     Computed dipole along edir(3) : 
        Dipole               -0.7905 Ry au,         -2.0092 Debye
        Dipole field         -0.0005 Ry au, 
 
        Potential amp.        0.0534 Ry
        Total length         55.1515 bohr
 

     total cpu time spent up to now is      175.6 secs

     total energy              =   -7736.56058733 Ry
     estimated scf accuracy    <       8.92960969 Ry

     total magnetization       =    85.97 Bohr mag/cell
     absolute magnetization    =   115.00 Bohr mag/cell

     iteration #  7     ecut=    50.00 Ry     beta= 0.10
     Davidson diagonalization with overlap
     ethr =  8.17E-04,  avg # of iterations =  5.5

     negative rho (up, down):  1.510E-05 7.364E-05
 
     Adding external electric field

     Computed dipole along edir(3) : 
        Dipole               -0.7842 Ry au,         -1.9931 Debye
        Dipole field         -0.0005 Ry au, 
 
        Potential amp.        0.0529 Ry
        Total length         55.1515 bohr
 
 
     Adding external electric field

     Computed dipole along edir(3) : 
        Dipole               -0.7842 Ry au,         -1.9931 Debye
        Dipole field         -0.0005 Ry au, 
 
        Potential amp.        0.0529 Ry
        Total length         55.1515 bohr
 

     total cpu time spent up to now is      210.9 secs

     total energy              =   -7738.29481077 Ry
     estimated scf accuracy    <      16.85719392 Ry

     total magnetization       =    70.95 Bohr mag/cell
     absolute magnetization    =    88.37 Bohr mag/cell

     iteration #  8     ecut=    50.00 Ry     beta= 0.10
     Davidson diagonalization with overlap
     ethr =  8.17E-04,  avg # of iterations =  1.0

     negative rho (up, down):  1.540E-05 7.599E-05
 
     Adding external electric field

     Computed dipole along edir(3) : 
        Dipole               -0.7884 Ry au,         -2.0038 Debye
        Dipole field         -0.0005 Ry au, 
 
        Potential amp.        0.0532 Ry
        Total length         55.1515 bohr
 
 
     Adding external electric field

     Computed dipole along edir(3) : 
        Dipole               -0.7884 Ry au,         -2.0038 Debye
        Dipole field         -0.0005 Ry au, 
 
        Potential amp.        0.0532 Ry
        Total length         55.1515 bohr
 

     total cpu time spent up to now is      231.6 secs

     total energy              =   -7738.27518698 Ry
     estimated scf accuracy    <      19.77349898 Ry

     total magnetization       =    69.85 Bohr mag/cell
     absolute magnetization    =    87.18 Bohr mag/cell

     iteration #  9     ecut=    50.00 Ry     beta= 0.10
     Davidson diagonalization with overlap
     ethr =  8.17E-04,  avg # of iterations =  1.0

     negative rho (up, down):  2.607E-05 1.461E-04
 
     Adding external electric field

     Computed dipole along edir(3) : 
        Dipole               -0.7684 Ry au,         -1.9530 Debye
        Dipole field         -0.0005 Ry au, 
 
        Potential amp.        0.0519 Ry
        Total length         55.1515 bohr
 
 
     Adding external electric field

     Computed dipole along edir(3) : 
        Dipole               -0.7684 Ry au,         -1.9530 Debye
        Dipole field         -0.0005 Ry au, 
 
        Potential amp.        0.0519 Ry
        Total length         55.1515 bohr
 

     total cpu time spent up to now is      251.2 secs

     total energy              =   -7737.97426684 Ry
     estimated scf accuracy    <      18.62271474 Ry

     total magnetization       =    70.36 Bohr mag/cell
     absolute magnetization    =    87.20 Bohr mag/cell

     iteration # 10     ecut=    50.00 Ry     beta= 0.10
     Davidson diagonalization with overlap
     ethr =  8.17E-04,  avg # of iterations =  1.0

     negative rho (up, down):  8.254E-05 1.942E-04
 
     Adding external electric field

     Computed dipole along edir(3) : 
        Dipole               -0.8418 Ry au,         -2.1396 Debye
        Dipole field         -0.0005 Ry au, 
 
        Potential amp.        0.0568 Ry
        Total length         55.1515 bohr
 
 
     Adding external electric field

     Computed dipole along edir(3) : 
        Dipole               -0.8418 Ry au,         -2.1396 Debye
        Dipole field         -0.0005 Ry au, 
 
        Potential amp.        0.0568 Ry
        Total length         55.1515 bohr
 

     total cpu time spent up to now is      268.7 secs

     total energy              =   -7737.54042108 Ry
     estimated scf accuracy    <      11.62602297 Ry

     total magnetization       =    74.01 Bohr mag/cell
     absolute magnetization    =    88.80 Bohr mag/cell

     iteration # 11     ecut=    50.00 Ry     beta= 0.10
     Davidson diagonalization with overlap
     ethr =  8.17E-04,  avg # of iterations =  2.0

     negative rho (up, down):  4.797E-05 1.847E-04
 
     Adding external electric field

     Computed dipole along edir(3) : 
        Dipole               -0.8536 Ry au,         -2.1697 Debye
        Dipole field         -0.0005 Ry au, 
 
        Potential amp.        0.0576 Ry
        Total length         55.1515 bohr
 
 
     Adding external electric field

     Computed dipole along edir(3) : 
        Dipole               -0.8536 Ry au,         -2.1697 Debye
        Dipole field         -0.0005 Ry au, 
 
        Potential amp.        0.0576 Ry
        Total length         55.1515 bohr
 

     total cpu time spent up to now is      284.3 secs

     total energy              =   -7738.00265715 Ry
     estimated scf accuracy    <       3.94556245 Ry

     total magnetization       =    87.00 Bohr mag/cell
     absolute magnetization    =    97.81 Bohr mag/cell

     iteration # 12     ecut=    50.00 Ry     beta= 0.10
     Davidson diagonalization with overlap
     ethr =  3.61E-04,  avg # of iterations =  2.0

     negative rho (up, down):  6.949E-06 1.146E-04
 
     Adding external electric field

     Computed dipole along edir(3) : 
        Dipole               -0.8921 Ry au,         -2.2674 Debye
        Dipole field         -0.0005 Ry au, 
 
        Potential amp.        0.0602 Ry
        Total length         55.1515 bohr
 
 
     Adding external electric field

     Computed dipole along edir(3) : 
        Dipole               -0.8921 Ry au,         -2.2674 Debye
        Dipole field         -0.0005 Ry au, 
 
        Potential amp.        0.0602 Ry
        Total length         55.1515 bohr
 

     total cpu time spent up to now is      299.4 secs

     total energy              =   -7737.89233091 Ry
     estimated scf accuracy    <       3.92792543 Ry

     total magnetization       =    87.00 Bohr mag/cell
     absolute magnetization    =    97.29 Bohr mag/cell

     iteration # 13     ecut=    50.00 Ry     beta= 0.10
     Davidson diagonalization with overlap
     ethr =  3.59E-04,  avg # of iterations =  1.5

     negative rho (up, down):  5.725E-06 8.915E-05
 
     Adding external electric field

     Computed dipole along edir(3) : 
        Dipole               -0.8964 Ry au,         -2.2785 Debye
        Dipole field         -0.0005 Ry au, 
 
        Potential amp.        0.0605 Ry
        Total length         55.1515 bohr
 
 
     Adding external electric field

     Computed dipole along edir(3) : 
        Dipole               -0.8964 Ry au,         -2.2785 Debye
        Dipole field         -0.0005 Ry au, 
 
        Potential amp.        0.0605 Ry
        Total length         55.1515 bohr
 

     total cpu time spent up to now is      315.8 secs

     total energy              =   -7737.92039106 Ry
     estimated scf accuracy    <       3.09541614 Ry

     total magnetization       =    84.82 Bohr mag/cell
     absolute magnetization    =    95.30 Bohr mag/cell

     iteration # 14     ecut=    50.00 Ry     beta= 0.10
     Davidson diagonalization with overlap
     ethr =  2.83E-04,  avg # of iterations =  1.5

     negative rho (up, down):  2.719E-05 5.275E-05
 
     Adding external electric field

     Computed dipole along edir(3) : 
        Dipole               -0.9091 Ry au,         -2.3107 Debye
        Dipole field         -0.0006 Ry au, 
 
        Potential amp.        0.0614 Ry
        Total length         55.1515 bohr
 
 
     Adding external electric field

     Computed dipole along edir(3) : 
        Dipole               -0.9091 Ry au,         -2.3107 Debye
        Dipole field         -0.0006 Ry au, 
 
        Potential amp.        0.0614 Ry
        Total length         55.1515 bohr
 

     total cpu time spent up to now is      335.3 secs

     total energy              =   -7737.93152214 Ry
     estimated scf accuracy    <       3.18450466 Ry

     total magnetization       =    83.88 Bohr mag/cell
     absolute magnetization    =    94.48 Bohr mag/cell

     iteration # 15     ecut=    50.00 Ry     beta= 0.10
     Davidson diagonalization with overlap
     ethr =  2.83E-04,  avg # of iterations =  1.5

     negative rho (up, down):  8.322E-06 1.695E-05
 
     Adding external electric field

     Computed dipole along edir(3) : 
        Dipole               -0.9440 Ry au,         -2.3994 Debye
        Dipole field         -0.0006 Ry au, 
 
        Potential amp.        0.0637 Ry
        Total length         55.1515 bohr
 
 
     Adding external electric field

     Computed dipole along edir(3) : 
        Dipole               -0.9440 Ry au,         -2.3994 Debye
        Dipole field         -0.0006 Ry au, 
 
        Potential amp.        0.0637 Ry
        Total length         55.1515 bohr
 

     total cpu time spent up to now is      349.9 secs

     total energy              =   -7737.90859190 Ry
     estimated scf accuracy    <       2.52426787 Ry

     total magnetization       =    88.25 Bohr mag/cell
     absolute magnetization    =    98.24 Bohr mag/cell

     iteration # 16     ecut=    50.00 Ry     beta= 0.10
     Davidson diagonalization with overlap
     ethr =  2.31E-04,  avg # of iterations =  2.0

     negative rho (up, down):  1.091E-05 3.458E-05
 
     Adding external electric field

     Computed dipole along edir(3) : 
        Dipole               -0.9253 Ry au,         -2.3519 Debye
        Dipole field         -0.0006 Ry au, 
 
        Potential amp.        0.0625 Ry
        Total length         55.1515 bohr
 
 
     Adding external electric field

     Computed dipole along edir(3) : 
        Dipole               -0.9253 Ry au,         -2.3519 Debye
        Dipole field         -0.0006 Ry au, 
 
        Potential amp.        0.0625 Ry
        Total length         55.1515 bohr
 

     total cpu time spent up to now is      370.0 secs

     total energy              =   -7737.96903508 Ry
     estimated scf accuracy    <       2.86374351 Ry

     total magnetization       =    85.27 Bohr mag/cell
     absolute magnetization    =    95.57 Bohr mag/cell

     iteration # 17     ecut=    50.00 Ry     beta= 0.10
     Davidson diagonalization with overlap
     ethr =  2.31E-04,  avg # of iterations =  1.5

     negative rho (up, down):  1.390E-05 2.356E-05
 
     Adding external electric field

     Computed dipole along edir(3) : 
        Dipole               -0.9685 Ry au,         -2.4616 Debye
        Dipole field         -0.0006 Ry au, 
 
        Potential amp.        0.0654 Ry
        Total length         55.1515 bohr
 
 
     Adding external electric field

     Computed dipole along edir(3) : 
        Dipole               -0.9685 Ry au,         -2.4616 Debye
        Dipole field         -0.0006 Ry au, 
 
        Potential amp.        0.0654 Ry
        Total length         55.1515 bohr
 

     total cpu time spent up to now is      387.5 secs

     total energy              =   -7738.07482185 Ry
     estimated scf accuracy    <       5.11757471 Ry

     total magnetization       =    82.45 Bohr mag/cell
     absolute magnetization    =    93.11 Bohr mag/cell

     iteration # 18     ecut=    50.00 Ry     beta= 0.10
     Davidson diagonalization with overlap
     ethr =  2.31E-04,  avg # of iterations =  1.5

     negative rho (up, down):  4.608E-06 1.076E-05
 
     Adding external electric field

     Computed dipole along edir(3) : 
        Dipole               -1.0257 Ry au,         -2.6070 Debye
        Dipole field         -0.0006 Ry au, 
 
        Potential amp.        0.0693 Ry
        Total length         55.1515 bohr
 
 
     Adding external electric field

     Computed dipole along edir(3) : 
        Dipole               -1.0257 Ry au,         -2.6070 Debye
        Dipole field         -0.0006 Ry au, 
 
        Potential amp.        0.0693 Ry
        Total length         55.1515 bohr
 

     total cpu time spent up to now is      405.0 secs

     total energy              =   -7738.26209202 Ry
     estimated scf accuracy    <      10.38891605 Ry

     total magnetization       =    78.59 Bohr mag/cell
     absolute magnetization    =    90.00 Bohr mag/cell

     iteration # 19     ecut=    50.00 Ry     beta= 0.10
     Davidson diagonalization with overlap
     ethr =  2.31E-04,  avg # of iterations =  1.5

     negative rho (up, down):  1.545E-06 5.426E-05
 
     Adding external electric field

     Computed dipole along edir(3) : 
        Dipole               -1.0675 Ry au,         -2.7134 Debye
        Dipole field         -0.0007 Ry au, 
 
        Potential amp.        0.0721 Ry
        Total length         55.1515 bohr
 
 
     Adding external electric field

     Computed dipole along edir(3) : 
        Dipole               -1.0675 Ry au,         -2.7134 Debye
        Dipole field         -0.0007 Ry au, 
 
        Potential amp.        0.0721 Ry
        Total length         55.1515 bohr
 

     total cpu time spent up to now is      419.1 secs

     total energy              =   -7738.09163716 Ry
     estimated scf accuracy    <      11.71532699 Ry

     total magnetization       =    77.25 Bohr mag/cell
     absolute magnetization    =    88.41 Bohr mag/cell

     iteration # 20     ecut=    50.00 Ry     beta= 0.10
     Davidson diagonalization with overlap
     ethr =  2.31E-04,  avg # of iterations =  1.5

     negative rho (up, down):  6.443E-06 9.413E-05
 
     Adding external electric field

     Computed dipole along edir(3) : 
        Dipole               -1.1492 Ry au,         -2.9209 Debye
        Dipole field         -0.0007 Ry au, 
 
        Potential amp.        0.0776 Ry
        Total length         55.1515 bohr
 
 
     Adding external electric field

     Computed dipole along edir(3) : 
        Dipole               -1.1492 Ry au,         -2.9209 Debye
        Dipole field         -0.0007 Ry au, 
 
        Potential amp.        0.0776 Ry
        Total length         55.1515 bohr
 

     total cpu time spent up to now is      433.0 secs

     total energy              =   -7738.25584212 Ry
     estimated scf accuracy    <       6.82908472 Ry

     total magnetization       =    81.57 Bohr mag/cell
     absolute magnetization    =    90.35 Bohr mag/cell

     iteration # 21     ecut=    50.00 Ry     beta= 0.10
     Davidson diagonalization with overlap
     ethr =  2.31E-04,  avg # of iterations =  1.5

     negative rho (up, down):  3.709E-06 2.903E-04
 
     Adding external electric field

     Computed dipole along edir(3) : 
        Dipole               -1.0861 Ry au,         -2.7605 Debye
        Dipole field         -0.0007 Ry au, 
 
        Potential amp.        0.0733 Ry
        Total length         55.1515 bohr
 
 
     Adding external electric field

     Computed dipole along edir(3) : 
        Dipole               -1.0861 Ry au,         -2.7605 Debye
        Dipole field         -0.0007 Ry au, 
 
        Potential amp.        0.0733 Ry
        Total length         55.1515 bohr
 

     total cpu time spent up to now is      446.3 secs

     total energy              =   -7738.04606139 Ry
     estimated scf accuracy    <       7.43215627 Ry

     total magnetization       =    80.09 Bohr mag/cell
     absolute magnetization    =    88.08 Bohr mag/cell

     iteration # 22     ecut=    50.00 Ry     beta= 0.10
     Davidson diagonalization with overlap
     ethr =  2.31E-04,  avg # of iterations =  1.5

     negative rho (up, down):  2.021E-05 4.211E-04
 
     Adding external electric field

     Computed dipole along edir(3) : 
        Dipole               -1.1632 Ry au,         -2.9566 Debye
        Dipole field         -0.0007 Ry au, 
 
        Potential amp.        0.0785 Ry
        Total length         55.1515 bohr
 
 
     Adding external electric field

     Computed dipole along edir(3) : 
        Dipole               -1.1632 Ry au,         -2.9566 Debye
        Dipole field         -0.0007 Ry au, 
 
        Potential amp.        0.0785 Ry
        Total length         55.1515 bohr
 

     total cpu time spent up to now is      458.3 secs

     total energy              =   -7738.18544325 Ry
     estimated scf accuracy    <       1.71883607 Ry

     total magnetization       =    86.56 Bohr mag/cell
     absolute magnetization    =    93.15 Bohr mag/cell

     iteration # 23     ecut=    50.00 Ry     beta= 0.10
     Davidson diagonalization with overlap
     ethr =  1.57E-04,  avg # of iterations =  2.0

     negative rho (up, down):  2.377E-05 2.662E-04
 
     Adding external electric field

     Computed dipole along edir(3) : 
        Dipole               -1.1331 Ry au,         -2.8800 Debye
        Dipole field         -0.0007 Ry au, 
 
        Potential amp.        0.0765 Ry
        Total length         55.1515 bohr
 
 
     Adding external electric field

     Computed dipole along edir(3) : 
        Dipole               -1.1331 Ry au,         -2.8800 Debye
        Dipole field         -0.0007 Ry au, 
 
        Potential amp.        0.0765 Ry
        Total length         55.1515 bohr
 

     total cpu time spent up to now is      471.0 secs

     total energy              =   -7738.22855255 Ry
     estimated scf accuracy    <       0.83428727 Ry

     total magnetization       =    88.22 Bohr mag/cell
     absolute magnetization    =    92.96 Bohr mag/cell

     iteration # 24     ecut=    50.00 Ry     beta= 0.10
     Davidson diagonalization with overlap
     ethr =  7.63E-05,  avg # of iterations =  2.0

     negative rho (up, down):  2.638E-05 2.511E-04
 
     Adding external electric field

     Computed dipole along edir(3) : 
        Dipole               -1.1158 Ry au,         -2.8361 Debye
        Dipole field         -0.0007 Ry au, 
 
        Potential amp.        0.0753 Ry
        Total length         55.1515 bohr
 
 
     Adding external electric field

     Computed dipole along edir(3) : 
        Dipole               -1.1158 Ry au,         -2.8361 Debye
        Dipole field         -0.0007 Ry au, 
 
        Potential amp.        0.0753 Ry
        Total length         55.1515 bohr
 

     total cpu time spent up to now is      484.4 secs

     total energy              =   -7738.25162092 Ry
     estimated scf accuracy    <       0.60627172 Ry

     total magnetization       =    88.74 Bohr mag/cell
     absolute magnetization    =    92.61 Bohr mag/cell

     iteration # 25     ecut=    50.00 Ry     beta= 0.10
     Davidson diagonalization with overlap
     c_bands:  3 eigenvalues not converged
     ethr =  5.55E-05,  avg # of iterations = 11.0

     negative rho (up, down):  1.764E-05 2.046E-04
 
     Adding external electric field

     Computed dipole along edir(3) : 
        Dipole               -1.0272 Ry au,         -2.6108 Debye
        Dipole field         -0.0006 Ry au, 
 
        Potential amp.        0.0694 Ry
        Total length         55.1515 bohr
 
 
     Adding external electric field

     Computed dipole along edir(3) : 
        Dipole               -1.0272 Ry au,         -2.6108 Debye
        Dipole field         -0.0006 Ry au, 
 
        Potential amp.        0.0694 Ry
        Total length         55.1515 bohr
 

     total cpu time spent up to now is      510.6 secs

     total energy              =   -7738.26546198 Ry
     estimated scf accuracy    <       0.47475167 Ry

     total magnetization       =    88.69 Bohr mag/cell
     absolute magnetization    =    91.82 Bohr mag/cell

     iteration # 26     ecut=    50.00 Ry     beta= 0.10
     Davidson diagonalization with overlap
     ethr =  4.34E-05,  avg # of iterations =  2.0

     negative rho (up, down):  1.001E-05 3.719E-04
 
     Adding external electric field

     Computed dipole along edir(3) : 
        Dipole               -0.9864 Ry au,         -2.5071 Debye
        Dipole field         -0.0006 Ry au, 
 
        Potential amp.        0.0666 Ry
        Total length         55.1515 bohr
 
 
     Adding external electric field

     Computed dipole along edir(3) : 
        Dipole               -0.9864 Ry au,         -2.5071 Debye
        Dipole field         -0.0006 Ry au, 
 
        Potential amp.        0.0666 Ry
        Total length         55.1515 bohr
 

     total cpu time spent up to now is      527.6 secs

     total energy              =   -7738.26755508 Ry
     estimated scf accuracy    <       0.26685278 Ry

     total magnetization       =    88.50 Bohr mag/cell
     absolute magnetization    =    90.65 Bohr mag/cell

     iteration # 27     ecut=    50.00 Ry     beta= 0.10
     Davidson diagonalization with overlap
     ethr =  2.44E-05,  avg # of iterations = 12.0

     negative rho (up, down):  1.001E-05 4.015E-04
 
     Adding external electric field

     Computed dipole along edir(3) : 
        Dipole               -0.9842 Ry au,         -2.5017 Debye
        Dipole field         -0.0006 Ry au, 
 
        Potential amp.        0.0665 Ry
        Total length         55.1515 bohr
 
 
     Adding external electric field

     Computed dipole along edir(3) : 
        Dipole               -0.9842 Ry au,         -2.5017 Debye
        Dipole field         -0.0006 Ry au, 
 
        Potential amp.        0.0665 Ry
        Total length         55.1515 bohr
 

     total cpu time spent up to now is      563.0 secs

     total energy              =   -7738.27378295 Ry
     estimated scf accuracy    <       0.18050051 Ry

     total magnetization       =    87.95 Bohr mag/cell
     absolute magnetization    =    89.56 Bohr mag/cell

     iteration # 28     ecut=    50.00 Ry     beta= 0.10
     Davidson diagonalization with overlap
     ethr =  1.65E-05,  avg # of iterations =  1.5

     negative rho (up, down):  5.416E-06 3.011E-04
 
     Adding external electric field

     Computed dipole along edir(3) : 
        Dipole               -0.9711 Ry au,         -2.4682 Debye
        Dipole field         -0.0006 Ry au, 
 
        Potential amp.        0.0656 Ry
        Total length         55.1515 bohr
 
 
     Adding external electric field

     Computed dipole along edir(3) : 
        Dipole               -0.9711 Ry au,         -2.4682 Debye
        Dipole field         -0.0006 Ry au, 
 
        Potential amp.        0.0656 Ry
        Total length         55.1515 bohr
 

     total cpu time spent up to now is      580.8 secs

     total energy              =   -7738.28682177 Ry
     estimated scf accuracy    <       0.17058330 Ry

     total magnetization       =    87.95 Bohr mag/cell
     absolute magnetization    =    89.50 Bohr mag/cell

     iteration # 29     ecut=    50.00 Ry     beta= 0.10
     Davidson diagonalization with overlap
     c_bands:  4 eigenvalues not converged
     ethr =  1.56E-05,  avg # of iterations = 10.5

     negative rho (up, down):  3.068E-04 6.347E-04
 
     Adding external electric field

     Computed dipole along edir(3) : 
        Dipole               -0.8535 Ry au,         -2.1694 Debye
        Dipole field         -0.0005 Ry au, 
 
        Potential amp.        0.0576 Ry
        Total length         55.1515 bohr
 
 
     Adding external electric field

     Computed dipole along edir(3) : 
        Dipole               -0.8535 Ry au,         -2.1694 Debye
        Dipole field         -0.0005 Ry au, 
 
        Potential amp.        0.0576 Ry
        Total length         55.1515 bohr
 

     total cpu time spent up to now is      605.6 secs

     total energy              =   -7738.31117383 Ry
     estimated scf accuracy    <       0.13642855 Ry

     total magnetization       =    88.61 Bohr mag/cell
     absolute magnetization    =    90.03 Bohr mag/cell

     iteration # 30     ecut=    50.00 Ry     beta= 0.10
     Davidson diagonalization with overlap
     ethr =  1.25E-05,  avg # of iterations =  3.0

     negative rho (up, down):  2.461E-04 4.284E-04
 
     Adding external electric field

     Computed dipole along edir(3) : 
        Dipole               -0.8547 Ry au,         -2.1725 Debye
        Dipole field         -0.0005 Ry au, 
 
        Potential amp.        0.0577 Ry
        Total length         55.1515 bohr
 
 
     Adding external electric field

     Computed dipole along edir(3) : 
        Dipole               -0.8547 Ry au,         -2.1725 Debye
        Dipole field         -0.0005 Ry au, 
 
        Potential amp.        0.0577 Ry
        Total length         55.1515 bohr
 

     total cpu time spent up to now is      627.2 secs

     total energy              =   -7738.31642439 Ry
     estimated scf accuracy    <       0.07708873 Ry

     total magnetization       =    88.29 Bohr mag/cell
     absolute magnetization    =    89.50 Bohr mag/cell

     iteration # 31     ecut=    50.00 Ry     beta= 0.10
     Davidson diagonalization with overlap
     ethr =  7.05E-06,  avg # of iterations =  2.0

     negative rho (up, down):  6.372E-04 9.771E-04
 
     Adding external electric field

     Computed dipole along edir(3) : 
        Dipole               -0.8330 Ry au,         -2.1173 Debye
        Dipole field         -0.0005 Ry au, 
 
        Potential amp.        0.0562 Ry
        Total length         55.1515 bohr
 
 
     Adding external electric field

     Computed dipole along edir(3) : 
        Dipole               -0.8330 Ry au,         -2.1173 Debye
        Dipole field         -0.0005 Ry au, 
 
        Potential amp.        0.0562 Ry
        Total length         55.1515 bohr
 

     total cpu time spent up to now is      642.1 secs

     total energy              =   -7738.31882425 Ry
     estimated scf accuracy    <       0.03780336 Ry

     total magnetization       =    88.76 Bohr mag/cell
     absolute magnetization    =    90.07 Bohr mag/cell

     iteration # 32     ecut=    50.00 Ry     beta= 0.10
     Davidson diagonalization with overlap
     c_bands:  1 eigenvalues not converged
     c_bands:  3 eigenvalues not converged
     ethr =  3.46E-06,  avg # of iterations = 20.0

     negative rho (up, down):  9.006E-04 1.414E-03
 
     Adding external electric field

     Computed dipole along edir(3) : 
        Dipole               -0.8084 Ry au,         -2.0546 Debye
        Dipole field         -0.0005 Ry au, 
 
        Potential amp.        0.0546 Ry
        Total length         55.1515 bohr
 
 
     Adding external electric field

     Computed dipole along edir(3) : 
        Dipole               -0.8084 Ry au,         -2.0546 Debye
        Dipole field         -0.0005 Ry au, 
 
        Potential amp.        0.0546 Ry
        Total length         55.1515 bohr
 

     total cpu time spent up to now is      681.2 secs

     total energy              =   -7738.31802127 Ry
     estimated scf accuracy    <       0.03414486 Ry

     total magnetization       =    88.89 Bohr mag/cell
     absolute magnetization    =    90.16 Bohr mag/cell

     iteration # 33     ecut=    50.00 Ry     beta= 0.10
     Davidson diagonalization with overlap
     ethr =  3.12E-06,  avg # of iterations = 12.5

     negative rho (up, down):  1.098E-03 1.670E-03
 
     Adding external electric field

     Computed dipole along edir(3) : 
        Dipole               -0.8171 Ry au,         -2.0768 Debye
        Dipole field         -0.0005 Ry au, 
 
        Potential amp.        0.0552 Ry
        Total length         55.1515 bohr
 
 
     Adding external electric field

     Computed dipole along edir(3) : 
        Dipole               -0.8171 Ry au,         -2.0768 Debye
        Dipole field         -0.0005 Ry au, 
 
        Potential amp.        0.0552 Ry
        Total length         55.1515 bohr
 

     total cpu time spent up to now is      711.7 secs

     total energy              =   -7738.31830832 Ry
     estimated scf accuracy    <       0.03140087 Ry

     total magnetization       =    88.78 Bohr mag/cell
     absolute magnetization    =    89.95 Bohr mag/cell

     iteration # 34     ecut=    50.00 Ry     beta= 0.10
     Davidson diagonalization with overlap
     ethr =  2.87E-06,  avg # of iterations =  1.5

     negative rho (up, down):  1.172E-03 1.762E-03
 
     Adding external electric field

     Computed dipole along edir(3) : 
        Dipole               -0.8240 Ry au,         -2.0943 Debye
        Dipole field         -0.0005 Ry au, 
 
        Potential amp.        0.0556 Ry
        Total length         55.1515 bohr
 
 
     Adding external electric field

     Computed dipole along edir(3) : 
        Dipole               -0.8240 Ry au,         -2.0943 Debye
        Dipole field         -0.0005 Ry au, 
 
        Potential amp.        0.0556 Ry
        Total length         55.1515 bohr
 

     total cpu time spent up to now is      724.3 secs

     total energy              =   -7738.31842838 Ry
     estimated scf accuracy    <       0.03221914 Ry

     total magnetization       =    88.68 Bohr mag/cell
     absolute magnetization    =    89.83 Bohr mag/cell

     iteration # 35     ecut=    50.00 Ry     beta= 0.10
     Davidson diagonalization with overlap
     ethr =  2.87E-06,  avg # of iterations =  1.0

     negative rho (up, down):  1.210E-03 1.807E-03
 
     Adding external electric field

     Computed dipole along edir(3) : 
        Dipole               -0.8269 Ry au,         -2.1018 Debye
        Dipole field         -0.0005 Ry au, 
 
        Potential amp.        0.0558 Ry
        Total length         55.1515 bohr
 
 
     Adding external electric field

     Computed dipole along edir(3) : 
        Dipole               -0.8269 Ry au,         -2.1018 Debye
        Dipole field         -0.0005 Ry au, 
 
        Potential amp.        0.0558 Ry
        Total length         55.1515 bohr
 

     total cpu time spent up to now is      735.5 secs

     total energy              =   -7738.31857208 Ry
     estimated scf accuracy    <       0.03198400 Ry

     total magnetization       =    88.66 Bohr mag/cell
     absolute magnetization    =    89.81 Bohr mag/cell

     iteration # 36     ecut=    50.00 Ry     beta= 0.10
     Davidson diagonalization with overlap
     ethr =  2.87E-06,  avg # of iterations =  1.5

     negative rho (up, down):  1.014E-03 1.509E-03
 
     Adding external electric field

     Computed dipole along edir(3) : 
        Dipole               -0.8106 Ry au,         -2.0603 Debye
        Dipole field         -0.0005 Ry au, 
 
        Potential amp.        0.0547 Ry
        Total length         55.1515 bohr
 
 
     Adding external electric field

     Computed dipole along edir(3) : 
        Dipole               -0.8106 Ry au,         -2.0603 Debye
        Dipole field         -0.0005 Ry au, 
 
        Potential amp.        0.0547 Ry
        Total length         55.1515 bohr
 

     total cpu time spent up to now is      748.3 secs

     total energy              =   -7738.31944932 Ry
     estimated scf accuracy    <       0.03346385 Ry

     total magnetization       =    88.66 Bohr mag/cell
     absolute magnetization    =    89.82 Bohr mag/cell

     iteration # 37     ecut=    50.00 Ry     beta= 0.10
     Davidson diagonalization with overlap
     ethr =  2.87E-06,  avg # of iterations =  1.0

     negative rho (up, down):  1.067E-03 1.579E-03
 
     Adding external electric field

     Computed dipole along edir(3) : 
        Dipole               -0.8230 Ry au,         -2.0918 Debye
        Dipole field         -0.0005 Ry au, 
 
        Potential amp.        0.0556 Ry
        Total length         55.1515 bohr
 
 
     Adding external electric field

     Computed dipole along edir(3) : 
        Dipole               -0.8230 Ry au,         -2.0918 Debye
        Dipole field         -0.0005 Ry au, 
 
        Potential amp.        0.0556 Ry
        Total length         55.1515 bohr
 

     total cpu time spent up to now is      770.2 secs

     total energy              =   -7738.31930313 Ry
     estimated scf accuracy    <       0.03220065 Ry

     total magnetization       =    88.72 Bohr mag/cell
     absolute magnetization    =    89.93 Bohr mag/cell

     iteration # 38     ecut=    50.00 Ry     beta= 0.10
     Davidson diagonalization with overlap
     ethr =  2.87E-06,  avg # of iterations =  1.0

     negative rho (up, down):  1.141E-03 1.661E-03
 
     Adding external electric field

     Computed dipole along edir(3) : 
        Dipole               -0.8311 Ry au,         -2.1125 Debye
        Dipole field         -0.0005 Ry au, 
 
        Potential amp.        0.0561 Ry
        Total length         55.1515 bohr
 
 
     Adding external electric field

     Computed dipole along edir(3) : 
        Dipole               -0.8311 Ry au,         -2.1125 Debye
        Dipole field         -0.0005 Ry au, 
 
        Potential amp.        0.0561 Ry
        Total length         55.1515 bohr
 

     total cpu time spent up to now is      789.2 secs

     total energy              =   -7738.31934632 Ry
     estimated scf accuracy    <       0.02852908 Ry

     total magnetization       =    88.73 Bohr mag/cell
     absolute magnetization    =    89.93 Bohr mag/cell

     iteration # 39     ecut=    50.00 Ry     beta= 0.10
     Davidson diagonalization with overlap
     ethr =  2.61E-06,  avg # of iterations =  1.0

     negative rho (up, down):  2.400E-04 3.758E-04
 
     Adding external electric field

     Computed dipole along edir(3) : 
        Dipole               -0.7674 Ry au,         -1.9504 Debye
        Dipole field         -0.0005 Ry au, 
 
        Potential amp.        0.0518 Ry
        Total length         55.1515 bohr
 
 
     Adding external electric field

     Computed dipole along edir(3) : 
        Dipole               -0.7674 Ry au,         -1.9504 Debye
        Dipole field         -0.0005 Ry au, 
 
        Potential amp.        0.0518 Ry
        Total length         55.1515 bohr
 

     total cpu time spent up to now is      805.9 secs

     total energy              =   -7738.31863252 Ry
     estimated scf accuracy    <       0.02660491 Ry

     total magnetization       =    88.75 Bohr mag/cell
     absolute magnetization    =    89.94 Bohr mag/cell

     iteration # 40     ecut=    50.00 Ry     beta= 0.10
     Davidson diagonalization with overlap
     ethr =  2.43E-06,  avg # of iterations =  1.5

     negative rho (up, down):  9.693E-05 9.167E-05
 
     Adding external electric field

     Computed dipole along edir(3) : 
        Dipole               -0.7129 Ry au,         -1.8119 Debye
        Dipole field         -0.0004 Ry au, 
 
        Potential amp.        0.0481 Ry
        Total length         55.1515 bohr
 
 
     Adding external electric field

     Computed dipole along edir(3) : 
        Dipole               -0.7129 Ry au,         -1.8119 Debye
        Dipole field         -0.0004 Ry au, 
 
        Potential amp.        0.0481 Ry
        Total length         55.1515 bohr
 

     total cpu time spent up to now is      833.0 secs

     total energy              =   -7738.31860702 Ry
     estimated scf accuracy    <       0.02445038 Ry

     total magnetization       =    88.72 Bohr mag/cell
     absolute magnetization    =    89.90 Bohr mag/cell

     iteration # 41     ecut=    50.00 Ry     beta= 0.10
     Davidson diagonalization with overlap
     ethr =  2.24E-06,  avg # of iterations =  2.0

     negative rho (up, down):  1.399E-04 1.503E-04
 
     Adding external electric field

     Computed dipole along edir(3) : 
        Dipole               -0.7010 Ry au,         -1.7819 Debye
        Dipole field         -0.0004 Ry au, 
 
        Potential amp.        0.0473 Ry
        Total length         55.1515 bohr
 
 
     Adding external electric field

     Computed dipole along edir(3) : 
        Dipole               -0.7010 Ry au,         -1.7819 Debye
        Dipole field         -0.0004 Ry au, 
 
        Potential amp.        0.0473 Ry
        Total length         55.1515 bohr
 

     total cpu time spent up to now is      848.2 secs

     total energy              =   -7738.31782067 Ry
     estimated scf accuracy    <       0.02315996 Ry

     total magnetization       =    88.65 Bohr mag/cell
     absolute magnetization    =    89.82 Bohr mag/cell

     iteration # 42     ecut=    50.00 Ry     beta= 0.10
     Davidson diagonalization with overlap
     ethr =  2.12E-06,  avg # of iterations =  1.5

     negative rho (up, down):  7.387E-05 7.506E-05
 
     Adding external electric field

     Computed dipole along edir(3) : 
        Dipole               -0.7314 Ry au,         -1.8591 Debye
        Dipole field         -0.0004 Ry au, 
 
        Potential amp.        0.0494 Ry
        Total length         55.1515 bohr
 
 
     Adding external electric field

     Computed dipole along edir(3) : 
        Dipole               -0.7314 Ry au,         -1.8591 Debye
        Dipole field         -0.0004 Ry au, 
 
        Potential amp.        0.0494 Ry
        Total length         55.1515 bohr
 

     total cpu time spent up to now is      862.3 secs

     total energy              =   -7738.31905117 Ry
     estimated scf accuracy    <       0.02375671 Ry

     total magnetization       =    88.63 Bohr mag/cell
     absolute magnetization    =    89.78 Bohr mag/cell

     iteration # 43     ecut=    50.00 Ry     beta= 0.10
     Davidson diagonalization with overlap
     ethr =  2.12E-06,  avg # of iterations =  1.0

     negative rho (up, down):  9.792E-05 1.023E-04
 
     Adding external electric field

     Computed dipole along edir(3) : 
        Dipole               -0.7183 Ry au,         -1.8257 Debye
        Dipole field         -0.0004 Ry au, 
 
        Potential amp.        0.0485 Ry
        Total length         55.1515 bohr
 
 
     Adding external electric field

     Computed dipole along edir(3) : 
        Dipole               -0.7183 Ry au,         -1.8257 Debye
        Dipole field         -0.0004 Ry au, 
 
        Potential amp.        0.0485 Ry
        Total length         55.1515 bohr
 

     total cpu time spent up to now is      877.7 secs

     total energy              =   -7738.31891556 Ry
     estimated scf accuracy    <       0.02329329 Ry

     total magnetization       =    88.62 Bohr mag/cell
     absolute magnetization    =    89.80 Bohr mag/cell

     iteration # 44     ecut=    50.00 Ry     beta= 0.10
     Davidson diagonalization with overlap
     ethr =  2.12E-06,  avg # of iterations =  1.5

     negative rho (up, down):  8.561E-05 8.969E-05
 
     Adding external electric field

     Computed dipole along edir(3) : 
        Dipole               -0.7322 Ry au,         -1.8610 Debye
        Dipole field         -0.0004 Ry au, 
 
        Potential amp.        0.0494 Ry
        Total length         55.1515 bohr
 
 
     Adding external electric field

     Computed dipole along edir(3) : 
        Dipole               -0.7322 Ry au,         -1.8610 Debye
        Dipole field         -0.0004 Ry au, 
 
        Potential amp.        0.0494 Ry
        Total length         55.1515 bohr
 

     total cpu time spent up to now is      892.6 secs

     total energy              =   -7738.31887478 Ry
     estimated scf accuracy    <       0.02239399 Ry

     total magnetization       =    88.65 Bohr mag/cell
     absolute magnetization    =    89.82 Bohr mag/cell

     iteration # 45     ecut=    50.00 Ry     beta= 0.10
     Davidson diagonalization with overlap
     ethr =  2.05E-06,  avg # of iterations =  1.0

     negative rho (up, down):  1.440E-04 1.921E-04
 
     Adding external electric field

     Computed dipole along edir(3) : 
        Dipole               -0.7595 Ry au,         -1.9304 Debye
        Dipole field         -0.0005 Ry au, 
 
        Potential amp.        0.0513 Ry
        Total length         55.1515 bohr
 
 
     Adding external electric field

     Computed dipole along edir(3) : 
        Dipole               -0.7595 Ry au,         -1.9304 Debye
        Dipole field         -0.0005 Ry au, 
 
        Potential amp.        0.0513 Ry
        Total length         55.1515 bohr
 

     total cpu time spent up to now is      906.6 secs

     total energy              =   -7738.31841952 Ry
     estimated scf accuracy    <       0.02288859 Ry

     total magnetization       =    88.70 Bohr mag/cell
     absolute magnetization    =    89.90 Bohr mag/cell

     iteration # 46     ecut=    50.00 Ry     beta= 0.10
     Davidson diagonalization with overlap
     ethr =  2.05E-06,  avg # of iterations =  1.5

     negative rho (up, down):  6.901E-05 6.152E-05
 
     Adding external electric field

     Computed dipole along edir(3) : 
        Dipole               -0.7198 Ry au,         -1.8295 Debye
        Dipole field         -0.0004 Ry au, 
 
        Potential amp.        0.0486 Ry
        Total length         55.1515 bohr
 
 
     Adding external electric field

     Computed dipole along edir(3) : 
        Dipole               -0.7198 Ry au,         -1.8295 Debye
        Dipole field         -0.0004 Ry au, 
 
        Potential amp.        0.0486 Ry
        Total length         55.1515 bohr
 

     total cpu time spent up to now is      919.9 secs

     total energy              =   -7738.31884930 Ry
     estimated scf accuracy    <       0.02308038 Ry

     total magnetization       =    88.66 Bohr mag/cell
     absolute magnetization    =    89.80 Bohr mag/cell

     iteration # 47     ecut=    50.00 Ry     beta= 0.10
     Davidson diagonalization with overlap
     ethr =  2.05E-06,  avg # of iterations =  1.0

     negative rho (up, down):  6.384E-05 6.402E-05
 
     Adding external electric field

     Computed dipole along edir(3) : 
        Dipole               -0.7136 Ry au,         -1.8138 Debye
        Dipole field         -0.0004 Ry au, 
 
        Potential amp.        0.0482 Ry
        Total length         55.1515 bohr
 
 
     Adding external electric field

     Computed dipole along edir(3) : 
        Dipole               -0.7136 Ry au,         -1.8138 Debye
        Dipole field         -0.0004 Ry au, 
 
        Potential amp.        0.0482 Ry
        Total length         55.1515 bohr
 

     total cpu time spent up to now is      930.3 secs

     total energy              =   -7738.31898544 Ry
     estimated scf accuracy    <       0.02117632 Ry

     total magnetization       =    88.67 Bohr mag/cell
     absolute magnetization    =    89.87 Bohr mag/cell

     iteration # 48     ecut=    50.00 Ry     beta= 0.10
     Davidson diagonalization with overlap
     ethr =  1.94E-06,  avg # of iterations =  1.0

     negative rho (up, down):  6.303E-05 3.831E-05
 
     Adding external electric field

     Computed dipole along edir(3) : 
        Dipole               -0.7085 Ry au,         -1.8008 Debye
        Dipole field         -0.0004 Ry au, 
 
        Potential amp.        0.0478 Ry
        Total length         55.1515 bohr
 
 
     Adding external electric field

     Computed dipole along edir(3) : 
        Dipole               -0.7085 Ry au,         -1.8008 Debye
        Dipole field         -0.0004 Ry au, 
 
        Potential amp.        0.0478 Ry
        Total length         55.1515 bohr
 

     total cpu time spent up to now is      941.1 secs

     total energy              =   -7738.31914816 Ry
     estimated scf accuracy    <       0.02291551 Ry

     total magnetization       =    88.64 Bohr mag/cell
     absolute magnetization    =    89.86 Bohr mag/cell

     iteration # 49     ecut=    50.00 Ry     beta= 0.10
     Davidson diagonalization with overlap
     ethr =  1.94E-06,  avg # of iterations =  1.5

     negative rho (up, down):  9.680E-05 6.814E-05
 
     Adding external electric field

     Computed dipole along edir(3) : 
        Dipole               -0.6976 Ry au,         -1.7731 Debye
        Dipole field         -0.0004 Ry au, 
 
        Potential amp.        0.0471 Ry
        Total length         55.1515 bohr
 
 
     Adding external electric field

     Computed dipole along edir(3) : 
        Dipole               -0.6976 Ry au,         -1.7731 Debye
        Dipole field         -0.0004 Ry au, 
 
        Potential amp.        0.0471 Ry
        Total length         55.1515 bohr
 

     total cpu time spent up to now is      953.4 secs

     total energy              =   -7738.31854390 Ry
     estimated scf accuracy    <       0.02173654 Ry

     total magnetization       =    88.69 Bohr mag/cell
     absolute magnetization    =    89.92 Bohr mag/cell

     iteration # 50     ecut=    50.00 Ry     beta= 0.10
     Davidson diagonalization with overlap
     ethr =  1.94E-06,  avg # of iterations =  1.5

     negative rho (up, down):  1.367E-04 8.793E-05
 
     Adding external electric field

     Computed dipole along edir(3) : 
        Dipole               -0.6773 Ry au,         -1.7216 Debye
        Dipole field         -0.0004 Ry au, 
 
        Potential amp.        0.0457 Ry
        Total length         55.1515 bohr
 
 
     Adding external electric field

     Computed dipole along edir(3) : 
        Dipole               -0.6773 Ry au,         -1.7216 Debye
        Dipole field         -0.0004 Ry au, 
 
        Potential amp.        0.0457 Ry
        Total length         55.1515 bohr
 

     total cpu time spent up to now is      975.9 secs

     total energy              =   -7738.31828183 Ry
     estimated scf accuracy    <       0.02083082 Ry

     total magnetization       =    88.66 Bohr mag/cell
     absolute magnetization    =    89.87 Bohr mag/cell

     iteration # 51     ecut=    50.00 Ry     beta= 0.10
     Davidson diagonalization with overlap
     ethr =  1.91E-06,  avg # of iterations =  1.5

     negative rho (up, down):  1.554E-04 1.280E-04
 
     Adding external electric field

     Computed dipole along edir(3) : 
        Dipole               -0.7002 Ry au,         -1.7796 Debye
        Dipole field         -0.0004 Ry au, 
 
        Potential amp.        0.0473 Ry
        Total length         55.1515 bohr
 
 
     Adding external electric field

     Computed dipole along edir(3) : 
        Dipole               -0.7002 Ry au,         -1.7796 Debye
        Dipole field         -0.0004 Ry au, 
 
        Potential amp.        0.0473 Ry
        Total length         55.1515 bohr
 

     total cpu time spent up to now is      994.0 secs

     total energy              =   -7738.31727121 Ry
     estimated scf accuracy    <       0.02114504 Ry

     total magnetization       =    88.64 Bohr mag/cell
     absolute magnetization    =    89.84 Bohr mag/cell

     iteration # 52     ecut=    50.00 Ry     beta= 0.10
     Davidson diagonalization with overlap
     ethr =  1.91E-06,  avg # of iterations =  1.5

     negative rho (up, down):  1.029E-04 7.398E-05
 
     Adding external electric field

     Computed dipole along edir(3) : 
        Dipole               -0.6448 Ry au,         -1.6390 Debye
        Dipole field         -0.0004 Ry au, 
 
        Potential amp.        0.0435 Ry
        Total length         55.1515 bohr
 
 
     Adding external electric field

     Computed dipole along edir(3) : 
        Dipole               -0.6448 Ry au,         -1.6390 Debye
        Dipole field         -0.0004 Ry au, 
 
        Potential amp.        0.0435 Ry
        Total length         55.1515 bohr
 

     total cpu time spent up to now is     1017.5 secs

     total energy              =   -7738.31863731 Ry
     estimated scf accuracy    <       0.02259927 Ry

     total magnetization       =    88.65 Bohr mag/cell
     absolute magnetization    =    89.84 Bohr mag/cell

     iteration # 53     ecut=    50.00 Ry     beta= 0.10
     Davidson diagonalization with overlap
     ethr =  1.91E-06,  avg # of iterations =  2.0

     negative rho (up, down):  1.301E-04 1.203E-04
 
     Adding external electric field

     Computed dipole along edir(3) : 
        Dipole               -0.6034 Ry au,         -1.5338 Debye
        Dipole field         -0.0004 Ry au, 
 
        Potential amp.        0.0407 Ry
        Total length         55.1515 bohr
 
 
     Adding external electric field

     Computed dipole along edir(3) : 
        Dipole               -0.6034 Ry au,         -1.5338 Debye
        Dipole field         -0.0004 Ry au, 
 
        Potential amp.        0.0407 Ry
        Total length         55.1515 bohr
 

     total cpu time spent up to now is     1038.2 secs

     total energy              =   -7738.31936075 Ry
     estimated scf accuracy    <       0.02147661 Ry

     total magnetization       =    88.63 Bohr mag/cell
     absolute magnetization    =    89.86 Bohr mag/cell

     iteration # 54     ecut=    50.00 Ry     beta= 0.10
     Davidson diagonalization with overlap
     ethr =  1.91E-06,  avg # of iterations =  2.0

     negative rho (up, down):  1.604E-04 1.716E-04
 
     Adding external electric field

     Computed dipole along edir(3) : 
        Dipole               -0.5664 Ry au,         -1.4397 Debye
        Dipole field         -0.0003 Ry au, 
 
        Potential amp.        0.0382 Ry
        Total length         55.1515 bohr
 
 
     Adding external electric field

     Computed dipole along edir(3) : 
        Dipole               -0.5664 Ry au,         -1.4397 Debye
        Dipole field         -0.0003 Ry au, 
 
        Potential amp.        0.0382 Ry
        Total length         55.1515 bohr
 

     total cpu time spent up to now is     1063.7 secs

     total energy              =   -7738.31894379 Ry
     estimated scf accuracy    <       0.01812602 Ry

     total magnetization       =    88.59 Bohr mag/cell
     absolute magnetization    =    89.86 Bohr mag/cell

     iteration # 55     ecut=    50.00 Ry     beta= 0.10
     Davidson diagonalization with overlap
     ethr =  1.66E-06,  avg # of iterations =  2.0

     negative rho (up, down):  5.256E-04 5.916E-04
 
     Adding external electric field

     Computed dipole along edir(3) : 
        Dipole               -0.4825 Ry au,         -1.2264 Debye
        Dipole field         -0.0003 Ry au, 
 
        Potential amp.        0.0326 Ry
        Total length         55.1515 bohr
 
 
     Adding external electric field

     Computed dipole along edir(3) : 
        Dipole               -0.4825 Ry au,         -1.2264 Debye
        Dipole field         -0.0003 Ry au, 
 
        Potential amp.        0.0326 Ry
        Total length         55.1515 bohr
 

     total cpu time spent up to now is     1086.8 secs

     total energy              =   -7738.31760601 Ry
     estimated scf accuracy    <       0.01482465 Ry

     total magnetization       =    88.56 Bohr mag/cell
     absolute magnetization    =    89.84 Bohr mag/cell

     iteration # 56     ecut=    50.00 Ry     beta= 0.10
     Davidson diagonalization with overlap
     ethr =  1.36E-06,  avg # of iterations =  7.5

     negative rho (up, down):  8.066E-04 9.348E-04
 
     Adding external electric field

     Computed dipole along edir(3) : 
        Dipole               -0.4668 Ry au,         -1.1865 Debye
        Dipole field         -0.0003 Ry au, 
 
        Potential amp.        0.0315 Ry
        Total length         55.1515 bohr
 
 
     Adding external electric field

     Computed dipole along edir(3) : 
        Dipole               -0.4668 Ry au,         -1.1865 Debye
        Dipole field         -0.0003 Ry au, 
 
        Potential amp.        0.0315 Ry
        Total length         55.1515 bohr
 

     total cpu time spent up to now is     1106.6 secs

     total energy              =   -7738.31725607 Ry
     estimated scf accuracy    <       0.00922019 Ry

     total magnetization       =    88.56 Bohr mag/cell
     absolute magnetization    =    89.86 Bohr mag/cell

     iteration # 57     ecut=    50.00 Ry     beta= 0.10
     Davidson diagonalization with overlap
     ethr =  8.44E-07,  avg # of iterations =  2.0

     negative rho (up, down):  7.265E-04 9.124E-04
 
     Adding external electric field

     Computed dipole along edir(3) : 
        Dipole               -0.4389 Ry au,         -1.1155 Debye
        Dipole field         -0.0003 Ry au, 
 
        Potential amp.        0.0296 Ry
        Total length         55.1515 bohr
 
 
     Adding external electric field

     Computed dipole along edir(3) : 
        Dipole               -0.4389 Ry au,         -1.1155 Debye
        Dipole field         -0.0003 Ry au, 
 
        Potential amp.        0.0296 Ry
        Total length         55.1515 bohr
 

     total cpu time spent up to now is     1126.6 secs

     total energy              =   -7738.31651221 Ry
     estimated scf accuracy    <       0.00733621 Ry

     total magnetization       =    88.55 Bohr mag/cell
     absolute magnetization    =    89.81 Bohr mag/cell

     iteration # 58     ecut=    50.00 Ry     beta= 0.10
     Davidson diagonalization with overlap
     ethr =  6.71E-07,  avg # of iterations =  2.0

     negative rho (up, down):  7.926E-04 9.148E-04
 
     Adding external electric field

     Computed dipole along edir(3) : 
        Dipole               -0.4233 Ry au,         -1.0759 Debye
[...]
    -5.9815  -5.9654  -5.9169  -5.9090  -5.8874  -5.8778  -5.8770  -5.8446
    -5.8236  -5.8022  -5.7505  -5.7388  -5.7232  -5.6894  -5.6781  -5.6445
    -5.6404  -5.6295  -5.5921  -5.5747  -5.5669  -5.5587  -5.5557  -5.5330
    -5.5163  -5.5047  -5.4808  -5.4436  -5.4017  -5.3541  -5.3308  -5.3161
    -5.2936  -5.2644  -5.2343  -5.1647  -5.1502  -5.1451  -5.1306  -5.1030
    -5.0508  -5.0106  -4.9720  -4.9464  -4.8992  -4.8889  -4.8594  -4.8580
    -4.8133  -4.7940  -4.7814  -4.7418  -4.7083  -4.6901  -4.6503  -4.6035
    -4.5525  -4.4760  -4.4452  -4.4257  -4.4187  -4.4032  -4.3631  -4.3524
    -4.3113  -4.2853  -4.2561  -4.2351  -4.2025  -4.1764  -4.1182  -4.1073
    -4.0869  -4.0484  -4.0453  -4.0181  -3.9580  -3.9325  -3.9194  -3.8797
    -3.8698  -3.8262  -3.8121  -3.7989  -3.7869  -3.7459  -3.7244  -3.7016
    -3.6910  -3.6637  -3.6475  -3.5979  -3.5848  -3.5770  -3.5740  -3.5471
    -3.5438  -3.5196  -3.5041  -3.4784  -3.4584  -3.4428  -3.4284  -3.4159
    -3.4141  -3.3705  -3.3603  -3.3539  -3.3415  -3.3056  -3.2787  -3.2586
    -3.2531  -3.2116  -3.1963  -3.1844  -3.1484  -3.1156  -3.1058  -3.0818
    -3.0730  -3.0681  -3.0484  -3.0359  -3.0212  -3.0035  -2.9820  -2.9657
    -2.9306  -2.9184  -2.8953  -2.8869  -2.8680  -2.8510  -2.8094  -2.7960
    -2.7861  -2.7586  -2.7530  -2.7431  -2.7267  -2.7151  -2.7019  -2.6880
    -2.6837  -2.6767  -2.6611  -2.6429  -2.6389  -2.6076  -2.6018  -2.5930
    -2.5741  -2.5689  -2.5416  -2.5269  -2.5142  -2.4846  -2.4716  -2.4568
    -2.4398  -2.4203  -2.4050  -2.3786  -2.3565  -2.3528  -2.3215  -2.2867
    -2.2768  -2.2676  -2.2305  -2.2070  -2.1928  -2.1817  -2.1458  -2.1427
    -2.1141  -2.0891  -2.0684  -2.0634  -2.0573  -2.0398  -2.0303  -2.0215
    -1.9971  -1.9789  -1.9397  -1.9164  -1.9116  -1.9104  -1.8743  -1.8558
    -1.8402  -1.8358  -1.8257  -1.8097  -1.7912  -1.7162  -1.7110  -1.6913
    -1.6712  -1.6572  -1.6349  -1.6281  -1.6158  -1.6150  -1.5919  -1.5710
    -1.5500  -1.5354  -1.5176  -1.4879  -1.4871  -1.4546  -1.4356  -1.4274
    -1.4043  -1.3975  -1.3834  -1.3758  -1.3578  -1.3508  -1.3062  -1.2672
    -1.2338  -1.2188  -1.1734  -1.1485  -1.1361  -1.1315  -1.0934  -1.0566
    -1.0446  -0.9947  -0.9288  -0.8483  -0.7390  -0.7289  -0.6188  -0.5573
    -0.5228  -0.5088  -0.3564  -0.2263   0.1778   0.2179   0.2405   0.2466
     0.2985   0.3103   0.3168   0.3206   0.3294   0.3482   0.3609   0.3665
     0.3745   0.3887   0.3970   0.4019   0.4049   0.4127   0.4180   0.4243
     0.4319   0.4406   0.4607   0.4652   0.4748   0.4826   0.4902   0.4911
     0.4957   0.5020   0.5091   0.5151   0.5252   0.5316   0.5358   0.5422
     0.5448   0.5629   0.5666   0.5739   0.5838   0.5978   0.6020   0.6170
     0.6230   0.6238   0.6428   0.6478   0.6530   0.6613   0.6651   0.6775
     0.6827   0.6905   0.7002   0.7075   0.7124   0.7298   0.7319   0.7423
     0.7477   0.7593   0.7666   0.7688   0.7749   0.7924   0.8009   0.8104
     0.8128   0.8239   0.8375   0.8557   0.8649   0.8668   0.8684   0.8722
     0.8828   0.8874   0.9050   0.9090   0.9179   0.9526   0.9859   0.9948
     1.0188   1.0479   1.0898   1.1122   1.1231   1.6751   1.7352   1.7476
     1.7694   1.7891   1.7999   1.8157   1.8271   1.8423   1.9045   1.9199
     1.9382   1.9685   1.9882   2.0087   2.0427   2.0452   2.0946   2.1065
     2.1322   2.1439   2.1457   2.1808   2.1901   2.1976   2.2051   2.2330
     2.2684   2.2765   2.2955   2.3048   2.3136   2.3231   2.3317   2.3507
     2.3724   2.3788   2.3924   2.3952   2.4163   2.4197   2.4319   2.4966
     2.5041   2.5311   2.5356   2.5405   2.5512   2.5670   2.5895   2.5979
     2.6241   2.6805   2.7058   2.7201   2.7502   2.8020   2.8079   2.8670
     2.8763   2.9543   3.6721   3.7073   3.7207   3.7577   3.7832   3.7976
     3.8634   3.9053   3.9321   3.9592   3.9691   3.9823   4.0009   4.0136
     4.0533   4.0591   4.1444   4.1476   4.1581   4.1799   4.6578   4.6871
     4.7893   4.8271   4.8619   4.9023   4.9204   4.9625   5.0400   5.0957
     5.1164   5.1464   5.4296   6.2434   6.3742   6.6115   6.6596   6.7565
     6.8495   6.8636   6.8905   6.9658   6.9884   7.0681   7.1171   7.1326
     7.2653   7.3489   7.3523   7.4196   7.4805   7.5422   7.5723   7.6297
     7.6612   7.6674   7.7414   7.7681   7.7952   7.8599   7.8927   7.9640
     7.9998   8.0453   8.0523   8.0901   8.1101   8.1585   8.1730   8.2111
     8.2457   8.2855   8.3027   8.3325   8.4032   8.4267   8.4275   8.4522
     8.4625   8.4786   8.4953   8.5374   8.5541   8.5731   8.5975   8.6217
     8.6714   8.7076   8.7248   8.7570   8.7671   8.7805   8.8399   8.8504

     the Fermi energy is     1.6600 ev

!    total energy              =   -7738.31799262 Ry
     estimated scf accuracy    <       0.00000087 Ry
     smearing contrib. (-TS)   =      -0.02307058 Ry
     internal energy E=F+TS    =   -7738.29492204 Ry

     The total energy is F=E-TS. E is the sum of the following terms:
     one-electron contribution =  -94760.00670020 Ry
     hartree contribution      =   47997.21213932 Ry
     xc contribution           =   -2218.70901225 Ry
     ewald contribution        =   41245.01594857 Ry
     Dispersion Correction     =      -1.80735336 Ry
     electric field correction =       0.00005586 Ry

     total magnetization       =    88.48 Bohr mag/cell
     absolute magnetization    =    89.85 Bohr mag/cell

     convergence has been achieved in  83 iterations

     negative rho (up, down):  1.052E-03 5.888E-04

     Forces acting on atoms (cartesian axes, Ry/au):

     atom    1 type  1   force =     0.00047736    0.00011984    0.00001877
     atom    2 type  2   force =    -0.00009226   -0.00016193    0.00054541
     atom    3 type  1   force =    -0.00043497    0.00017445   -0.00003587
     atom    4 type  1   force =     0.00004143    0.00016235   -0.00005899
     atom    5 type  1   force =    -0.00012584    0.00022090   -0.00000171
     atom    6 type  1   force =     0.00039818    0.00027915    0.00013056
     atom    7 type  3   force =    -0.00022596    0.00022341    0.00004886
     atom    8 type  3   force =    -0.00006482   -0.00011180   -0.00010463
     atom    9 type  3   force =     0.00031874   -0.00010215   -0.00010110
     atom   10 type  3   force =     0.00006695    0.00018597    0.00015415
     atom   11 type  4   force =     0.00071749   -0.00003525    0.00007749
     atom   12 type  4   force =    -0.00049768   -0.00023695    0.00010315
     atom   13 type  4   force =    -0.00011779    0.00007888   -0.00033304
     atom   14 type  4   force =    -0.00063024   -0.00020373    0.00000270
     atom   15 type  4   force =     0.00024634   -0.00025578   -0.00002324
     atom   16 type  4   force =    -0.00035218   -0.00030468   -0.00010470
     atom   17 type  4   force =    -0.00054433   -0.00021320    0.00012726
     atom   18 type  4   force =     0.00005597    0.00004412    0.00041693
     atom   19 type  4   force =    -0.00000663    0.00026024    0.00006583
     atom   20 type  4   force =    -0.00040947    0.00013545   -0.00012711
     atom   21 type  4   force =     0.00035662    0.00011898    0.00001124
     atom   22 type  4   force =     0.00032102    0.00017822   -0.00058656
     atom   23 type  4   force =    -0.00019607   -0.00007553   -0.00021614
     atom   24 type  4   force =     0.00042584    0.00034066   -0.00000208
     atom   25 type  4   force =    -0.00010816    0.00031546   -0.00002053
     atom   26 type  4   force =    -0.00050944    0.00002880   -0.00005749
     atom   27 type  1   force =    -0.00649341   -0.00675867   -0.00150745
     atom   28 type  2   force =    -0.01236115   -0.00000852   -0.00120151
     atom   29 type  1   force =     0.00351797   -0.00429101   -0.00032236
     atom   30 type  1   force =     0.00240481    0.00395787   -0.00142383
     atom   31 type  1   force =     0.00147525   -0.00474880    0.00007106
     atom   32 type  1   force =    -0.00101119    0.00125064    0.00213620
     atom   33 type  3   force =    -0.00697336   -0.00094884    0.00002639
     atom   34 type  3   force =    -0.00715307    0.00450798   -0.00257216
     atom   35 type  3   force =     0.00391091   -0.00257164   -0.00372424
     atom   36 type  3   force =     0.00121465   -0.00123947    0.00291074
     atom   37 type  4   force =     0.00860270    0.00537611   -0.00785761
     atom   38 type  4   force =     0.00448405   -0.00225457    0.01977995
     atom   39 type  4   force =    -0.00119027    0.00399727    0.01044812
     atom   40 type  4   force =    -0.00165336   -0.00235163   -0.00893007
     atom   41 type  4   force =     0.00195365    0.00838440    0.00622438
     atom   42 type  4   force =    -0.00572660   -0.00285198   -0.01993183
     atom   43 type  4   force =     0.01040154    0.00688435   -0.00684995
     atom   44 type  4   force =     0.00728823   -0.00311275    0.00593097
     atom   45 type  4   force =     0.00222964    0.00591367   -0.00065404
     atom   46 type  4   force =     0.00351769    0.00204457    0.00458995
     atom   47 type  4   force =    -0.01326470    0.00016095    0.00326132
     atom   48 type  4   force =    -0.01458697    0.00272530   -0.00311643
     atom   49 type  4   force =     0.01250047    0.00249380   -0.00467218
     atom   50 type  4   force =    -0.00384663   -0.00425847   -0.00001439
     atom   51 type  4   force =    -0.00447636    0.00279276   -0.00069310
     atom   52 type  4   force =     0.01638318   -0.00321519    0.00403705
     atom   53 type  1   force =    -0.00745091   -0.00697624   -0.00840780
     atom   54 type  2   force =     0.01577732    0.01726098   -0.01007140
     atom   55 type  1   force =     0.00582095   -0.00498780   -0.00585813
     atom   56 type  1   force =    -0.02066234    0.01942866    0.01981518
     atom   57 type  1   force =     0.00449540   -0.00745195   -0.00156377
     atom   58 type  1   force =    -0.00391851   -0.00557074   -0.00119177
     atom   59 type  3   force =    -0.03898380   -0.03830018   -0.05616346
     atom   60 type  3   force =    -0.00478744   -0.00133447   -0.00116465
     atom   61 type  3   force =     0.00271471   -0.00092695   -0.01018466
     atom   62 type  3   force =     0.02909290   -0.04950476   -0.06064928
     atom   63 type  4   force =     0.00622191    0.00340782    0.02112067
     atom   64 type  4   force =     0.00432972    0.00249863    0.01445954
     atom   65 type  4   force =    -0.00062015    0.00298174    0.01263069
     atom   66 type  4   force =     0.00020316    0.00207367    0.01628633
     atom   67 type  4   force =     0.00103467   -0.00070446    0.03891125
     atom   68 type  4   force =    -0.00580328   -0.00382486   -0.01714280
     atom   69 type  4   force =     0.00786867    0.00453035   -0.00253561
     atom   70 type  4   force =     0.00179693   -0.00743246    0.03520128
     atom   71 type  4   force =    -0.00901862    0.03929556    0.00087394
     atom   72 type  4   force =     0.00236361   -0.00066459    0.00793718
     atom   73 type  4   force =    -0.03024562    0.00089231    0.00758632
     atom   74 type  4   force =    -0.01362552    0.00141313   -0.00043314
     atom   75 type  4   force =     0.01222883    0.00350753   -0.00250812
     atom   76 type  4   force =    -0.00246291   -0.00303507    0.00256314
     atom   77 type  4   force =     0.00910391    0.02589629   -0.00262735
     atom   78 type  4   force =     0.03366399   -0.00637175    0.00612780
     atom   79 type  1   force =     0.00043987    0.00056889    0.00054189
     atom   80 type  2   force =    -0.00003564   -0.00004463    0.00006914
     atom   81 type  1   force =    -0.00020889   -0.00005512   -0.00039041
     atom   82 type  1   force =    -0.00006668   -0.00005778   -0.00006062
     atom   83 type  1   force =    -0.00057774    0.00019558    0.00034655
     atom   84 type  1   force =     0.00023667    0.00021209    0.00079572
     atom   85 type  3   force =    -0.00023224    0.00054823    0.00028481
     atom   86 type  3   force =    -0.00034254    0.00056185    0.00061070
     atom   87 type  3   force =    -0.00005433    0.00005894   -0.00013225
     atom   88 type  3   force =     0.00009244    0.00045718    0.00009166
     atom   89 type  4   force =    -0.00003291   -0.00040294   -0.00013977
     atom   90 type  4   force =    -0.00001685    0.00064973    0.00020587
     atom   91 type  4   force =     0.00026618    0.00002188   -0.00009032
     atom   92 type  4   force =    -0.00061602    0.00003812   -0.00007194
     atom   93 type  4   force =     0.00037457   -0.00025594    0.00025709
     atom   94 type  4   force =     0.00013155   -0.00059253   -0.00010193
     atom   95 type  4   force =    -0.00029536   -0.00011018   -0.00041660
     atom   96 type  4   force =    -0.00007360    0.00004120    0.00009116
     atom   97 type  4   force =    -0.00021713    0.00043110   -0.00018798
     atom   98 type  4   force =    -0.00004952   -0.00000401   -0.00008249
     atom   99 type  4   force =     0.00006689   -0.00007110   -0.00045151
     atom  100 type  4   force =     0.00047729    0.00056573   -0.00042982
     atom  101 type  4   force =     0.00004371   -0.00008611   -0.00026612
     atom  102 type  4   force =     0.00040428    0.00006060    0.00009098
     atom  103 type  4   force =    -0.00032468    0.00028693   -0.00049363
     atom  104 type  4   force =    -0.00054921    0.00052084    0.00008863
     atom  105 type  1   force =    -0.00627242   -0.00833480   -0.00279536
     atom  106 type  2   force =    -0.01198993    0.00020080   -0.00144398
     atom  107 type  1   force =     0.00314585   -0.00448710   -0.00048759
     atom  108 type  1   force =     0.00230330    0.00396088   -0.00155146
     atom  109 type  1   force =     0.00203308   -0.00477188   -0.00012307
     atom  110 type  1   force =    -0.00124816    0.00108149    0.00202215
     atom  111 type  3   force =    -0.00715975   -0.00082372   -0.00047893
     atom  112 type  3   force =    -0.00604551    0.00388700   -0.00150561
     atom  113 type  3   force =     0.00353957   -0.00104455   -0.00521905
     atom  114 type  3   force =     0.00106171   -0.00121084    0.00287928
     atom  115 type  4   force =     0.00877183    0.00505687   -0.00757964
     atom  116 type  4   force =     0.00354837   -0.00119665    0.02019759
     atom  117 type  4   force =    -0.00119779    0.00375542    0.01084441
     atom  118 type  4   force =    -0.00151108   -0.00241426   -0.00898362
     atom  119 type  4   force =     0.00211488    0.00846918    0.00625242
     atom  120 type  4   force =    -0.00548132   -0.00234607   -0.01754297
     atom  121 type  4   force =     0.01112070    0.00643941   -0.00738877
     atom  122 type  4   force =     0.00713963   -0.00312313    0.00591752
     atom  123 type  4   force =     0.00220724    0.00594437   -0.00063762
     atom  124 type  4   force =     0.00304441    0.00112121    0.00553220
     atom  125 type  4   force =    -0.01324575    0.00020900    0.00331487
     atom  126 type  4   force =    -0.01409123    0.00241968   -0.00306618
     atom  127 type  4   force =     0.01312257    0.00280498   -0.00485434
     atom  128 type  4   force =    -0.00414833   -0.00434188   -0.00001241
     atom  129 type  4   force =    -0.00432934    0.00274421   -0.00059139
     atom  130 type  4   force =     0.01652106   -0.00320585    0.00418641
     atom  131 type  1   force =    -0.00755130   -0.00690032   -0.00842961
     atom  132 type  2   force =     0.01572982    0.01723250   -0.01004186
     atom  133 type  1   force =     0.00583375   -0.00499111   -0.00584008
     atom  134 type  1   force =    -0.02065802    0.01942301    0.01982236
     atom  135 type  1   force =     0.00445438   -0.00744448   -0.00155625
     atom  136 type  1   force =    -0.00390468   -0.00554886   -0.00117209
     atom  137 type  3   force =    -0.03901830   -0.03834643   -0.05611532
     atom  138 type  3   force =    -0.00495153   -0.00126304   -0.00121959
     atom  139 type  3   force =     0.00272702   -0.00101263   -0.01018433
     atom  140 type  3   force =     0.02910292   -0.04950472   -0.06064505
     atom  141 type  4   force =     0.00614634    0.00345314    0.02113321
     atom  142 type  4   force =     0.00438008    0.00239056    0.01441383
     atom  143 type  4   force =    -0.00053165    0.00289970    0.01265784
     atom  144 type  4   force =     0.00024082    0.00215806    0.01648459
     atom  145 type  4   force =     0.00118690   -0.00070441    0.03888339
     atom  146 type  4   force =    -0.00551650   -0.00386165   -0.01707364
     atom  147 type  4   force =     0.00786472    0.00459472   -0.00268998
     atom  148 type  4   force =     0.00168894   -0.00747095    0.03524996
     atom  149 type  4   force =    -0.00923493    0.03929722    0.00087599
     atom  150 type  4   force =     0.00216274   -0.00057923    0.00792860
     atom  151 type  4   force =    -0.03012432    0.00089125    0.00758511
     atom  152 type  4   force =    -0.01373958    0.00143562   -0.00044005
     atom  153 type  4   force =     0.01228239    0.00358372   -0.00253429
     atom  154 type  4   force =    -0.00248642   -0.00294097    0.00249323
     atom  155 type  4   force =     0.00900192    0.02594559   -0.00268780
     atom  156 type  4   force =     0.03365397   -0.00617947    0.00595347
     atom  157 type  4   force =     0.01019852    0.00719979   -0.00313512
     atom  158 type  5   force =    -0.01012701   -0.00723331    0.00435425

     Total force =     0.237748     Total SCF correction =     0.003986
 
     init_run     :     11.05s CPU     11.77s WALL (       1 calls)
     electrons    :   1396.96s CPU   1452.39s WALL (       1 calls)
     forces       :      3.94s CPU      4.53s WALL (       1 calls)
     force_london :      0.09s CPU      0.09s WALL (       1 calls)

     Called by init_run:
     wfcinit      :      7.40s CPU      7.58s WALL (       1 calls)
     potinit      :      0.64s CPU      0.89s WALL (       1 calls)
     hinit0       :      1.55s CPU      1.64s WALL (       1 calls)

     Called by electrons:
     c_bands      :   1116.92s CPU   1146.48s WALL (      83 calls)
     sum_band     :    176.01s CPU    189.53s WALL (      83 calls)
     v_of_rho     :     21.73s CPU     23.63s WALL (      84 calls)
     newd         :     47.78s CPU     58.34s WALL (      84 calls)
     mix_rho      :     32.75s CPU     32.85s WALL (      83 calls)
     energy_londo :      0.09s CPU      0.09s WALL (       1 calls)

     Called by c_bands:
     init_us_2    :      2.68s CPU      2.76s WALL (     336 calls)
     init_us_2:cp :      2.67s CPU      2.76s WALL (     336 calls)
     regterg      :   1098.32s CPU   1127.61s WALL (     168 calls)

     Called by *egterg:
     rdiaghg      :    315.58s CPU    330.32s WALL (     608 calls)
     h_psi        :    422.76s CPU    429.56s WALL (     610 calls)
     s_psi        :     60.16s CPU     60.20s WALL (     610 calls)
     g_psi        :      0.43s CPU      0.44s WALL (     440 calls)

     Called by h_psi:
     h_psi:calbec :     99.15s CPU    104.39s WALL (     610 calls)
     vloc_psi     :    262.33s CPU    263.29s WALL (     610 calls)
     add_vuspsi   :     60.40s CPU     60.99s WALL (     610 calls)

     General routines
     calbec       :    146.56s CPU    154.30s WALL (     784 calls)
     fft          :     24.20s CPU     26.76s WALL (    1525 calls)
     ffts         :     17.57s CPU     17.60s WALL (   10337 calls)
     fftw         :    302.86s CPU    303.85s WALL (  281972 calls)
     interpolate  :      1.95s CPU      2.07s WALL (     168 calls)
 
     Parallel routines
 
     PWSCF        :  23m35.83s CPU  24m32.89s WALL

 
   This run was terminated on:   0:42:48  18Nov2025            

=------------------------------------------------------------------------------=
   JOB DONE.
=------------------------------------------------------------------------------=
