
     Program PWSCF v.7.2 starts on 19Nov2025 at 19:35:43 

     This program is part of the open-source Quantum ESPRESSO suite
     for quantum simulation of materials; please cite
         "P. Giannozzi et al., J. Phys.:Condens. Matter 21 395502 (2009);
         "P. Giannozzi et al., J. Phys.:Condens. Matter 29 465901 (2017);
         "P. Giannozzi et al., J. Chem. Phys. 152 154105 (2020);
          URL http://www.quantum-espresso.org", 
     in publications or presentations arising from this work. More details at
     http://www.quantum-espresso.org/quote

     Parallel version (MPI), running on    64 processors

     MPI processes distributed on     4 nodes
     437064 MiB available memory on the printing compute node when the environment starts
 
     Reading input from PWINPUT_atm157_yp

     Current dimensions of program PWSCF are:
     Max number of different atomic species (ntypx) = 10
     Max number of k-points (npk) =  40000
     Max angular momentum in pseudopotentials (lmaxx) =  4
     Presently no symmetry can be used with electric field

     file Ni.pbe-n-rrkjus_psl.1.0.0.UPF: wavefunction(s)  3D renormalized
     file Mn.pbe-spn-rrkjus_psl.0.3.1.UPF: wavefunction(s)  3D renormalized
     file O.pbe-rrkjus.UPF: wavefunction(s)  2S renormalized
     file H.pbe-rrkjus.UPF: wavefunction(s)  1S renormalized

     gamma-point specific algorithms are used
 
     R & G space division:  proc/nbgrp/npool/nimage =      64
     Subspace diagonalization in iterative solution of the eigenvalue problem:
     one sub-group per band group will be used
     custom distributed-memory algorithm (size of sub-group:  7*  7 procs)

 
     Parallelization info
     --------------------
     sticks:   dense  smooth     PW     G-vecs:    dense   smooth      PW
     Min         207      82     20                60552    15302    1896
     Max         210      84     22                60574    15336    1950
     Sum       13325    5345   1333              3876045   980655  122653
 
     Using Slab Decomposition
 


     bravais-lattice index     =            0
     lattice parameter (alat)  =      17.4067  a.u.
     unit-cell volume          =   20529.8182 (a.u.)^3
     number of atoms/cell      =          158
     number of atomic types    =            5
     number of electrons       =      1093.00
     number of Kohn-Sham states=          656
     kinetic-energy cutoff     =      50.0000  Ry
     charge density cutoff     =     500.0000  Ry
     scf convergence threshold =      1.0E-06
     mixing beta               =       0.3000
     number of iterations used =            8  local-TF  mixing
     Exchange-correlation=  SLA  PW   PBE  PBE
                           (   1   4   3   4   0   0   0)

     celldm(1)=  17.406729  celldm(2)=   0.000000  celldm(3)=   0.000000
     celldm(4)=   0.000000  celldm(5)=   0.000000  celldm(6)=   0.000000

     crystal axes: (cart. coord. in units of alat)
               a(1) = (   1.000000   0.000000   0.000000 )  
               a(2) = (  -0.001404   1.105696   0.000000 )  
               a(3) = (   0.000000   0.000000   3.520448 )  

     reciprocal axes: (cart. coord. in units 2 pi/alat)
               b(1) = (  1.000000  0.001270  0.000000 )  
               b(2) = (  0.000000  0.904408  0.000000 )  
               b(3) = (  0.000000  0.000000  0.284055 )  


     PseudoPot. # 1 for Ni read from file:
     ~/PSEUDO/Ni.pbe-n-rrkjus_psl.1.0.0.UPF
     MD5 check sum: Not computed, couldn't open file
     Pseudo is Ultrasoft + core correction, Zval = 10.0
     Generated using "atomic" code by A. Dal Corso  v.5.1.2
     Using radial grid of 1195 points,  6 beta functions with: 
                l(1) =   0
                l(2) =   0
                l(3) =   1
                l(4) =   1
                l(5) =   2
                l(6) =   2
     Q(r) pseudized with 0 coefficients 


     PseudoPot. # 2 for Mn read from file:
     ~/PSEUDO/Mn.pbe-spn-rrkjus_psl.0.3.1.UPF
     MD5 check sum: Not computed, couldn't open file
     Pseudo is Ultrasoft + core correction, Zval = 15.0
     Generated using &quot;atomic&quot; code by A. Dal Corso  v.6.2.2
     Using radial grid of 1187 points,  6 beta functions with: 
                l(1) =   0
                l(2) =   0
                l(3) =   1
                l(4) =   1
                l(5) =   2
                l(6) =   2
     Q(r) pseudized with 0 coefficients 


     PseudoPot. # 3 for P  read from file:
     ~/PSEUDO/P.pbe-n-rrkjus_psl.1.0.0.UPF
     MD5 check sum: Not computed, couldn't open file
     Pseudo is Ultrasoft + core correction, Zval =  5.0
     Generated using "atomic" code by A. Dal Corso  v.5.1
     Using radial grid of 1147 points,  6 beta functions with: 
                l(1) =   0
                l(2) =   0
                l(3) =   1
                l(4) =   1
                l(5) =   2
                l(6) =   2
     Q(r) pseudized with 0 coefficients 


     PseudoPot. # 4 for O  read from file:
     ~/PSEUDO/O.pbe-rrkjus.UPF
     MD5 check sum: Not computed, couldn't open file
     Pseudo is Ultrasoft, Zval =  6.0
     Generated by new atomic code, or converted to UPF format
     Using radial grid of 1269 points,  4 beta functions with: 
                l(1) =   0
                l(2) =   0
                l(3) =   1
                l(4) =   1
     Q(r) pseudized with 0 coefficients 


     PseudoPot. # 5 for H  read from file:
     ~/PSEUDO/H.pbe-rrkjus.UPF
     MD5 check sum: Not computed, couldn't open file
     Pseudo is Ultrasoft, Zval =  1.0
     Generated by new atomic code, or converted to UPF format
     Using radial grid of 1061 points,  2 beta functions with: 
                l(1) =   0
                l(2) =   0
     Q(r) pseudized with 0 coefficients 


     atomic species   valence    mass     pseudopotential
     Ni               10.00    58.69300     Ni( 1.00)
     Mn               15.00    54.93800     Mn( 1.00)
     P                 5.00    30.97300     P ( 1.00)
     O                 6.00    15.99900     O ( 1.00)
     H                 1.00     1.00790     H ( 1.00)

     Starting magnetic structure 
     atomic species   magnetization
     Ni              1.000
     Mn              1.000
     P               1.000
     O               1.000
     H               0.000

     No symmetry found



   Cartesian axes

     site n.     atom                  positions (alat units)
         1        Ni     tau(   1) = (   0.2407247   0.8678666   1.7788468  )
         2        Mn     tau(   2) = (   0.4849050   0.7928704   1.4298720  )
         3        Ni     tau(   3) = (  -0.0015463   0.3040756   1.7427651  )
         4        Ni     tau(   4) = (   0.2576988   0.2438884   1.4304882  )
         5        Ni     tau(   5) = (   0.4960089   1.1079636   1.5969794  )
         6        Ni     tau(   6) = (   0.2509439   0.5529914   1.6014984  )
         7        P      tau(   7) = (   0.2089048   1.0013970   1.4343524  )
         8        P      tau(   8) = (   0.4624796   0.6667191   1.7615344  )
         9        P      tau(   9) = (   0.2870509   0.1160398   1.7607833  )
        10        P      tau(  10) = (   0.0409376   0.4429602   1.4308127  )
        11        O      tau(  11) = (   0.1352892   0.9270454   1.5724618  )
        12        O      tau(  12) = (   0.3840209   0.7294626   1.6169117  )
        13        O      tau(  13) = (   0.3651818   0.1791486   1.6110775  )
        14        O      tau(  14) = (   0.1191348   0.3726454   1.5703673  )
        15        O      tau(  15) = (   0.1507888   0.9120623   1.3039965  )
        16        O      tau(  16) = (   0.4052423   0.7648049   1.8817709  )
        17        O      tau(  17) = (   0.3458822   0.2189915   1.8759922  )
        18        O      tau(  18) = (   0.1009621   0.3550841   1.3013183  )
        19        O      tau(  19) = (   0.0995916   0.6017289   1.4364553  )
        20        O      tau(  20) = (   0.3468601   1.0635796   1.7571918  )
        21        O      tau(  21) = (   0.3739296   0.4396566   1.4433176  )
        22        O      tau(  22) = (   0.1199364   0.1204540   1.7432983  )
        23        O      tau(  23) = (   0.1279675   0.6643683   1.7537820  )
        24        O      tau(  24) = (   0.4072413   0.5052188   1.7593813  )
        25        O      tau(  25) = (   0.1493697   0.0531357   1.4376636  )
        26        O      tau(  26) = (   0.3761102   0.9942916   1.4433476  )
        27        Ni     tau(  27) = (   0.2413539   0.8509941   1.1121345  )
        28        Mn     tau(  28) = (   0.4917018   0.7787406   0.7768134  )
        29        Ni     tau(  29) = (   0.0044877   0.2932623   1.1138982  )
        30        Ni     tau(  30) = (   0.2563139   0.2275682   0.7805625  )
        31        Ni     tau(  31) = (   0.4969120   1.0949007   0.9459116  )
        32        Ni     tau(  32) = (   0.2488318   0.5341111   0.9469721  )
        33        P      tau(  33) = (   0.2076029   0.9882917   0.7835381  )
        34        P      tau(  34) = (   0.4577012   0.6460068   1.1076436  )
        35        P      tau(  35) = (   0.2881931   0.0932770   1.1104179  )
        36        P      tau(  36) = (   0.0392916   0.4238898   0.7837243  )
        37        O      tau(  37) = (   0.1306755   0.9148866   0.9233554  )
        38        O      tau(  38) = (   0.3789780   0.7172835   0.9680652  )
        39        O      tau(  39) = (   0.3654852   0.1662865   0.9702638  )
        40        O      tau(  40) = (   0.1163776   0.3546954   0.9254186  )
        41        O      tau(  41) = (   0.1502901   0.8969129   0.6541592  )
        42        O      tau(  42) = (   0.3974525   0.7354243   1.2370031  )
        43        O      tau(  43) = (   0.3483097   0.1789497   1.2412670  )
        44        O      tau(  44) = (   0.0974932   0.3376387   0.6529083  )
        45        O      tau(  45) = (   0.0984699   0.5818903   0.7881021  )
        46        O      tau(  46) = (   0.3459978   1.0405493   1.1018526  )
        47        O      tau(  47) = (   0.3731719   0.4204123   0.7945555  )
        48        O      tau(  48) = (   0.1223503   0.0989699   1.1000566  )
        49        O      tau(  49) = (   0.1235438   0.6536772   1.0980598  )
        50        O      tau(  50) = (   0.4004339   0.4872435   1.1047245  )
        51        O      tau(  51) = (   0.1476543   0.0398268   0.7872561  )
        52        O      tau(  52) = (   0.3728637   0.9843360   0.7931368  )
        53        Ni     tau(  53) = (   0.2406075   0.8410745   0.4603118  )
        54        Mn     tau(  54) = (   0.4909555   0.7688210   0.1249907  )
        55        Ni     tau(  55) = (   0.0037414   0.2833427   0.4620755  )
        56        Ni     tau(  56) = (   0.2555676   0.2176485   0.1287398  )
        57        Ni     tau(  57) = (   0.4961657   1.0849810   0.2940889  )
        58        Ni     tau(  58) = (   0.2480854   0.5241915   0.2951494  )
        59        P      tau(  59) = (   0.2068565   0.9783721   0.1317154  )
        60        P      tau(  60) = (   0.4569549   0.6360871   0.4558210  )
        61        P      tau(  61) = (   0.2874467   0.0833574   0.4585952  )
        62        P      tau(  62) = (   0.0385452   0.4139702   0.1319017  )
        63        O      tau(  63) = (   0.1299291   0.9049669   0.2715327  )
        64        O      tau(  64) = (   0.3782317   0.7073639   0.3162425  )
        65        O      tau(  65) = (   0.3647389   0.1563669   0.3184411  )
        66        O      tau(  66) = (   0.1156313   0.3447757   0.2735959  )
        67        O      tau(  67) = (   0.1495437   0.8869933   0.0023366  )
        68        O      tau(  68) = (   0.3967062   0.7255047   0.5851804  )
        69        O      tau(  69) = (   0.3475634   0.1690300   0.5894443  )
        70        O      tau(  70) = (   0.0967469   0.3277190   0.0010856  )
        71        O      tau(  71) = (   0.0977236   0.5719706   0.1362794  )
        72        O      tau(  72) = (   0.3452514   1.0306297   0.4500300  )
        73        O      tau(  73) = (   0.3724256   0.4104926   0.1427328  )
        74        O      tau(  74) = (   0.1216040   0.0890503   0.4482339  )
        75        O      tau(  75) = (   0.1227974   0.6437575   0.4462371  )
        76        O      tau(  76) = (   0.3996875   0.4773239   0.4529018  )
        77        O      tau(  77) = (   0.1469079   0.0299071   0.1354334  )
        78        O      tau(  78) = (   0.3721173   0.9744163   0.1413141  )
        79        Ni     tau(  79) = (   0.7503448   0.8592094   1.7463632  )
        80        Mn     tau(  80) = (   0.9872971   0.7933476   1.4295363  )
        81        Ni     tau(  81) = (   0.4979646   0.3082874   1.7425819  )
        82        Ni     tau(  82) = (   0.7578558   0.2432444   1.4303909  )
        83        Ni     tau(  83) = (   0.9978877   1.1049697   1.6005729  )
        84        Ni     tau(  84) = (   0.7517688   0.5502669   1.5982123  )
        85        P      tau(  85) = (   0.7086164   1.0024684   1.4323347  )
        86        P      tau(  86) = (   0.9608587   0.6587254   1.7669171  )
        87        P      tau(  87) = (   0.7853186   0.1123438   1.7615591  )
        88        P      tau(  88) = (   0.5402593   0.4436461   1.4299959  )
        89        O      tau(  89) = (   0.6336250   0.9299726   1.5717212  )
        90        O      tau(  90) = (   0.8855214   0.7268460   1.6205628  )
        91        O      tau(  91) = (   0.8638479   0.1737568   1.6123671  )
        92        O      tau(  92) = (   0.6187851   0.3726638   1.5694972  )
        93        O      tau(  93) = (   0.6499804   0.9114421   1.3038010  )
        94        O      tau(  94) = (   0.8956097   0.7537924   1.8860885  )
        95        O      tau(  95) = (   0.8474504   0.2119799   1.8776314  )
        96        O      tau(  96) = (   0.6006963   0.3549684   1.3012062  )
        97        O      tau(  97) = (   0.6002576   0.6021520   1.4346509  )
        98        O      tau(  98) = (   0.8385044   1.0568597   1.7610063  )
        99        O      tau(  99) = (   0.8744145   0.4373900   1.4436920  )
       100        O      tau( 100) = (   0.6180356   0.1193672   1.7459243  )
       101        O      tau( 101) = (   0.6301005   0.6707638   1.7450210  )
       102        O      tau( 102) = (   0.9037180   0.4985801   1.7585357  )
       103        O      tau( 103) = (   0.6488284   0.0538192   1.4351739  )
       104        O      tau( 104) = (   0.8752493   0.9934614   1.4449032  )
       105        Ni     tau( 105) = (   0.7413539   0.8509941   1.1121345  )
       106        Mn     tau( 106) = (   0.9917018   0.7787406   0.7768134  )
       107        Ni     tau( 107) = (   0.5044877   0.2932623   1.1138982  )
       108        Ni     tau( 108) = (   0.7563139   0.2275682   0.7805625  )
       109        Ni     tau( 109) = (   0.9969120   1.0949007   0.9459116  )
       110        Ni     tau( 110) = (   0.7488318   0.5341111   0.9469721  )
       111        P      tau( 111) = (   0.7076029   0.9882917   0.7835381  )
       112        P      tau( 112) = (   0.9577012   0.6460068   1.1076436  )
       113        P      tau( 113) = (   0.7881931   0.0932770   1.1104179  )
       114        P      tau( 114) = (   0.5392916   0.4238898   0.7837243  )
       115        O      tau( 115) = (   0.6306755   0.9148866   0.9233554  )
       116        O      tau( 116) = (   0.8789780   0.7172835   0.9680652  )
       117        O      tau( 117) = (   0.8654852   0.1662865   0.9702638  )
       118        O      tau( 118) = (   0.6163776   0.3546954   0.9254186  )
       119        O      tau( 119) = (   0.6502901   0.8969129   0.6541592  )
       120        O      tau( 120) = (   0.8974525   0.7354243   1.2370031  )
       121        O      tau( 121) = (   0.8483097   0.1789497   1.2412670  )
       122        O      tau( 122) = (   0.5974932   0.3376387   0.6529083  )
       123        O      tau( 123) = (   0.5984699   0.5818903   0.7881021  )
       124        O      tau( 124) = (   0.8459978   1.0405493   1.1018526  )
       125        O      tau( 125) = (   0.8731719   0.4204123   0.7945555  )
       126        O      tau( 126) = (   0.6223503   0.0989699   1.1000566  )
       127        O      tau( 127) = (   0.6235438   0.6536772   1.0980598  )
       128        O      tau( 128) = (   0.9004339   0.4872435   1.1047245  )
       129        O      tau( 129) = (   0.6476543   0.0398268   0.7872561  )
       130        O      tau( 130) = (   0.8728637   0.9843360   0.7931368  )
       131        Ni     tau( 131) = (   0.7406075   0.8410745   0.4603118  )
       132        Mn     tau( 132) = (   0.9909555   0.7688210   0.1249907  )
       133        Ni     tau( 133) = (   0.5037414   0.2833427   0.4620755  )
       134        Ni     tau( 134) = (   0.7555676   0.2176485   0.1287398  )
       135        Ni     tau( 135) = (   0.9961657   1.0849810   0.2940889  )
       136        Ni     tau( 136) = (   0.7480854   0.5241915   0.2951494  )
       137        P      tau( 137) = (   0.7068565   0.9783721   0.1317154  )
       138        P      tau( 138) = (   0.9569549   0.6360871   0.4558210  )
       139        P      tau( 139) = (   0.7874467   0.0833574   0.4585952  )
       140        P      tau( 140) = (   0.5385452   0.4139702   0.1319017  )
       141        O      tau( 141) = (   0.6299291   0.9049669   0.2715327  )
       142        O      tau( 142) = (   0.8782317   0.7073639   0.3162425  )
       143        O      tau( 143) = (   0.8647389   0.1563669   0.3184411  )
       144        O      tau( 144) = (   0.6156313   0.3447757   0.2735959  )
       145        O      tau( 145) = (   0.6495437   0.8869933   0.0023366  )
       146        O      tau( 146) = (   0.8967062   0.7255047   0.5851804  )
       147        O      tau( 147) = (   0.8475634   0.1690300   0.5894443  )
       148        O      tau( 148) = (   0.5967469   0.3277190   0.0010856  )
       149        O      tau( 149) = (   0.5977236   0.5719706   0.1362794  )
       150        O      tau( 150) = (   0.8452514   1.0306297   0.4500300  )
       151        O      tau( 151) = (   0.8724256   0.4104926   0.1427328  )
       152        O      tau( 152) = (   0.6216040   0.0890503   0.4482339  )
       153        O      tau( 153) = (   0.6227974   0.6437575   0.4462371  )
       154        O      tau( 154) = (   0.8996875   0.4773239   0.4529018  )
       155        O      tau( 155) = (   0.6469079   0.0299071   0.1354334  )
       156        O      tau( 156) = (   0.8721173   0.9744163   0.1413141  )
       157        O      tau( 157) = (   1.1200851   0.9545806   1.9086669  )
       158        H      tau( 158) = (   1.0374101   0.8901699   1.9356829  )

     -------------------------------------------------
     Parameters for Dispersion (Grimme-D2) Correction:
     -------------------------------------------------
       atom      VdW radius       C_6     

        Ni         2.952        374.666
        Mn         2.952        374.666
        P          3.222        271.980
        O          2.536         24.284
        H          1.892          4.857

     number of k points=     1  Gaussian smearing, width (Ry)=  0.0100
                       cart. coord. in units 2pi/alat
        k(    1) = (   0.0000000   0.0000000   0.0000000), wk =   1.0000000

     Dense  grid:  1938023 G-vectors     FFT dimensions: ( 125, 144, 450)

     Smooth grid:   490328 G-vectors     FFT dimensions: (  80,  90, 288)

     Estimated max dynamical RAM per process >     326.29 MB

     Estimated total dynamical RAM >      20.39 GB

     Check: negative core charge=   -0.000001
     Generating pointlists ...
     new r_m :   0.0814 (alat units)  1.4167 (a.u.) for type    1
     new r_m :   0.0905 (alat units)  1.5755 (a.u.) for type    2
     new r_m :   0.0681 (alat units)  1.1855 (a.u.) for type    3
     new r_m :   0.0446 (alat units)  0.7771 (a.u.) for type    4
     new r_m :   0.0446 (alat units)  0.7771 (a.u.) for type    5

     Initial potential from superposition of free atoms

     starting charge    1092.8893, renormalised to    1093.0000

     negative rho (up, down):  1.397E-03 4.551E-04
 
     Adding external electric field

     Computed dipole along edir(3) : 
        Dipole                1.6517 Ry au,          4.1983 Debye
        Dipole field          0.0010 Ry au, 
 
        Potential amp.       -0.1115 Ry
        Total length         55.1515 bohr
 
 
     Adding external electric field

     Computed dipole along edir(3) : 
        Dipole                1.6517 Ry au,          4.1983 Debye
        Dipole field          0.0010 Ry au, 
 
        Potential amp.       -0.1115 Ry
        Total length         55.1515 bohr
 
     Starting wfcs are  815 randomized atomic wfcs

     total cpu time spent up to now is       10.3 secs

     Self-consistent Calculation

     iteration #  1     ecut=    50.00 Ry     beta= 0.30
     Davidson diagonalization with overlap
     ethr =  1.00E-02,  avg # of iterations =  6.0

     negative rho (up, down):  1.399E+00 8.209E-06
 
     Adding external electric field

     Computed dipole along edir(3) : 
        Dipole              -14.5206 Ry au,        -36.9076 Debye
        Dipole field         -0.0089 Ry au, 
 
        Potential amp.        0.9804 Ry
        Total length         55.1515 bohr
 
 
     Adding external electric field

     Computed dipole along edir(3) : 
        Dipole              -14.5206 Ry au,        -36.9076 Debye
        Dipole field         -0.0089 Ry au, 
 
        Potential amp.        0.9804 Ry
        Total length         55.1515 bohr
 

     total cpu time spent up to now is       37.7 secs

     total energy              =   -7538.95470077 Ry
     estimated scf accuracy    <     797.34128576 Ry

     total magnetization       =   219.00 Bohr mag/cell
     absolute magnetization    =   307.73 Bohr mag/cell

     iteration #  2     ecut=    50.00 Ry     beta= 0.30
     Davidson diagonalization with overlap
     ethr =  1.00E-02,  avg # of iterations =  4.0

     negative rho (up, down):  1.342E+00 7.092E-07
 
     Adding external electric field

     Computed dipole along edir(3) : 
        Dipole               -5.2816 Ry au,        -13.4245 Debye
        Dipole field         -0.0032 Ry au, 
 
        Potential amp.        0.3566 Ry
        Total length         55.1515 bohr
 
 
     Adding external electric field

     Computed dipole along edir(3) : 
        Dipole               -5.2816 Ry au,        -13.4245 Debye
        Dipole field         -0.0032 Ry au, 
 
        Potential amp.        0.3566 Ry
        Total length         55.1515 bohr
 

     total cpu time spent up to now is       57.7 secs

     total energy              =   -7655.57587096 Ry
     estimated scf accuracy    <    1554.72755052 Ry

     total magnetization       =   151.66 Bohr mag/cell
     absolute magnetization    =   202.15 Bohr mag/cell

     iteration #  3     ecut=    50.00 Ry     beta= 0.30
     Davidson diagonalization with overlap
     ethr =  1.00E-02,  avg # of iterations =  1.5

     negative rho (up, down):  1.057E+00 1.180E-06
 
     Adding external electric field

     Computed dipole along edir(3) : 
        Dipole               -5.5454 Ry au,        -14.0951 Debye
        Dipole field         -0.0034 Ry au, 
 
        Potential amp.        0.3744 Ry
        Total length         55.1515 bohr
 
 
     Adding external electric field

     Computed dipole along edir(3) : 
        Dipole               -5.5454 Ry au,        -14.0951 Debye
        Dipole field         -0.0034 Ry au, 
 
        Potential amp.        0.3744 Ry
        Total length         55.1515 bohr
 

     total cpu time spent up to now is       70.1 secs

     total energy              =   -7683.79623459 Ry
     estimated scf accuracy    <     138.73302784 Ry

     total magnetization       =   132.32 Bohr mag/cell
     absolute magnetization    =   179.17 Bohr mag/cell

     iteration #  4     ecut=    50.00 Ry     beta= 0.30
     Davidson diagonalization with overlap
     ethr =  1.00E-02,  avg # of iterations =  1.0

     negative rho (up, down):  6.955E-01 1.803E-07
 
     Adding external electric field

     Computed dipole along edir(3) : 
        Dipole               -3.6242 Ry au,         -9.2117 Debye
        Dipole field         -0.0022 Ry au, 
 
        Potential amp.        0.2447 Ry
        Total length         55.1515 bohr
 
 
     Adding external electric field

     Computed dipole along edir(3) : 
        Dipole               -3.6242 Ry au,         -9.2117 Debye
        Dipole field         -0.0022 Ry au, 
 
        Potential amp.        0.2447 Ry
        Total length         55.1515 bohr
 

     total cpu time spent up to now is       82.7 secs

     total energy              =   -7707.65112112 Ry
     estimated scf accuracy    <     226.29948454 Ry

     total magnetization       =   104.54 Bohr mag/cell
     absolute magnetization    =   155.03 Bohr mag/cell

     iteration #  5     ecut=    50.00 Ry     beta= 0.30
     Davidson diagonalization with overlap
     ethr =  1.00E-02,  avg # of iterations =  1.0

     negative rho (up, down):  3.324E-01 8.078E-04
 
     Adding external electric field

     Computed dipole along edir(3) : 
        Dipole               -2.1845 Ry au,         -5.5523 Debye
        Dipole field         -0.0013 Ry au, 
 
        Potential amp.        0.1475 Ry
        Total length         55.1515 bohr
 
 
     Adding external electric field

     Computed dipole along edir(3) : 
        Dipole               -2.1845 Ry au,         -5.5523 Debye
        Dipole field         -0.0013 Ry au, 
 
        Potential amp.        0.1475 Ry
        Total length         55.1515 bohr
 

     total cpu time spent up to now is       94.9 secs

     total energy              =   -7725.88392906 Ry
     estimated scf accuracy    <      74.44092135 Ry

     total magnetization       =    94.14 Bohr mag/cell
     absolute magnetization    =   136.49 Bohr mag/cell

     iteration #  6     ecut=    50.00 Ry     beta= 0.30
     Davidson diagonalization with overlap
     ethr =  6.81E-03,  avg # of iterations =  1.5

     negative rho (up, down):  1.165E-01 1.780E-03
 
     Adding external electric field

     Computed dipole along edir(3) : 
        Dipole               -1.8979 Ry au,         -4.8241 Debye
        Dipole field         -0.0012 Ry au, 
 
        Potential amp.        0.1281 Ry
        Total length         55.1515 bohr
 
 
     Adding external electric field

     Computed dipole along edir(3) : 
        Dipole               -1.8979 Ry au,         -4.8241 Debye
        Dipole field         -0.0012 Ry au, 
 
        Potential amp.        0.1281 Ry
        Total length         55.1515 bohr
 

     total cpu time spent up to now is      108.0 secs

     total energy              =   -7732.78070312 Ry
     estimated scf accuracy    <     113.51614756 Ry

     total magnetization       =    91.00 Bohr mag/cell
     absolute magnetization    =   121.77 Bohr mag/cell

     iteration #  7     ecut=    50.00 Ry     beta= 0.30
     Davidson diagonalization with overlap
     ethr =  6.81E-03,  avg # of iterations =  1.5

     negative rho (up, down):  1.113E-02 1.100E-02
 
     Adding external electric field

     Computed dipole along edir(3) : 
        Dipole               -1.3708 Ry au,         -3.4843 Debye
        Dipole field         -0.0008 Ry au, 
 
        Potential amp.        0.0926 Ry
        Total length         55.1515 bohr
 
 
     Adding external electric field

     Computed dipole along edir(3) : 
        Dipole               -1.3708 Ry au,         -3.4843 Debye
        Dipole field         -0.0008 Ry au, 
 
        Potential amp.        0.0926 Ry
        Total length         55.1515 bohr
 

     total cpu time spent up to now is      120.4 secs

     total energy              =   -7736.83235043 Ry
     estimated scf accuracy    <      32.91161353 Ry

     total magnetization       =    87.65 Bohr mag/cell
     absolute magnetization    =   108.67 Bohr mag/cell

     iteration #  8     ecut=    50.00 Ry     beta= 0.30
     Davidson diagonalization with overlap
     ethr =  3.01E-03,  avg # of iterations =  2.0

     negative rho (up, down):  5.830E-03 5.233E-03
 
     Adding external electric field

     Computed dipole along edir(3) : 
        Dipole               -1.5511 Ry au,         -3.9425 Debye
        Dipole field         -0.0009 Ry au, 
 
        Potential amp.        0.1047 Ry
        Total length         55.1515 bohr
 
 
     Adding external electric field

     Computed dipole along edir(3) : 
        Dipole               -1.5511 Ry au,         -3.9425 Debye
        Dipole field         -0.0009 Ry au, 
 
        Potential amp.        0.1047 Ry
        Total length         55.1515 bohr
 

     total cpu time spent up to now is      133.9 secs

     total energy              =   -7737.72105641 Ry
     estimated scf accuracy    <      17.26726277 Ry

     total magnetization       =    72.70 Bohr mag/cell
     absolute magnetization    =    86.78 Bohr mag/cell

     iteration #  9     ecut=    50.00 Ry     beta= 0.30
     Davidson diagonalization with overlap
     ethr =  1.58E-03,  avg # of iterations =  4.5

     negative rho (up, down):  7.832E-04 6.670E-05
 
     Adding external electric field

     Computed dipole along edir(3) : 
        Dipole               -1.8206 Ry au,         -4.6274 Debye
        Dipole field         -0.0011 Ry au, 
 
        Potential amp.        0.1229 Ry
        Total length         55.1515 bohr
 
 
     Adding external electric field

     Computed dipole along edir(3) : 
        Dipole               -1.8206 Ry au,         -4.6274 Debye
        Dipole field         -0.0011 Ry au, 
 
        Potential amp.        0.1229 Ry
        Total length         55.1515 bohr
 

     total cpu time spent up to now is      148.5 secs

     total energy              =   -7737.90857220 Ry
     estimated scf accuracy    <       4.48192765 Ry

     total magnetization       =    81.95 Bohr mag/cell
     absolute magnetization    =    93.47 Bohr mag/cell

     iteration # 10     ecut=    50.00 Ry     beta= 0.30
     Davidson diagonalization with overlap
     ethr =  4.10E-04,  avg # of iterations =  7.5

     negative rho (up, down):  1.081E-04 2.327E-04
 
     Adding external electric field

     Computed dipole along edir(3) : 
        Dipole               -1.6976 Ry au,         -4.3148 Debye
        Dipole field         -0.0010 Ry au, 
 
        Potential amp.        0.1146 Ry
        Total length         55.1515 bohr
 
 
     Adding external electric field

     Computed dipole along edir(3) : 
        Dipole               -1.6976 Ry au,         -4.3148 Debye
        Dipole field         -0.0010 Ry au, 
 
        Potential amp.        0.1146 Ry
        Total length         55.1515 bohr
 

     total cpu time spent up to now is      170.8 secs

     total energy              =   -7738.14393615 Ry
     estimated scf accuracy    <       2.33018551 Ry

     total magnetization       =    88.15 Bohr mag/cell
     absolute magnetization    =    96.23 Bohr mag/cell

     iteration # 11     ecut=    50.00 Ry     beta= 0.30
     Davidson diagonalization with overlap
     ethr =  2.13E-04,  avg # of iterations =  2.0

     negative rho (up, down):  2.298E-05 1.887E-04
 
     Adding external electric field

     Computed dipole along edir(3) : 
        Dipole               -1.6428 Ry au,         -4.1755 Debye
        Dipole field         -0.0010 Ry au, 
 
        Potential amp.        0.1109 Ry
        Total length         55.1515 bohr
 
 
     Adding external electric field

     Computed dipole along edir(3) : 
        Dipole               -1.6428 Ry au,         -4.1755 Debye
        Dipole field         -0.0010 Ry au, 
 
        Potential amp.        0.1109 Ry
        Total length         55.1515 bohr
 

     total cpu time spent up to now is      183.3 secs

     total energy              =   -7738.22058950 Ry
     estimated scf accuracy    <       0.59696707 Ry

     total magnetization       =    87.69 Bohr mag/cell
     absolute magnetization    =    94.06 Bohr mag/cell

     iteration # 12     ecut=    50.00 Ry     beta= 0.30
     Davidson diagonalization with overlap
     ethr =  5.46E-05,  avg # of iterations =  9.5

     negative rho (up, down):  5.381E-07 5.502E-06
 
     Adding external electric field

     Computed dipole along edir(3) : 
        Dipole               -1.6529 Ry au,         -4.2012 Debye
        Dipole field         -0.0010 Ry au, 
 
        Potential amp.        0.1116 Ry
        Total length         55.1515 bohr
 
 
     Adding external electric field

     Computed dipole along edir(3) : 
        Dipole               -1.6529 Ry au,         -4.2012 Debye
        Dipole field         -0.0010 Ry au, 
 
        Potential amp.        0.1116 Ry
        Total length         55.1515 bohr
 

     total cpu time spent up to now is      203.7 secs

     total energy              =   -7738.27280936 Ry
     estimated scf accuracy    <       0.51025831 Ry

     total magnetization       =    87.19 Bohr mag/cell
     absolute magnetization    =    92.21 Bohr mag/cell

     iteration # 13     ecut=    50.00 Ry     beta= 0.30
     Davidson diagonalization with overlap
     ethr =  4.67E-05,  avg # of iterations =  1.5

     negative rho (up, down):  5.555E-09 6.056E-07
 
     Adding external electric field

     Computed dipole along edir(3) : 
        Dipole               -1.5880 Ry au,         -4.0363 Debye
        Dipole field         -0.0010 Ry au, 
 
        Potential amp.        0.1072 Ry
        Total length         55.1515 bohr
 
 
     Adding external electric field

     Computed dipole along edir(3) : 
        Dipole               -1.5880 Ry au,         -4.0363 Debye
        Dipole field         -0.0010 Ry au, 
 
        Potential amp.        0.1072 Ry
        Total length         55.1515 bohr
 

     total cpu time spent up to now is      215.6 secs

     total energy              =   -7738.30179629 Ry
     estimated scf accuracy    <       0.29097385 Ry

     total magnetization       =    88.30 Bohr mag/cell
     absolute magnetization    =    91.89 Bohr mag/cell

     iteration # 14     ecut=    50.00 Ry     beta= 0.30
     Davidson diagonalization with overlap
     ethr =  2.66E-05,  avg # of iterations =  1.5
 
     Adding external electric field

     Computed dipole along edir(3) : 
        Dipole               -1.5449 Ry au,         -3.9268 Debye
        Dipole field         -0.0009 Ry au, 
 
        Potential amp.        0.1043 Ry
        Total length         55.1515 bohr
 
 
     Adding external electric field

     Computed dipole along edir(3) : 
        Dipole               -1.5449 Ry au,         -3.9268 Debye
        Dipole field         -0.0009 Ry au, 
 
        Potential amp.        0.1043 Ry
        Total length         55.1515 bohr
 

     total cpu time spent up to now is      226.7 secs

     total energy              =   -7738.31824743 Ry
     estimated scf accuracy    <       0.32471452 Ry

     total magnetization       =    87.90 Bohr mag/cell
     absolute magnetization    =    90.43 Bohr mag/cell

     iteration # 15     ecut=    50.00 Ry     beta= 0.30
     Davidson diagonalization with overlap
     ethr =  2.66E-05,  avg # of iterations =  1.5
 
     Adding external electric field

     Computed dipole along edir(3) : 
        Dipole               -1.4914 Ry au,         -3.7907 Debye
        Dipole field         -0.0009 Ry au, 
 
        Potential amp.        0.1007 Ry
        Total length         55.1515 bohr
 
 
     Adding external electric field

     Computed dipole along edir(3) : 
        Dipole               -1.4914 Ry au,         -3.7907 Debye
        Dipole field         -0.0009 Ry au, 
 
        Potential amp.        0.1007 Ry
        Total length         55.1515 bohr
 

     total cpu time spent up to now is      239.3 secs

     total energy              =   -7738.32530518 Ry
     estimated scf accuracy    <       0.17544478 Ry

     total magnetization       =    88.74 Bohr mag/cell
     absolute magnetization    =    90.58 Bohr mag/cell

     iteration # 16     ecut=    50.00 Ry     beta= 0.30
     Davidson diagonalization with overlap
     ethr =  1.61E-05,  avg # of iterations =  1.5
 
     Adding external electric field

     Computed dipole along edir(3) : 
        Dipole               -1.3963 Ry au,         -3.5491 Debye
        Dipole field         -0.0009 Ry au, 
 
        Potential amp.        0.0943 Ry
        Total length         55.1515 bohr
 
 
     Adding external electric field

     Computed dipole along edir(3) : 
        Dipole               -1.3963 Ry au,         -3.5491 Debye
        Dipole field         -0.0009 Ry au, 
 
        Potential amp.        0.0943 Ry
        Total length         55.1515 bohr
 

     total cpu time spent up to now is      251.3 secs

     total energy              =   -7738.32907844 Ry
     estimated scf accuracy    <       0.15238758 Ry

     total magnetization       =    88.64 Bohr mag/cell
     absolute magnetization    =    90.22 Bohr mag/cell

     iteration # 17     ecut=    50.00 Ry     beta= 0.30
     Davidson diagonalization with overlap
     ethr =  1.39E-05,  avg # of iterations =  1.5
 
     Adding external electric field

     Computed dipole along edir(3) : 
        Dipole               -1.3589 Ry au,         -3.4539 Debye
        Dipole field         -0.0008 Ry au, 
 
        Potential amp.        0.0917 Ry
        Total length         55.1515 bohr
 
 
     Adding external electric field

     Computed dipole along edir(3) : 
        Dipole               -1.3589 Ry au,         -3.4539 Debye
        Dipole field         -0.0008 Ry au, 
 
        Potential amp.        0.0917 Ry
        Total length         55.1515 bohr
 

     total cpu time spent up to now is      262.2 secs

     total energy              =   -7738.32981632 Ry
     estimated scf accuracy    <       0.15922973 Ry

     total magnetization       =    88.72 Bohr mag/cell
     absolute magnetization    =    90.22 Bohr mag/cell

     iteration # 18     ecut=    50.00 Ry     beta= 0.30
     Davidson diagonalization with overlap
     ethr =  1.39E-05,  avg # of iterations =  1.5
 
     Adding external electric field

     Computed dipole along edir(3) : 
        Dipole               -1.3494 Ry au,         -3.4298 Debye
        Dipole field         -0.0008 Ry au, 
 
        Potential amp.        0.0911 Ry
        Total length         55.1515 bohr
 
 
     Adding external electric field

     Computed dipole along edir(3) : 
        Dipole               -1.3494 Ry au,         -3.4298 Debye
        Dipole field         -0.0008 Ry au, 
 
        Potential amp.        0.0911 Ry
        Total length         55.1515 bohr
 

     total cpu time spent up to now is      274.4 secs

     total energy              =   -7738.32900080 Ry
     estimated scf accuracy    <       0.17004498 Ry

     total magnetization       =    88.68 Bohr mag/cell
     absolute magnetization    =    90.19 Bohr mag/cell

     iteration # 19     ecut=    50.00 Ry     beta= 0.30
     Davidson diagonalization with overlap
     ethr =  1.39E-05,  avg # of iterations =  1.5
 
     Adding external electric field

     Computed dipole along edir(3) : 
        Dipole               -1.4107 Ry au,         -3.5856 Debye
        Dipole field         -0.0009 Ry au, 
 
        Potential amp.        0.0952 Ry
        Total length         55.1515 bohr
 
 
     Adding external electric field

     Computed dipole along edir(3) : 
        Dipole               -1.4107 Ry au,         -3.5856 Debye
        Dipole field         -0.0009 Ry au, 
 
        Potential amp.        0.0952 Ry
        Total length         55.1515 bohr
 

     total cpu time spent up to now is      286.2 secs

     total energy              =   -7738.32989228 Ry
     estimated scf accuracy    <       0.15671609 Ry

     total magnetization       =    88.64 Bohr mag/cell
     absolute magnetization    =    90.20 Bohr mag/cell

     iteration # 20     ecut=    50.00 Ry     beta= 0.30
     Davidson diagonalization with overlap
     ethr =  1.39E-05,  avg # of iterations =  1.5
 
     Adding external electric field

     Computed dipole along edir(3) : 
        Dipole               -1.4269 Ry au,         -3.6269 Debye
        Dipole field         -0.0009 Ry au, 
 
        Potential amp.        0.0963 Ry
        Total length         55.1515 bohr
 
 
     Adding external electric field

     Computed dipole along edir(3) : 
        Dipole               -1.4269 Ry au,         -3.6269 Debye
        Dipole field         -0.0009 Ry au, 
 
        Potential amp.        0.0963 Ry
        Total length         55.1515 bohr
 

     total cpu time spent up to now is      297.5 secs

     total energy              =   -7738.33039181 Ry
     estimated scf accuracy    <       0.14955505 Ry

     total magnetization       =    88.48 Bohr mag/cell
     absolute magnetization    =    89.98 Bohr mag/cell

     iteration # 21     ecut=    50.00 Ry     beta= 0.30
     Davidson diagonalization with overlap
     ethr =  1.37E-05,  avg # of iterations =  1.5
 
     Adding external electric field

     Computed dipole along edir(3) : 
        Dipole               -1.5508 Ry au,         -3.9417 Debye
        Dipole field         -0.0009 Ry au, 
 
        Potential amp.        0.1047 Ry
        Total length         55.1515 bohr
 
 
     Adding external electric field

     Computed dipole along edir(3) : 
        Dipole               -1.5508 Ry au,         -3.9417 Debye
        Dipole field         -0.0009 Ry au, 
 
        Potential amp.        0.1047 Ry
        Total length         55.1515 bohr
 

     total cpu time spent up to now is      310.1 secs

     total energy              =   -7738.32977984 Ry
     estimated scf accuracy    <       0.12959005 Ry

     total magnetization       =    88.48 Bohr mag/cell
     absolute magnetization    =    89.98 Bohr mag/cell

     iteration # 22     ecut=    50.00 Ry     beta= 0.30
     Davidson diagonalization with overlap
     ethr =  1.19E-05,  avg # of iterations =  1.5
 
     Adding external electric field

     Computed dipole along edir(3) : 
        Dipole               -1.5826 Ry au,         -4.0227 Debye
        Dipole field         -0.0010 Ry au, 
 
        Potential amp.        0.1069 Ry
        Total length         55.1515 bohr
 
 
     Adding external electric field

     Computed dipole along edir(3) : 
        Dipole               -1.5826 Ry au,         -4.0227 Debye
        Dipole field         -0.0010 Ry au, 
 
        Potential amp.        0.1069 Ry
        Total length         55.1515 bohr
 

     total cpu time spent up to now is      321.9 secs

     total energy              =   -7738.32948853 Ry
     estimated scf accuracy    <       0.07536645 Ry

     total magnetization       =    88.55 Bohr mag/cell
     absolute magnetization    =    89.87 Bohr mag/cell

     iteration # 23     ecut=    50.00 Ry     beta= 0.30
     Davidson diagonalization with overlap
     ethr =  6.90E-06,  avg # of iterations =  2.0
 
     Adding external electric field

     Computed dipole along edir(3) : 
        Dipole               -1.5872 Ry au,         -4.0342 Debye
        Dipole field         -0.0010 Ry au, 
 
        Potential amp.        0.1072 Ry
        Total length         55.1515 bohr
 
 
     Adding external electric field

     Computed dipole along edir(3) : 
        Dipole               -1.5872 Ry au,         -4.0342 Debye
        Dipole field         -0.0010 Ry au, 
 
        Potential amp.        0.1072 Ry
        Total length         55.1515 bohr
 

     total cpu time spent up to now is      334.9 secs

     total energy              =   -7738.32988132 Ry
     estimated scf accuracy    <       0.07041386 Ry

     total magnetization       =    88.51 Bohr mag/cell
     absolute magnetization    =    89.80 Bohr mag/cell

     iteration # 24     ecut=    50.00 Ry     beta= 0.30
     Davidson diagonalization with overlap
     ethr =  6.44E-06,  avg # of iterations =  1.5
 
     Adding external electric field

     Computed dipole along edir(3) : 
        Dipole               -1.5941 Ry au,         -4.0519 Debye
        Dipole field         -0.0010 Ry au, 
 
        Potential amp.        0.1076 Ry
        Total length         55.1515 bohr
 
 
     Adding external electric field

     Computed dipole along edir(3) : 
        Dipole               -1.5941 Ry au,         -4.0519 Debye
        Dipole field         -0.0010 Ry au, 
 
        Potential amp.        0.1076 Ry
        Total length         55.1515 bohr
 

     total cpu time spent up to now is      346.4 secs

     total energy              =   -7738.32997653 Ry
     estimated scf accuracy    <       0.06988201 Ry

     total magnetization       =    88.52 Bohr mag/cell
     absolute magnetization    =    89.81 Bohr mag/cell

     iteration # 25     ecut=    50.00 Ry     beta= 0.30
     Davidson diagonalization with overlap
     ethr =  6.39E-06,  avg # of iterations =  1.5
 
     Adding external electric field

     Computed dipole along edir(3) : 
        Dipole               -1.5876 Ry au,         -4.0352 Debye
        Dipole field         -0.0010 Ry au, 
 
        Potential amp.        0.1072 Ry
        Total length         55.1515 bohr
 
 
     Adding external electric field

     Computed dipole along edir(3) : 
        Dipole               -1.5876 Ry au,         -4.0352 Debye
        Dipole field         -0.0010 Ry au, 
 
        Potential amp.        0.1072 Ry
        Total length         55.1515 bohr
 

     total cpu time spent up to now is      358.8 secs

     total energy              =   -7738.32953034 Ry
     estimated scf accuracy    <       0.06755375 Ry

     total magnetization       =    88.50 Bohr mag/cell
     absolute magnetization    =    89.80 Bohr mag/cell

     iteration # 26     ecut=    50.00 Ry     beta= 0.30
     Davidson diagonalization with overlap
     ethr =  6.18E-06,  avg # of iterations =  1.5
 
     Adding external electric field

     Computed dipole along edir(3) : 
        Dipole               -1.5969 Ry au,         -4.0590 Debye
        Dipole field         -0.0010 Ry au, 
 
        Potential amp.        0.1078 Ry
        Total length         55.1515 bohr
 
 
     Adding external electric field

     Computed dipole along edir(3) : 
        Dipole               -1.5969 Ry au,         -4.0590 Debye
        Dipole field         -0.0010 Ry au, 
 
        Potential amp.        0.1078 Ry
        Total length         55.1515 bohr
 

     total cpu time spent up to now is      370.4 secs

     total energy              =   -7738.32981496 Ry
     estimated scf accuracy    <       0.06691884 Ry

     total magnetization       =    88.51 Bohr mag/cell
     absolute magnetization    =    89.82 Bohr mag/cell

     iteration # 27     ecut=    50.00 Ry     beta= 0.30
     Davidson diagonalization with overlap
     ethr =  6.12E-06,  avg # of iterations =  1.5
 
     Adding external electric field

     Computed dipole along edir(3) : 
        Dipole               -1.6261 Ry au,         -4.1330 Debye
        Dipole field         -0.0010 Ry au, 
 
        Potential amp.        0.1098 Ry
        Total length         55.1515 bohr
 
 
     Adding external electric field

     Computed dipole along edir(3) : 
        Dipole               -1.6261 Ry au,         -4.1330 Debye
        Dipole field         -0.0010 Ry au, 
 
        Potential amp.        0.1098 Ry
        Total length         55.1515 bohr
 

     total cpu time spent up to now is      382.1 secs

     total energy              =   -7738.33032407 Ry
     estimated scf accuracy    <       0.06618177 Ry

     total magnetization       =    88.50 Bohr mag/cell
     absolute magnetization    =    89.81 Bohr mag/cell

     iteration # 28     ecut=    50.00 Ry     beta= 0.30
     Davidson diagonalization with overlap
     ethr =  6.06E-06,  avg # of iterations = 21.5
 
     Adding external electric field

     Computed dipole along edir(3) : 
        Dipole               -1.5977 Ry au,         -4.0608 Debye
        Dipole field         -0.0010 Ry au, 
 
        Potential amp.        0.1079 Ry
        Total length         55.1515 bohr
 
 
     Adding external electric field

     Computed dipole along edir(3) : 
        Dipole               -1.5977 Ry au,         -4.0608 Debye
        Dipole field         -0.0010 Ry au, 
 
        Potential amp.        0.1079 Ry
        Total length         55.1515 bohr
 

     total cpu time spent up to now is      415.9 secs

     total energy              =   -7738.33011191 Ry
     estimated scf accuracy    <       0.05975983 Ry

     total magnetization       =    88.54 Bohr mag/cell
     absolute magnetization    =    89.83 Bohr mag/cell

     iteration # 29     ecut=    50.00 Ry     beta= 0.30
     Davidson diagonalization with overlap
     ethr =  5.47E-06,  avg # of iterations =  4.5
 
     Adding external electric field

     Computed dipole along edir(3) : 
        Dipole               -1.6188 Ry au,         -4.1145 Debye
        Dipole field         -0.0010 Ry au, 
 
        Potential amp.        0.1093 Ry
        Total length         55.1515 bohr
 
 
     Adding external electric field

     Computed dipole along edir(3) : 
        Dipole               -1.6188 Ry au,         -4.1145 Debye
        Dipole field         -0.0010 Ry au, 
 
        Potential amp.        0.1093 Ry
        Total length         55.1515 bohr
 

     total cpu time spent up to now is      430.8 secs

     total energy              =   -7738.32986364 Ry
     estimated scf accuracy    <       0.05763683 Ry

     total magnetization       =    88.57 Bohr mag/cell
     absolute magnetization    =    89.88 Bohr mag/cell

     iteration # 30     ecut=    50.00 Ry     beta= 0.30
     Davidson diagonalization with overlap
     ethr =  5.27E-06,  avg # of iterations =  1.5
 
     Adding external electric field

     Computed dipole along edir(3) : 
        Dipole               -1.6093 Ry au,         -4.0905 Debye
        Dipole field         -0.0010 Ry au, 
 
        Potential amp.        0.1087 Ry
        Total length         55.1515 bohr
 
 
     Adding external electric field

     Computed dipole along edir(3) : 
        Dipole               -1.6093 Ry au,         -4.0905 Debye
        Dipole field         -0.0010 Ry au, 
 
        Potential amp.        0.1087 Ry
        Total length         55.1515 bohr
 

     total cpu time spent up to now is      443.5 secs

     total energy              =   -7738.32971316 Ry
     estimated scf accuracy    <       0.06739460 Ry

     total magnetization       =    88.50 Bohr mag/cell
     absolute magnetization    =    89.77 Bohr mag/cell

     iteration # 31     ecut=    50.00 Ry     beta= 0.30
     Davidson diagonalization with overlap
     ethr =  5.27E-06,  avg # of iterations =  1.0
 
     Adding external electric field

     Computed dipole along edir(3) : 
        Dipole               -1.6106 Ry au,         -4.0938 Debye
        Dipole field         -0.0010 Ry au, 
 
        Potential amp.        0.1087 Ry
        Total length         55.1515 bohr
 
 
     Adding external electric field

     Computed dipole along edir(3) : 
        Dipole               -1.6106 Ry au,         -4.0938 Debye
        Dipole field         -0.0010 Ry au, 
 
        Potential amp.        0.1087 Ry
        Total length         55.1515 bohr
 

     total cpu time spent up to now is      454.6 secs

     total energy              =   -7738.33060445 Ry
     estimated scf accuracy    <       0.06314008 Ry

     total magnetization       =    88.52 Bohr mag/cell
     absolute magnetization    =    89.79 Bohr mag/cell

     iteration # 32     ecut=    50.00 Ry     beta= 0.30
     Davidson diagonalization with overlap
     ethr =  5.27E-06,  avg # of iterations =  1.5
 
     Adding external electric field

     Computed dipole along edir(3) : 
        Dipole               -1.6004 Ry au,         -4.0678 Debye
        Dipole field         -0.0010 Ry au, 
 
        Potential amp.        0.1081 Ry
        Total length         55.1515 bohr
 
 
     Adding external electric field

     Computed dipole along edir(3) : 
        Dipole               -1.6004 Ry au,         -4.0678 Debye
        Dipole field         -0.0010 Ry au, 
 
        Potential amp.        0.1081 Ry
        Total length         55.1515 bohr
 

     total cpu time spent up to now is      467.9 secs

     total energy              =   -7738.33130745 Ry
     estimated scf accuracy    <       0.05360897 Ry

     total magnetization       =    88.54 Bohr mag/cell
     absolute magnetization    =    89.84 Bohr mag/cell

     iteration # 33     ecut=    50.00 Ry     beta= 0.30
     Davidson diagonalization with overlap
     ethr =  4.90E-06,  avg # of iterations =  1.0
 
     Adding external electric field

     Computed dipole along edir(3) : 
        Dipole               -1.5813 Ry au,         -4.0193 Debye
        Dipole field         -0.0010 Ry au, 
 
        Potential amp.        0.1068 Ry
        Total length         55.1515 bohr
 
 
     Adding external electric field

     Computed dipole along edir(3) : 
        Dipole               -1.5813 Ry au,         -4.0193 Debye
        Dipole field         -0.0010 Ry au, 
 
        Potential amp.        0.1068 Ry
        Total length         55.1515 bohr
 

     total cpu time spent up to now is      479.7 secs

     total energy              =   -7738.33178925 Ry
     estimated scf accuracy    <       0.05312976 Ry

     total magnetization       =    88.57 Bohr mag/cell
     absolute magnetization    =    89.93 Bohr mag/cell

     iteration # 34     ecut=    50.00 Ry     beta= 0.30
     Davidson diagonalization with overlap
     ethr =  4.86E-06,  avg # of iterations =  1.0
 
     Adding external electric field

     Computed dipole along edir(3) : 
        Dipole               -1.5520 Ry au,         -3.9448 Debye
        Dipole field         -0.0009 Ry au, 
 
        Potential amp.        0.1048 Ry
        Total length         55.1515 bohr
 
 
     Adding external electric field

     Computed dipole along edir(3) : 
        Dipole               -1.5520 Ry au,         -3.9448 Debye
        Dipole field         -0.0009 Ry au, 
 
        Potential amp.        0.1048 Ry
        Total length         55.1515 bohr
 

     total cpu time spent up to now is      491.4 secs

     total energy              =   -7738.33164211 Ry
     estimated scf accuracy    <       0.05858681 Ry

     total magnetization       =    88.55 Bohr mag/cell
     absolute magnetization    =    89.93 Bohr mag/cell

     iteration # 35     ecut=    50.00 Ry     beta= 0.30
     Davidson diagonalization with overlap
     ethr =  4.86E-06,  avg # of iterations =  1.0
 
     Adding external electric field

     Computed dipole along edir(3) : 
        Dipole               -1.5469 Ry au,         -3.9319 Debye
        Dipole field         -0.0009 Ry au, 
 
        Potential amp.        0.1044 Ry
        Total length         55.1515 bohr
 
 
     Adding external electric field

     Computed dipole along edir(3) : 
        Dipole               -1.5469 Ry au,         -3.9319 Debye
        Dipole field         -0.0009 Ry au, 
 
        Potential amp.        0.1044 Ry
        Total length         55.1515 bohr
 

     total cpu time spent up to now is      503.1 secs

     total energy              =   -7738.33154103 Ry
     estimated scf accuracy    <       0.07166508 Ry

     total magnetization       =    88.52 Bohr mag/cell
     absolute magnetization    =    89.92 Bohr mag/cell

     iteration # 36     ecut=    50.00 Ry     beta= 0.30
     Davidson diagonalization with overlap
     ethr =  4.86E-06,  avg # of iterations =  1.0
 
     Adding external electric field

     Computed dipole along edir(3) : 
        Dipole               -1.5434 Ry au,         -3.9230 Debye
        Dipole field         -0.0009 Ry au, 
 
        Potential amp.        0.1042 Ry
        Total length         55.1515 bohr
 
 
     Adding external electric field

     Computed dipole along edir(3) : 
        Dipole               -1.5434 Ry au,         -3.9230 Debye
        Dipole field         -0.0009 Ry au, 
 
        Potential amp.        0.1042 Ry
        Total length         55.1515 bohr
 

     total cpu time spent up to now is      514.3 secs

     total energy              =   -7738.33160770 Ry
     estimated scf accuracy    <       0.07455500 Ry

     total magnetization       =    88.50 Bohr mag/cell
     absolute magnetization    =    89.90 Bohr mag/cell

     iteration # 37     ecut=    50.00 Ry     beta= 0.30
     Davidson diagonalization with overlap
     ethr =  4.86E-06,  avg # of iterations =  1.0
 
     Adding external electric field

     Computed dipole along edir(3) : 
        Dipole               -1.5521 Ry au,         -3.9451 Debye
        Dipole field         -0.0010 Ry au, 
 
        Potential amp.        0.1048 Ry
        Total length         55.1515 bohr
 
 
     Adding external electric field

     Computed dipole along edir(3) : 
        Dipole               -1.5521 Ry au,         -3.9451 Debye
        Dipole field         -0.0010 Ry au, 
 
        Potential amp.        0.1048 Ry
        Total length         55.1515 bohr
 

     total cpu time spent up to now is      524.9 secs

     total energy              =   -7738.33137907 Ry
     estimated scf accuracy    <       0.07629369 Ry

     total magnetization       =    88.49 Bohr mag/cell
     absolute magnetization    =    89.90 Bohr mag/cell

     iteration # 38     ecut=    50.00 Ry     beta= 0.30
     Davidson diagonalization with overlap
     ethr =  4.86E-06,  avg # of iterations =  1.5
 
     Adding external electric field

     Computed dipole along edir(3) : 
        Dipole               -1.5254 Ry au,         -3.8772 Debye
        Dipole field         -0.0009 Ry au, 
 
        Potential amp.        0.1030 Ry
        Total length         55.1515 bohr
 
 
     Adding external electric field

     Computed dipole along edir(3) : 
        Dipole               -1.5254 Ry au,         -3.8772 Debye
        Dipole field         -0.0009 Ry au, 
 
        Potential amp.        0.1030 Ry
        Total length         55.1515 bohr
 

     total cpu time spent up to now is      537.2 secs

     total energy              =   -7738.32887398 Ry
     estimated scf accuracy    <       0.07488188 Ry

     total magnetization       =    88.46 Bohr mag/cell
     absolute magnetization    =    89.87 Bohr mag/cell

     iteration # 39     ecut=    50.00 Ry     beta= 0.30
     Davidson diagonalization with overlap
     ethr =  4.86E-06,  avg # of iterations =  1.5
 
     Adding external electric field

     Computed dipole along edir(3) : 
        Dipole               -1.5081 Ry au,         -3.8332 Debye
        Dipole field         -0.0009 Ry au, 
 
        Potential amp.        0.1018 Ry
        Total length         55.1515 bohr
 
 
     Adding external electric field

     Computed dipole along edir(3) : 
        Dipole               -1.5081 Ry au,         -3.8332 Debye
        Dipole field         -0.0009 Ry au, 
 
        Potential amp.        0.1018 Ry
        Total length         55.1515 bohr
 

     total cpu time spent up to now is      549.4 secs

     total energy              =   -7738.33031894 Ry
     estimated scf accuracy    <       0.09140855 Ry

     total magnetization       =    88.51 Bohr mag/cell
     absolute magnetization    =    89.96 Bohr mag/cell

     iteration # 40     ecut=    50.00 Ry     beta= 0.30
     Davidson diagonalization with overlap
     ethr =  4.86E-06,  avg # of iterations =  1.0
 
     Adding external electric field

     Computed dipole along edir(3) : 
        Dipole               -1.6174 Ry au,         -4.1111 Debye
        Dipole field         -0.0010 Ry au, 
 
        Potential amp.        0.1092 Ry
        Total length         55.1515 bohr
 
 
     Adding external electric field

     Computed dipole along edir(3) : 
        Dipole               -1.6174 Ry au,         -4.1111 Debye
        Dipole field         -0.0010 Ry au, 
 
        Potential amp.        0.1092 Ry
        Total length         55.1515 bohr
 

     total cpu time spent up to now is      560.9 secs

     total energy              =   -7738.32999474 Ry
     estimated scf accuracy    <       0.10595353 Ry

     total magnetization       =    88.50 Bohr mag/cell
     absolute magnetization    =    89.94 Bohr mag/cell

     iteration # 41     ecut=    50.00 Ry     beta= 0.30
     Davidson diagonalization with overlap
     ethr =  4.86E-06,  avg # of iterations =  1.5
 
     Adding external electric field

     Computed dipole along edir(3) : 
        Dipole               -1.6929 Ry au,         -4.3030 Debye
        Dipole field         -0.0010 Ry au, 
 
        Potential amp.        0.1143 Ry
        Total length         55.1515 bohr
 
 
     Adding external electric field

     Computed dipole along edir(3) : 
        Dipole               -1.6929 Ry au,         -4.3030 Debye
        Dipole field         -0.0010 Ry au, 
 
        Potential amp.        0.1143 Ry
        Total length         55.1515 bohr
 

     total cpu time spent up to now is      573.5 secs

     total energy              =   -7738.32829036 Ry
     estimated scf accuracy    <       0.06801978 Ry

     total magnetization       =    88.53 Bohr mag/cell
     absolute magnetization    =    89.94 Bohr mag/cell

     iteration # 42     ecut=    50.00 Ry     beta= 0.30
     Davidson diagonalization with overlap
     ethr =  4.86E-06,  avg # of iterations =  1.5
 
     Adding external electric field

     Computed dipole along edir(3) : 
        Dipole               -1.7020 Ry au,         -4.3260 Debye
        Dipole field         -0.0010 Ry au, 
 
        Potential amp.        0.1149 Ry
        Total length         55.1515 bohr
 
 
     Adding external electric field

     Computed dipole along edir(3) : 
        Dipole               -1.7020 Ry au,         -4.3260 Debye
        Dipole field         -0.0010 Ry au, 
 
        Potential amp.        0.1149 Ry
        Total length         55.1515 bohr
 

     total cpu time spent up to now is      586.0 secs

     total energy              =   -7738.32939692 Ry
     estimated scf accuracy    <       0.05167004 Ry

     total magnetization       =    88.58 Bohr mag/cell
     absolute magnetization    =    89.95 Bohr mag/cell

     iteration # 43     ecut=    50.00 Ry     beta= 0.30
     Davidson diagonalization with overlap
     ethr =  4.73E-06,  avg # of iterations =  1.5
 
     Adding external electric field

     Computed dipole along edir(3) : 
        Dipole               -1.7416 Ry au,         -4.4268 Debye
        Dipole field         -0.0011 Ry au, 
 
        Potential amp.        0.1176 Ry
        Total length         55.1515 bohr
 
 
     Adding external electric field

     Computed dipole along edir(3) : 
        Dipole               -1.7416 Ry au,         -4.4268 Debye
        Dipole field         -0.0011 Ry au, 
 
        Potential amp.        0.1176 Ry
        Total length         55.1515 bohr
 

     total cpu time spent up to now is      598.1 secs

     total energy              =   -7738.32935702 Ry
     estimated scf accuracy    <       0.04806932 Ry

     total magnetization       =    88.58 Bohr mag/cell
     absolute magnetization    =    89.95 Bohr mag/cell

     iteration # 44     ecut=    50.00 Ry     beta= 0.30
     Davidson diagonalization with overlap
     ethr =  4.40E-06,  avg # of iterations =  1.5
 
     Adding external electric field

     Computed dipole along edir(3) : 
        Dipole               -1.7624 Ry au,         -4.4796 Debye
        Dipole field         -0.0011 Ry au, 
 
        Potential amp.        0.1190 Ry
        Total length         55.1515 bohr
 
 
     Adding external electric field

     Computed dipole along edir(3) : 
        Dipole               -1.7624 Ry au,         -4.4796 Debye
        Dipole field         -0.0011 Ry au, 
 
        Potential amp.        0.1190 Ry
        Total length         55.1515 bohr
 

     total cpu time spent up to now is      610.4 secs

     total energy              =   -7738.32907992 Ry
     estimated scf accuracy    <       0.04412735 Ry

     total magnetization       =    88.58 Bohr mag/cell
     absolute magnetization    =    89.94 Bohr mag/cell

     iteration # 45     ecut=    50.00 Ry     beta= 0.30
     Davidson diagonalization with overlap
     ethr =  4.04E-06,  avg # of iterations =  2.0
 
     Adding external electric field

     Computed dipole along edir(3) : 
        Dipole               -1.7669 Ry au,         -4.4910 Debye
        Dipole field         -0.0011 Ry au, 
 
        Potential amp.        0.1193 Ry
        Total length         55.1515 bohr
 
 
     Adding external electric field

     Computed dipole along edir(3) : 
        Dipole               -1.7669 Ry au,         -4.4910 Debye
        Dipole field         -0.0011 Ry au, 
 
        Potential amp.        0.1193 Ry
        Total length         55.1515 bohr
 

     total cpu time spent up to now is      623.2 secs

     total energy              =   -7738.32833422 Ry
     estimated scf accuracy    <       0.04046617 Ry

     total magnetization       =    88.56 Bohr mag/cell
     absolute magnetization    =    89.87 Bohr mag/cell

     iteration # 46     ecut=    50.00 Ry     beta= 0.30
     Davidson diagonalization with overlap
     ethr =  3.70E-06,  avg # of iterations =  2.0
 
     Adding external electric field

     Computed dipole along edir(3) : 
        Dipole               -1.7818 Ry au,         -4.5288 Debye
        Dipole field         -0.0011 Ry au, 
 
        Potential amp.        0.1203 Ry
        Total length         55.1515 bohr
 
 
     Adding external electric field

     Computed dipole along edir(3) : 
        Dipole               -1.7818 Ry au,         -4.5288 Debye
        Dipole field         -0.0011 Ry au, 
 
        Potential amp.        0.1203 Ry
        Total length         55.1515 bohr
 

     total cpu time spent up to now is      636.9 secs

     total energy              =   -7738.32883166 Ry
     estimated scf accuracy    <       0.04219534 Ry

     total magnetization       =    88.58 Bohr mag/cell
     absolute magnetization    =    89.89 Bohr mag/cell

     iteration # 47     ecut=    50.00 Ry     beta= 0.30
     Davidson diagonalization with overlap
     ethr =  3.70E-06,  avg # of iterations =  1.5

     negative rho (up, down):  2.852E-08 5.606E-08
 
     Adding external electric field

     Computed dipole along edir(3) : 
        Dipole               -1.6180 Ry au,         -4.1126 Debye
        Dipole field         -0.0010 Ry au, 
 
        Potential amp.        0.1092 Ry
        Total length         55.1515 bohr
 
 
     Adding external electric field

     Computed dipole along edir(3) : 
        Dipole               -1.6180 Ry au,         -4.1126 Debye
        Dipole field         -0.0010 Ry au, 
 
        Potential amp.        0.1092 Ry
        Total length         55.1515 bohr
 

     total cpu time spent up to now is      648.3 secs

     total energy              =   -7738.32671008 Ry
     estimated scf accuracy    <       0.04377260 Ry

     total magnetization       =    88.57 Bohr mag/cell
     absolute magnetization    =    89.89 Bohr mag/cell

     iteration # 48     ecut=    50.00 Ry     beta= 0.30
     Davidson diagonalization with overlap
     ethr =  3.70E-06,  avg # of iterations =  3.0
 
     Adding external electric field

     Computed dipole along edir(3) : 
        Dipole               -1.6508 Ry au,         -4.1958 Debye
        Dipole field         -0.0010 Ry au, 
 
        Potential amp.        0.1115 Ry
        Total length         55.1515 bohr
 
 
     Adding external electric field

     Computed dipole along edir(3) : 
        Dipole               -1.6508 Ry au,         -4.1958 Debye
        Dipole field         -0.0010 Ry au, 
 
        Potential amp.        0.1115 Ry
        Total length         55.1515 bohr
 

     total cpu time spent up to now is      661.3 secs

     total energy              =   -7738.32719013 Ry
     estimated scf accuracy    <       0.06645252 Ry

     total magnetization       =    88.63 Bohr mag/cell
     absolute magnetization    =    89.97 Bohr mag/cell

     iteration # 49     ecut=    50.00 Ry     beta= 0.30
     Davidson diagonalization with overlap
     ethr =  3.70E-06,  avg # of iterations =  1.5
 
     Adding external electric field

     Computed dipole along edir(3) : 
        Dipole               -1.6672 Ry au,         -4.2377 Debye
        Dipole field         -0.0010 Ry au, 
 
        Potential amp.        0.1126 Ry
        Total length         55.1515 bohr
 
 
     Adding external electric field

     Computed dipole along edir(3) : 
        Dipole               -1.6672 Ry au,         -4.2377 Debye
        Dipole field         -0.0010 Ry au, 
 
        Potential amp.        0.1126 Ry
        Total length         55.1515 bohr
 

     total cpu time spent up to now is      673.2 secs

     total energy              =   -7738.32654763 Ry
     estimated scf accuracy    <       0.06610261 Ry

     total magnetization       =    88.57 Bohr mag/cell
     absolute magnetization    =    89.89 Bohr mag/cell

     iteration # 50     ecut=    50.00 Ry     beta= 0.30
     Davidson diagonalization with overlap
     ethr =  3.70E-06,  avg # of iterations =  2.0

     negative rho (up, down):  5.176E-09 1.437E-08
 
     Adding external electric field

     Computed dipole along edir(3) : 
        Dipole               -1.6544 Ry au,         -4.2051 Debye
        Dipole field         -0.0010 Ry au, 
 
        Potential amp.        0.1117 Ry
        Total length         55.1515 bohr
 
 
     Adding external electric field

     Computed dipole along edir(3) : 
        Dipole               -1.6544 Ry au,         -4.2051 Debye
        Dipole field         -0.0010 Ry au, 
 
        Potential amp.        0.1117 Ry
        Total length         55.1515 bohr
 

     total cpu time spent up to now is      686.2 secs

     total energy              =   -7738.32711581 Ry
     estimated scf accuracy    <       0.06379317 Ry

     total magnetization       =    88.62 Bohr mag/cell
     absolute magnetization    =    89.90 Bohr mag/cell

     iteration # 51     ecut=    50.00 Ry     beta= 0.30
     Davidson diagonalization with overlap
     ethr =  3.70E-06,  avg # of iterations =  1.5

     negative rho (up, down):  1.030E-08 1.975E-08
 
     Adding external electric field

     Computed dipole along edir(3) : 
        Dipole               -1.6517 Ry au,         -4.1983 Debye
        Dipole field         -0.0010 Ry au, 
 
        Potential amp.        0.1115 Ry
        Total length         55.1515 bohr
 
 
     Adding external electric field

     Computed dipole along edir(3) : 
        Dipole               -1.6517 Ry au,         -4.1983 Debye
        Dipole field         -0.0010 Ry au, 
 
        Potential amp.        0.1115 Ry
        Total length         55.1515 bohr
 

     total cpu time spent up to now is      698.1 secs

     total energy              =   -7738.32646352 Ry
     estimated scf accuracy    <       0.05581323 Ry

     total magnetization       =    88.61 Bohr mag/cell
     absolute magnetization    =    89.94 Bohr mag/cell

     iteration # 52     ecut=    50.00 Ry     beta= 0.30
     Davidson diagonalization with overlap
     ethr =  3.70E-06,  avg # of iterations =  1.5

     negative rho (up, down):  1.173E-07 1.243E-07
 
     Adding external electric field

     Computed dipole along edir(3) : 
        Dipole               -1.5788 Ry au,         -4.0129 Debye
        Dipole field         -0.0010 Ry au, 
 
        Potential amp.        0.1066 Ry
        Total length         55.1515 bohr
 
 
     Adding external electric field

     Computed dipole along edir(3) : 
        Dipole               -1.5788 Ry au,         -4.0129 Debye
        Dipole field         -0.0010 Ry au, 
 
        Potential amp.        0.1066 Ry
        Total length         55.1515 bohr
 

     total cpu time spent up to now is      710.2 secs

     total energy              =   -7738.32589962 Ry
     estimated scf accuracy    <       0.04970151 Ry

     total magnetization       =    88.65 Bohr mag/cell
     absolute magnetization    =    89.97 Bohr mag/cell

     iteration # 53     ecut=    50.00 Ry     beta= 0.30
     Davidson diagonalization with overlap
     ethr =  3.70E-06,  avg # of iterations =  1.5

     negative rho (up, down):  1.284E-06 9.704E-07
 
     Adding external electric field

     Computed dipole along edir(3) : 
        Dipole               -1.4037 Ry au,         -3.5679 Debye
        Dipole field         -0.0009 Ry au, 
 
        Potential amp.        0.0948 Ry
        Total length         55.1515 bohr
 
 
     Adding external electric field

     Computed dipole along edir(3) : 
        Dipole               -1.4037 Ry au,         -3.5679 Debye
        Dipole field         -0.0009 Ry au, 
 
        Potential amp.        0.0948 Ry
        Total length         55.1515 bohr
 

     total cpu time spent up to now is      721.7 secs

     total energy              =   -7738.32413494 Ry
     estimated scf accuracy    <       0.04156872 Ry

     total magnetization       =    88.64 Bohr mag/cell
     absolute magnetization    =    89.97 Bohr mag/cell

     iteration # 54     ecut=    50.00 Ry     beta= 0.30
     Davidson diagonalization with overlap
     ethr =  3.70E-06,  avg # of iterations =  2.0

     negative rho (up, down):  2.840E-06 1.007E-06
 
     Adding external electric field

     Computed dipole along edir(3) : 
        Dipole               -0.9953 Ry au,         -2.5298 Debye
        Dipole field         -0.0006 Ry au, 
 
        Potential amp.        0.0672 Ry
        Total length         55.1515 bohr
 
 
     Adding external electric field

     Computed dipole along edir(3) : 
        Dipole               -0.9953 Ry au,         -2.5298 Debye
        Dipole field         -0.0006 Ry au, 
 
        Potential amp.        0.0672 Ry
        Total length         55.1515 bohr
 

     total cpu time spent up to now is      734.1 secs

     total energy              =   -7738.32076851 Ry
     estimated scf accuracy    <       0.03208540 Ry

     total magnetization       =    88.67 Bohr mag/cell
     absolute magnetization    =    90.07 Bohr mag/cell

     iteration # 55     ecut=    50.00 Ry     beta= 0.30
     Davidson diagonalization with overlap
     c_bands:  4 eigenvalues not converged
     c_bands:  2 eigenvalues not converged
     ethr =  2.94E-06,  avg # of iterations = 20.0

     negative rho (up, down):  9.431E-07 3.979E-07
 
     Adding external electric field

     Computed dipole along edir(3) : 
        Dipole               -0.9832 Ry au,         -2.4990 Debye
        Dipole field         -0.0006 Ry au, 
 
        Potential amp.        0.0664 Ry
        Total length         55.1515 bohr
 
 
     Adding external electric field

     Computed dipole along edir(3) : 
        Dipole               -0.9832 Ry au,         -2.4990 Debye
        Dipole field         -0.0006 Ry au, 
 
        Potential amp.        0.0664 Ry
        Total length         55.1515 bohr
 

     total cpu time spent up to now is      761.9 secs

     total energy              =   -7738.32044470 Ry
     estimated scf accuracy    <       0.04166021 Ry

     total magnetization       =    88.66 Bohr mag/cell
     absolute magnetization    =    90.08 Bohr mag/cell

     iteration # 56     ecut=    50.00 Ry     beta= 0.30
     Davidson diagonalization with overlap
     ethr =  2.94E-06,  avg # of iterations =  2.0

     negative rho (up, down):  1.567E-06 1.810E-06
 
     Adding external electric field

     Computed dipole along edir(3) : 
        Dipole               -0.7782 Ry au,         -1.9779 Debye
        Dipole field         -0.0005 Ry au, 
 
        Potential amp.        0.0525 Ry
        Total length         55.1515 bohr
 
 
     Adding external electric field

     Computed dipole along edir(3) : 
        Dipole               -0.7782 Ry au,         -1.9779 Debye
        Dipole field         -0.0005 Ry au, 
 
        Potential amp.        0.0525 Ry
        Total length         55.1515 bohr
 

     total cpu time spent up to now is      775.3 secs

     total energy              =   -7738.32002404 Ry
     estimated scf accuracy    <       0.02224177 Ry

     total magnetization       =    88.54 Bohr mag/cell
     absolute magnetization    =    89.96 Bohr mag/cell

     iteration # 57     ecut=    50.00 Ry     beta= 0.30
     Davidson diagonalization with overlap
     ethr =  2.03E-06,  avg # of iterations =  2.0

     negative rho (up, down):  1.452E-07 1.309E-05
 
     Adding external electric field

     Computed dipole along edir(3) : 
        Dipole               -0.7316 Ry au,         -1.8595 Debye
        Dipole field         -0.0004 Ry au, 
 
        Potential amp.        0.0494 Ry
        Total length         55.1515 bohr
 
 
     Adding external electric field

     Computed dipole along edir(3) : 
        Dipole               -0.7316 Ry au,         -1.8595 Debye
        Dipole field         -0.0004 Ry au, 
 
        Potential amp.        0.0494 Ry
        Total length         55.1515 bohr
 

     total cpu time spent up to now is      787.7 secs

     total energy              =   -7738.31949007 Ry
     estimated scf accuracy    <       0.01550649 Ry

     total magnetization       =    88.57 Bohr mag/cell
     absolute magnetization    =    89.98 Bohr mag/cell

     iteration # 58     ecut=    50.00 Ry     beta= 0.30
     Davidson diagonalization with overlap
     ethr =  1.42E-06,  avg # of iterations =  2.0

     negative rho (up, down):  2.015E-05 4.530E-05
 
     Adding external electric field

     Computed dipole along edir(3) : 
        Dipole               -0.6802 Ry au,         -1.7290 Debye
        Dipole field         -0.0004 Ry au, 
 
        Potential amp.        0.0459 Ry
        Total length         55.1515 bohr
 
 
     Adding external electric field

     Computed dipole along edir(3) : 
        Dipole               -0.6802 Ry au,         -1.7290 Debye
        Dipole field         -0.0004 Ry au, 
 
        Potential amp.        0.0459 Ry
        Total length         55.1515 bohr
 

     total cpu time spent up to now is      800.1 secs

     total energy              =   -7738.31810565 Ry
     estimated scf accuracy    <       0.01124638 Ry

     total magnetization       =    88.51 Bohr mag/cell
     absolute magnetization    =    89.90 Bohr mag/cell

     iteration # 59     ecut=    50.00 Ry     beta= 0.30
     Davidson diagonalization with overlap
     ethr =  1.03E-06,  avg # of iterations = 13.0

     negative rho (up, down):  1.681E-03 1.634E-03
 
     Adding external electric field

     Computed dipole along edir(3) : 
        Dipole               -0.5456 Ry au,         -1.3869 Debye
        Dipole field         -0.0003 Ry au, 
 
        Potential amp.        0.0368 Ry
        Total length         55.1515 bohr
 
 
     Adding external electric field

     Computed dipole along edir(3) : 
        Dipole               -0.5456 Ry au,         -1.3869 Debye
        Dipole field         -0.0003 Ry au, 
 
        Potential amp.        0.0368 Ry
        Total length         55.1515 bohr
 

     total cpu time spent up to now is      819.7 secs

     total energy              =   -7738.31761069 Ry
     estimated scf accuracy    <       0.00861201 Ry

     total magnetization       =    88.55 Bohr mag/cell
     absolute magnetization    =    89.88 Bohr mag/cell

     iteration # 60     ecut=    50.00 Ry     beta= 0.30
     Davidson diagonalization with overlap
     c_bands:  1 eigenvalues not converged
     ethr =  7.88E-07,  avg # of iterations = 18.5

[...]
    -5.9821  -5.9661  -5.9175  -5.9097  -5.8883  -5.8782  -5.8776  -5.8453
    -5.8242  -5.8029  -5.7511  -5.7394  -5.7240  -5.6901  -5.6793  -5.6455
    -5.6412  -5.6300  -5.5933  -5.5753  -5.5676  -5.5595  -5.5567  -5.5339
    -5.5167  -5.5054  -5.4813  -5.4442  -5.4024  -5.3551  -5.3313  -5.3166
    -5.2945  -5.2649  -5.2354  -5.1652  -5.1509  -5.1463  -5.1316  -5.1037
    -5.0517  -5.0112  -4.9734  -4.9479  -4.8996  -4.8894  -4.8598  -4.8586
    -4.8136  -4.7944  -4.7815  -4.7422  -4.7088  -4.6903  -4.6498  -4.6038
    -4.5524  -4.4730  -4.4463  -4.4263  -4.4190  -4.4038  -4.3637  -4.3522
    -4.3018  -4.2848  -4.2558  -4.2326  -4.2029  -4.1744  -4.1183  -4.1076
    -4.0874  -4.0491  -4.0457  -4.0167  -3.9585  -3.9331  -3.9199  -3.8792
    -3.8716  -3.8270  -3.8126  -3.7997  -3.7867  -3.7466  -3.7249  -3.7022
    -3.6916  -3.6641  -3.6473  -3.5985  -3.5857  -3.5773  -3.5746  -3.5480
    -3.5446  -3.5200  -3.5048  -3.4784  -3.4591  -3.4433  -3.4288  -3.4163
    -3.4150  -3.3713  -3.3605  -3.3544  -3.3423  -3.3062  -3.2795  -3.2591
    -3.2537  -3.2111  -3.1969  -3.1856  -3.1491  -3.1160  -3.1065  -3.0824
    -3.0735  -3.0687  -3.0492  -3.0369  -3.0221  -3.0044  -2.9826  -2.9671
    -2.9315  -2.9192  -2.8958  -2.8878  -2.8685  -2.8515  -2.8098  -2.7966
    -2.7866  -2.7584  -2.7533  -2.7435  -2.7269  -2.7156  -2.7026  -2.6887
    -2.6844  -2.6772  -2.6614  -2.6437  -2.6390  -2.6080  -2.6026  -2.5937
    -2.5748  -2.5698  -2.5421  -2.5268  -2.5148  -2.4847  -2.4716  -2.4573
    -2.4398  -2.4207  -2.4060  -2.3792  -2.3569  -2.3541  -2.3222  -2.2874
    -2.2774  -2.2680  -2.2315  -2.2081  -2.1935  -2.1824  -2.1464  -2.1434
    -2.1148  -2.0903  -2.0688  -2.0640  -2.0579  -2.0405  -2.0310  -2.0219
    -1.9977  -1.9800  -1.9402  -1.9170  -1.9121  -1.9109  -1.8744  -1.8563
    -1.8407  -1.8367  -1.8264  -1.8104  -1.7913  -1.7170  -1.7117  -1.6928
    -1.6718  -1.6580  -1.6362  -1.6286  -1.6181  -1.6157  -1.5926  -1.5722
    -1.5507  -1.5376  -1.5184  -1.4883  -1.4881  -1.4553  -1.4366  -1.4282
    -1.4048  -1.3982  -1.3840  -1.3766  -1.3582  -1.3517  -1.3067  -1.2688
    -1.2342  -1.2200  -1.1746  -1.1489  -1.1367  -1.1318  -1.0945  -1.0569
    -1.0458  -0.9951  -0.9292  -0.8464  -0.7402  -0.7293  -0.6183  -0.5581
    -0.5232  -0.5092  -0.3568  -0.2113   0.1772   0.2173   0.2398   0.2460
     0.2979   0.3097   0.3158   0.3201   0.3288   0.3477   0.3601   0.3658
     0.3739   0.3882   0.3963   0.4014   0.4045   0.4120   0.4176   0.4236
     0.4313   0.4400   0.4602   0.4648   0.4742   0.4821   0.4897   0.4906
     0.4952   0.5014   0.5085   0.5144   0.5245   0.5310   0.5355   0.5417
     0.5440   0.5622   0.5659   0.5732   0.5831   0.5972   0.6015   0.6164
     0.6225   0.6232   0.6421   0.6472   0.6525   0.6606   0.6646   0.6769
     0.6822   0.6899   0.6997   0.7063   0.7119   0.7294   0.7315   0.7419
     0.7471   0.7588   0.7662   0.7682   0.7743   0.7916   0.8002   0.8098
     0.8122   0.8231   0.8364   0.8551   0.8638   0.8662   0.8678   0.8712
     0.8822   0.8867   0.9039   0.9085   0.9175   0.9524   0.9855   0.9934
     1.0178   1.0472   1.0884   1.1117   1.1225   1.6752   1.7348   1.7473
     1.7687   1.7883   1.7994   1.8152   1.8266   1.8419   1.9039   1.9193
     1.9378   1.9680   1.9878   2.0081   2.0421   2.0448   2.0941   2.1059
     2.1317   2.1433   2.1452   2.1803   2.1896   2.1969   2.2045   2.2324
     2.2679   2.2761   2.2947   2.3041   2.3128   2.3226   2.3309   2.3500
     2.3716   2.3779   2.3919   2.3941   2.4157   2.4190   2.4312   2.4958
     2.5033   2.5303   2.5350   2.5398   2.5504   2.5664   2.5885   2.5969
     2.6231   2.6799   2.7053   2.7194   2.7487   2.8014   2.8067   2.8662
     2.8756   2.9529   3.6722   3.7074   3.7208   3.7578   3.7832   3.7977
     3.8634   3.9051   3.9322   3.9591   3.9694   3.9821   4.0007   4.0141
     4.0532   4.0590   4.1441   4.1473   4.1578   4.1796   4.6571   4.6876
     4.7897   4.8270   4.8618   4.9021   4.9201   4.9618   5.0398   5.0955
     5.1161   5.1461   5.4284   6.2427   6.3741   6.6109   6.6593   6.7554
     6.8481   6.8629   6.8895   6.9651   6.9876   7.0672   7.1162   7.1319
     7.2645   7.3482   7.3515   7.4190   7.4801   7.5414   7.5715   7.6289
     7.6600   7.6669   7.7407   7.7673   7.7942   7.8589   7.8922   7.9630
     7.9990   8.0444   8.0516   8.0897   8.1083   8.1578   8.1724   8.2097
     8.2445   8.2847   8.3016   8.3319   8.4022   8.4262   8.4268   8.4517
     8.4618   8.4782   8.4946   8.5372   8.5534   8.5724   8.5968   8.6217
     8.6716   8.7077   8.7247   8.7554   8.7666   8.7796   8.8380   8.8398

     the Fermi energy is     1.6596 ev

!    total energy              =   -7738.31800540 Ry
     estimated scf accuracy    <       0.00000087 Ry
     smearing contrib. (-TS)   =      -0.02307537 Ry
     internal energy E=F+TS    =   -7738.29493003 Ry

     The total energy is F=E-TS. E is the sum of the following terms:
     one-electron contribution =  -94759.82811289 Ry
     hartree contribution      =   47997.17909625 Ry
     xc contribution           =   -2218.69769278 Ry
     ewald contribution        =   41244.85909347 Ry
     Dispersion Correction     =      -1.80737716 Ry
     electric field correction =       0.00006309 Ry

     total magnetization       =    88.48 Bohr mag/cell
     absolute magnetization    =    89.86 Bohr mag/cell

     convergence has been achieved in  78 iterations

     negative rho (up, down):  1.052E-03 5.888E-04

     Forces acting on atoms (cartesian axes, Ry/au):

     atom    1 type  1   force =    -0.00086714    0.00150108    0.00135569
     atom    2 type  2   force =    -0.00014684   -0.00023217    0.00027576
     atom    3 type  1   force =    -0.00040615    0.00034041    0.00004038
     atom    4 type  1   force =     0.00000615    0.00019229   -0.00020515
     atom    5 type  1   force =    -0.00015057    0.00009869   -0.00010509
     atom    6 type  1   force =     0.00043443    0.00035763    0.00006580
     atom    7 type  3   force =    -0.00018795    0.00022601    0.00010102
     atom    8 type  3   force =    -0.00013098   -0.00005464    0.00001085
     atom    9 type  3   force =     0.00025636   -0.00011717   -0.00001524
     atom   10 type  3   force =     0.00008337    0.00018863    0.00020379
     atom   11 type  4   force =     0.00064246   -0.00021674    0.00041405
     atom   12 type  4   force =    -0.00068703   -0.00017851    0.00006897
     atom   13 type  4   force =    -0.00002468    0.00018644   -0.00048761
     atom   14 type  4   force =    -0.00053342   -0.00031511    0.00025555
     atom   15 type  4   force =     0.00017411   -0.00033667   -0.00014119
     atom   16 type  4   force =    -0.00046500   -0.00017768    0.00030466
     atom   17 type  4   force =    -0.00045226    0.00000658    0.00052755
     atom   18 type  4   force =     0.00014992   -0.00005096    0.00025859
     atom   19 type  4   force =     0.00013860    0.00044035    0.00006872
     atom   20 type  4   force =    -0.00011590   -0.00021479   -0.00013114
     atom   21 type  4   force =     0.00007847    0.00014333    0.00002371
     atom   22 type  4   force =     0.00000343    0.00033579   -0.00062322
     atom   23 type  4   force =    -0.00005055    0.00017995    0.00008297
     atom   24 type  4   force =     0.00031341    0.00011478    0.00011496
     atom   25 type  4   force =    -0.00025863    0.00055548   -0.00004177
     atom   26 type  4   force =    -0.00025276    0.00006748   -0.00006214
     atom   27 type  1   force =    -0.00659601   -0.00692130   -0.00171072
     atom   28 type  2   force =    -0.01236559   -0.00006634   -0.00172163
     atom   29 type  1   force =     0.00352374   -0.00411766   -0.00058611
     atom   30 type  1   force =     0.00237934    0.00402634   -0.00182504
     atom   31 type  1   force =     0.00148025   -0.00487627   -0.00026982
     atom   32 type  1   force =    -0.00103832    0.00138558    0.00188540
     atom   33 type  3   force =    -0.00697676   -0.00095360    0.00009888
     atom   34 type  3   force =    -0.00715538    0.00450977   -0.00249178
     atom   35 type  3   force =     0.00391327   -0.00257271   -0.00364667
     atom   36 type  3   force =     0.00121632   -0.00123756    0.00298772
     atom   37 type  4   force =     0.00858248    0.00533323   -0.00781724
     atom   38 type  4   force =     0.00444026   -0.00222726    0.01974754
     atom   39 type  4   force =    -0.00115916    0.00405685    0.01036627
     atom   40 type  4   force =    -0.00163273   -0.00238321   -0.00888653
     atom   41 type  4   force =     0.00199240    0.00841504    0.00628405
     atom   42 type  4   force =    -0.00581436   -0.00278806   -0.01981488
     atom   43 type  4   force =     0.01049590    0.00698036   -0.00665554
     atom   44 type  4   force =     0.00725329   -0.00307408    0.00599399
     atom   45 type  4   force =     0.00223272    0.00587598   -0.00066017
     atom   46 type  4   force =     0.00357547    0.00188790    0.00461688
     atom   47 type  4   force =    -0.01326097    0.00015719    0.00324862
     atom   48 type  4   force =    -0.01475380    0.00271354   -0.00308842
     atom   49 type  4   force =     0.01259742    0.00249694   -0.00465726
     atom   50 type  4   force =    -0.00390370   -0.00437970    0.00001433
     atom   51 type  4   force =    -0.00448713    0.00280844   -0.00070881
     atom   52 type  4   force =     0.01639068   -0.00320678    0.00403164
     atom   53 type  1   force =    -0.00747899   -0.00715805   -0.00857996
     atom   54 type  2   force =     0.01574612    0.01729194   -0.01024542
     atom   55 type  1   force =     0.00584424   -0.00485357   -0.00608233
     atom   56 type  1   force =    -0.02062107    0.01937389    0.01967001
     atom   57 type  1   force =     0.00444164   -0.00750982   -0.00171677
     atom   58 type  1   force =    -0.00391164   -0.00551600   -0.00116173
     atom   59 type  3   force =    -0.03899520   -0.03831580   -0.05609869
     atom   60 type  3   force =    -0.00478429   -0.00133812   -0.00108449
     atom   61 type  3   force =     0.00272107   -0.00093540   -0.01010368
     atom   62 type  3   force =     0.02908198   -0.04950100   -0.06058672
     atom   63 type  4   force =     0.00629519    0.00350520    0.02101622
     atom   64 type  4   force =     0.00438645    0.00239549    0.01464699
     atom   65 type  4   force =    -0.00072188    0.00288775    0.01275953
     atom   66 type  4   force =     0.00017221    0.00213779    0.01608845
     atom   67 type  4   force =     0.00109964   -0.00056244    0.03925377
     atom   68 type  4   force =    -0.00575383   -0.00389323   -0.01725449
     atom   69 type  4   force =     0.00781425    0.00449563   -0.00261590
     atom   70 type  4   force =     0.00174508   -0.00730219    0.03562356
     atom   71 type  4   force =    -0.00911476    0.03907696    0.00095271
     atom   72 type  4   force =     0.00228329   -0.00052690    0.00792426
     atom   73 type  4   force =    -0.03001154    0.00082801    0.00764797
     atom   74 type  4   force =    -0.01345592    0.00142840   -0.00045427
     atom   75 type  4   force =     0.01202020    0.00351224   -0.00251757
     atom   76 type  4   force =    -0.00240425   -0.00287019    0.00254181
     atom   77 type  4   force =     0.00926215    0.02571436   -0.00254893
     atom   78 type  4   force =     0.03342277   -0.00636178    0.00619176
     atom   79 type  1   force =     0.00010468    0.00055749    0.00039120
     atom   80 type  2   force =    -0.00006287   -0.00009640   -0.00025092
     atom   81 type  1   force =    -0.00016185    0.00016793   -0.00030451
     atom   82 type  1   force =    -0.00002819    0.00000398   -0.00019362
     atom   83 type  1   force =    -0.00055066    0.00003380    0.00015680
     atom   84 type  1   force =     0.00021499    0.00026370    0.00073479
     atom   85 type  3   force =    -0.00022736    0.00055807    0.00033808
     atom   86 type  3   force =    -0.00005851    0.00011180    0.00001013
     atom   87 type  3   force =    -0.00005513    0.00011567   -0.00007919
     atom   88 type  3   force =     0.00010524    0.00045538    0.00014989
     atom   89 type  4   force =    -0.00011506   -0.00055327    0.00011400
     atom   90 type  4   force =    -0.00002166    0.00067709    0.00029605
     atom   91 type  4   force =     0.00033962    0.00011637   -0.00023201
     atom   92 type  4   force =    -0.00050780   -0.00007991    0.00016593
     atom   93 type  4   force =     0.00029462   -0.00036376    0.00010651
     atom   94 type  4   force =     0.00035899    0.00017585    0.00086153
     atom   95 type  4   force =    -0.00021058    0.00009510   -0.00000391
     atom   96 type  4   force =     0.00002765   -0.00006002   -0.00007405
     atom   97 type  4   force =    -0.00006138    0.00061753   -0.00019168
     atom   98 type  4   force =     0.00005859   -0.00034116    0.00005748
     atom   99 type  4   force =    -0.00018214   -0.00005087   -0.00043625
     atom  100 type  4   force =     0.00017917    0.00054839   -0.00033433
     atom  101 type  4   force =     0.00033752   -0.00010270   -0.00017366
     atom  102 type  4   force =     0.00027595    0.00004829    0.00030763
     atom  103 type  4   force =    -0.00046466    0.00054887   -0.00052604
     atom  104 type  4   force =    -0.00028712    0.00055540    0.00009924
     atom  105 type  1   force =    -0.00625870   -0.00848870   -0.00300554
     atom  106 type  2   force =    -0.01196780    0.00013101   -0.00193100
     atom  107 type  1   force =     0.00316537   -0.00432563   -0.00077405
     atom  108 type  1   force =     0.00232485    0.00402357   -0.00192915
     atom  109 type  1   force =     0.00203911   -0.00491379   -0.00045269
     atom  110 type  1   force =    -0.00120594    0.00119926    0.00178264
     atom  111 type  3   force =    -0.00716398   -0.00083000   -0.00040785
     atom  112 type  3   force =    -0.00604947    0.00388825   -0.00142692
     atom  113 type  3   force =     0.00354296   -0.00104672   -0.00514081
     atom  114 type  3   force =     0.00106285   -0.00120895    0.00295450
     atom  115 type  4   force =     0.00875285    0.00501081   -0.00752982
     atom  116 type  4   force =     0.00351947   -0.00117252    0.02016485
     atom  117 type  4   force =    -0.00116432    0.00381254    0.01076669
     atom  118 type  4   force =    -0.00148508   -0.00245084   -0.00893447
     atom  119 type  4   force =     0.00215321    0.00849802    0.00630498
     atom  120 type  4   force =    -0.00555825   -0.00228213   -0.01742849
     atom  121 type  4   force =     0.01121415    0.00653439   -0.00720234
     atom  122 type  4   force =     0.00711397   -0.00308998    0.00597682
     atom  123 type  4   force =     0.00221637    0.00591431   -0.00064575
     atom  124 type  4   force =     0.00310567    0.00097199    0.00555812
     atom  125 type  4   force =    -0.01323134    0.00020416    0.00330278
     atom  126 type  4   force =    -0.01426658    0.00240812   -0.00303749
     atom  127 type  4   force =     0.01323516    0.00280484   -0.00483835
     atom  128 type  4   force =    -0.00419628   -0.00445240    0.00001603
     atom  129 type  4   force =    -0.00433955    0.00276478   -0.00060742
     atom  130 type  4   force =     0.01652800   -0.00320063    0.00418266
     atom  131 type  1   force =    -0.00756116   -0.00708538   -0.00858520
     atom  132 type  2   force =     0.01574866    0.01725185   -0.01021510
     atom  133 type  1   force =     0.00576521   -0.00485591   -0.00606539
     atom  134 type  1   force =    -0.02062276    0.01937541    0.01969502
     atom  135 type  1   force =     0.00453127   -0.00748352   -0.00168638
     atom  136 type  1   force =    -0.00387225   -0.00541245   -0.00110381
     atom  137 type  3   force =    -0.03902651   -0.03835396   -0.05605061
     atom  138 type  3   force =    -0.00495068   -0.00126627   -0.00114017
     atom  139 type  3   force =     0.00272786   -0.00101977   -0.01011157
     atom  140 type  3   force =     0.02911331   -0.04950785   -0.06057414
     atom  141 type  4   force =     0.00621119    0.00354293    0.02103481
     atom  142 type  4   force =     0.00444122    0.00229000    0.01459909
     atom  143 type  4   force =    -0.00059046    0.00281305    0.01280348
     atom  144 type  4   force =     0.00017876    0.00223676    0.01635274
     atom  145 type  4   force =     0.00124653   -0.00057083    0.03921604
     atom  146 type  4   force =    -0.00545791   -0.00393157   -0.01718311
     atom  147 type  4   force =     0.00782254    0.00456307   -0.00277223
     atom  148 type  4   force =     0.00160016   -0.00733969    0.03561566
     atom  149 type  4   force =    -0.00933655    0.03909809    0.00094953
     atom  150 type  4   force =     0.00209254   -0.00044921    0.00792359
     atom  151 type  4   force =    -0.02988745    0.00086554    0.00764811
     atom  152 type  4   force =    -0.01359310    0.00144012   -0.00044968
     atom  153 type  4   force =     0.01208271    0.00359114   -0.00254162
     atom  154 type  4   force =    -0.00241346   -0.00277764    0.00247569
     atom  155 type  4   force =     0.00910433    0.02575701   -0.00261674
     atom  156 type  4   force =     0.03343756   -0.00617932    0.00601745
     atom  157 type  4   force =    -0.00581879   -0.00846540    0.00116916
     atom  158 type  5   force =     0.00707512    0.00628114   -0.00147290

     Total force =     0.237416     Total SCF correction =     0.004035
 
     init_run     :      7.47s CPU      8.05s WALL (       1 calls)
     electrons    :   1024.73s CPU   1072.62s WALL (       1 calls)
     forces       :      3.54s CPU      3.85s WALL (       1 calls)
     force_london :      0.09s CPU      0.09s WALL (       1 calls)

     Called by init_run:
     wfcinit      :      4.48s CPU      4.61s WALL (       1 calls)
     potinit      :      0.63s CPU      0.82s WALL (       1 calls)
     hinit0       :      1.19s CPU      1.27s WALL (       1 calls)

     Called by electrons:
     c_bands      :    815.73s CPU    842.42s WALL (      78 calls)
     sum_band     :    131.75s CPU    143.24s WALL (      78 calls)
     v_of_rho     :     20.00s CPU     21.01s WALL (      79 calls)
     newd         :     39.40s CPU     48.06s WALL (      79 calls)
     mix_rho      :     16.87s CPU     16.96s WALL (      78 calls)
     energy_londo :      0.09s CPU      0.09s WALL (       1 calls)

     Called by c_bands:
     init_us_2    :      2.30s CPU      2.34s WALL (     316 calls)
     init_us_2:cp :      2.29s CPU      2.34s WALL (     316 calls)
     regterg      :    799.67s CPU    826.16s WALL (     158 calls)

     Called by *egterg:
     rdiaghg      :    247.35s CPU    260.81s WALL (     652 calls)
     h_psi        :    299.70s CPU    305.83s WALL (     654 calls)
     s_psi        :     52.34s CPU     52.39s WALL (     654 calls)
     g_psi        :      0.37s CPU      0.38s WALL (     494 calls)

     Called by h_psi:
     h_psi:calbec :     77.45s CPU     82.33s WALL (     654 calls)
     vloc_psi     :    167.89s CPU    168.58s WALL (     654 calls)
     add_vuspsi   :     53.59s CPU     54.14s WALL (     654 calls)

     General routines
     calbec       :    114.19s CPU    121.42s WALL (     818 calls)
     fft          :     21.67s CPU     23.12s WALL (    1435 calls)
     ffts         :     10.43s CPU     10.46s WALL (    8007 calls)
     fftw         :    189.52s CPU    190.27s WALL (  266102 calls)
     interpolate  :      1.40s CPU      1.63s WALL (     158 calls)
 
     Parallel routines
 
     PWSCF        :  17m17.84s CPU  18m 6.92s WALL

 
   This run was terminated on:  19:53:50  19Nov2025            

=------------------------------------------------------------------------------=
   JOB DONE.
=------------------------------------------------------------------------------=
