
     Program PWSCF v.7.2 starts on 18Nov2025 at  0:56:49 

     This program is part of the open-source Quantum ESPRESSO suite
     for quantum simulation of materials; please cite
         "P. Giannozzi et al., J. Phys.:Condens. Matter 21 395502 (2009);
         "P. Giannozzi et al., J. Phys.:Condens. Matter 29 465901 (2017);
         "P. Giannozzi et al., J. Chem. Phys. 152 154105 (2020);
          URL http://www.quantum-espresso.org", 
     in publications or presentations arising from this work. More details at
     http://www.quantum-espresso.org/quote

     Parallel version (MPI), running on    64 processors

     MPI processes distributed on     4 nodes
     444976 MiB available memory on the printing compute node when the environment starts
 
     Reading input from PWINPUT_atm158_yp

     Current dimensions of program PWSCF are:
     Max number of different atomic species (ntypx) = 10
     Max number of k-points (npk) =  40000
     Max angular momentum in pseudopotentials (lmaxx) =  4
     Presently no symmetry can be used with electric field

     file Ni.pbe-n-rrkjus_psl.1.0.0.UPF: wavefunction(s)  3D renormalized
     file Mn.pbe-spn-rrkjus_psl.0.3.1.UPF: wavefunction(s)  3D renormalized
     file O.pbe-rrkjus.UPF: wavefunction(s)  2S renormalized
     file H.pbe-rrkjus.UPF: wavefunction(s)  1S renormalized

     gamma-point specific algorithms are used
 
     R & G space division:  proc/nbgrp/npool/nimage =      64
     Subspace diagonalization in iterative solution of the eigenvalue problem:
     one sub-group per band group will be used
     custom distributed-memory algorithm (size of sub-group:  7*  7 procs)

 
     Parallelization info
     --------------------
     sticks:   dense  smooth     PW     G-vecs:    dense   smooth      PW
     Min         207      82     20                60552    15302    1896
     Max         210      84     22                60574    15336    1950
     Sum       13325    5345   1333              3876045   980655  122653
 
     Using Slab Decomposition
 


     bravais-lattice index     =            0
     lattice parameter (alat)  =      17.4067  a.u.
     unit-cell volume          =   20529.8182 (a.u.)^3
     number of atoms/cell      =          158
     number of atomic types    =            5
     number of electrons       =      1093.00
     number of Kohn-Sham states=          656
     kinetic-energy cutoff     =      50.0000  Ry
     charge density cutoff     =     500.0000  Ry
     scf convergence threshold =      1.0E-06
     mixing beta               =       0.1000
     number of iterations used =            8  local-TF  mixing
     Exchange-correlation=  SLA  PW   PBE  PBE
                           (   1   4   3   4   0   0   0)

     celldm(1)=  17.406729  celldm(2)=   0.000000  celldm(3)=   0.000000
     celldm(4)=   0.000000  celldm(5)=   0.000000  celldm(6)=   0.000000

     crystal axes: (cart. coord. in units of alat)
               a(1) = (   1.000000   0.000000   0.000000 )  
               a(2) = (  -0.001404   1.105696   0.000000 )  
               a(3) = (   0.000000   0.000000   3.520448 )  

     reciprocal axes: (cart. coord. in units 2 pi/alat)
               b(1) = (  1.000000  0.001270  0.000000 )  
               b(2) = (  0.000000  0.904408  0.000000 )  
               b(3) = (  0.000000  0.000000  0.284055 )  


     PseudoPot. # 1 for Ni read from file:
     ~/PSEUDO/Ni.pbe-n-rrkjus_psl.1.0.0.UPF
     MD5 check sum: Not computed, couldn't open file
     Pseudo is Ultrasoft + core correction, Zval = 10.0
     Generated using "atomic" code by A. Dal Corso  v.5.1.2
     Using radial grid of 1195 points,  6 beta functions with: 
                l(1) =   0
                l(2) =   0
                l(3) =   1
                l(4) =   1
                l(5) =   2
                l(6) =   2
     Q(r) pseudized with 0 coefficients 


     PseudoPot. # 2 for Mn read from file:
     ~/PSEUDO/Mn.pbe-spn-rrkjus_psl.0.3.1.UPF
     MD5 check sum: Not computed, couldn't open file
     Pseudo is Ultrasoft + core correction, Zval = 15.0
     Generated using &quot;atomic&quot; code by A. Dal Corso  v.6.2.2
     Using radial grid of 1187 points,  6 beta functions with: 
                l(1) =   0
                l(2) =   0
                l(3) =   1
                l(4) =   1
                l(5) =   2
                l(6) =   2
     Q(r) pseudized with 0 coefficients 


     PseudoPot. # 3 for P  read from file:
     ~/PSEUDO/P.pbe-n-rrkjus_psl.1.0.0.UPF
     MD5 check sum: Not computed, couldn't open file
     Pseudo is Ultrasoft + core correction, Zval =  5.0
     Generated using "atomic" code by A. Dal Corso  v.5.1
     Using radial grid of 1147 points,  6 beta functions with: 
                l(1) =   0
                l(2) =   0
                l(3) =   1
                l(4) =   1
                l(5) =   2
                l(6) =   2
     Q(r) pseudized with 0 coefficients 


     PseudoPot. # 4 for O  read from file:
     ~/PSEUDO/O.pbe-rrkjus.UPF
     MD5 check sum: Not computed, couldn't open file
     Pseudo is Ultrasoft, Zval =  6.0
     Generated by new atomic code, or converted to UPF format
     Using radial grid of 1269 points,  4 beta functions with: 
                l(1) =   0
                l(2) =   0
                l(3) =   1
                l(4) =   1
     Q(r) pseudized with 0 coefficients 


     PseudoPot. # 5 for H  read from file:
     ~/PSEUDO/H.pbe-rrkjus.UPF
     MD5 check sum: Not computed, couldn't open file
     Pseudo is Ultrasoft, Zval =  1.0
     Generated by new atomic code, or converted to UPF format
     Using radial grid of 1061 points,  2 beta functions with: 
                l(1) =   0
                l(2) =   0
     Q(r) pseudized with 0 coefficients 


     atomic species   valence    mass     pseudopotential
     Ni               10.00    58.69300     Ni( 1.00)
     Mn               15.00    54.93800     Mn( 1.00)
     P                 5.00    30.97300     P ( 1.00)
     O                 6.00    15.99900     O ( 1.00)
     H                 1.00     1.00790     H ( 1.00)

     Starting magnetic structure 
     atomic species   magnetization
     Ni              1.000
     Mn              1.000
     P               1.000
     O               1.000
     H               0.000

     No symmetry found



   Cartesian axes

     site n.     atom                  positions (alat units)
         1        Ni     tau(   1) = (   0.2407247   0.8678666   1.7788468  )
         2        Mn     tau(   2) = (   0.4849050   0.7928704   1.4298720  )
         3        Ni     tau(   3) = (  -0.0015463   0.3040756   1.7427651  )
         4        Ni     tau(   4) = (   0.2576988   0.2438884   1.4304882  )
         5        Ni     tau(   5) = (   0.4960089   1.1079636   1.5969794  )
         6        Ni     tau(   6) = (   0.2509439   0.5529914   1.6014984  )
         7        P      tau(   7) = (   0.2089048   1.0013970   1.4343524  )
         8        P      tau(   8) = (   0.4624796   0.6667191   1.7615344  )
         9        P      tau(   9) = (   0.2870509   0.1160398   1.7607833  )
        10        P      tau(  10) = (   0.0409376   0.4429602   1.4308127  )
        11        O      tau(  11) = (   0.1352892   0.9270454   1.5724618  )
        12        O      tau(  12) = (   0.3840209   0.7294626   1.6169117  )
        13        O      tau(  13) = (   0.3651818   0.1791486   1.6110775  )
        14        O      tau(  14) = (   0.1191348   0.3726454   1.5703673  )
        15        O      tau(  15) = (   0.1507888   0.9120623   1.3039965  )
        16        O      tau(  16) = (   0.4052423   0.7648049   1.8817709  )
        17        O      tau(  17) = (   0.3458822   0.2189915   1.8759922  )
        18        O      tau(  18) = (   0.1009621   0.3550841   1.3013183  )
        19        O      tau(  19) = (   0.0995916   0.6017289   1.4364553  )
        20        O      tau(  20) = (   0.3468601   1.0635796   1.7571918  )
        21        O      tau(  21) = (   0.3739296   0.4396566   1.4433176  )
        22        O      tau(  22) = (   0.1199364   0.1204540   1.7432983  )
        23        O      tau(  23) = (   0.1279675   0.6643683   1.7537820  )
        24        O      tau(  24) = (   0.4072413   0.5052188   1.7593813  )
        25        O      tau(  25) = (   0.1493697   0.0531357   1.4376636  )
        26        O      tau(  26) = (   0.3761102   0.9942916   1.4433476  )
        27        Ni     tau(  27) = (   0.2413539   0.8509941   1.1121345  )
        28        Mn     tau(  28) = (   0.4917018   0.7787406   0.7768134  )
        29        Ni     tau(  29) = (   0.0044877   0.2932623   1.1138982  )
        30        Ni     tau(  30) = (   0.2563139   0.2275682   0.7805625  )
        31        Ni     tau(  31) = (   0.4969120   1.0949007   0.9459116  )
        32        Ni     tau(  32) = (   0.2488318   0.5341111   0.9469721  )
        33        P      tau(  33) = (   0.2076029   0.9882917   0.7835381  )
        34        P      tau(  34) = (   0.4577012   0.6460068   1.1076436  )
        35        P      tau(  35) = (   0.2881931   0.0932770   1.1104179  )
        36        P      tau(  36) = (   0.0392916   0.4238898   0.7837243  )
        37        O      tau(  37) = (   0.1306755   0.9148866   0.9233554  )
        38        O      tau(  38) = (   0.3789780   0.7172835   0.9680652  )
        39        O      tau(  39) = (   0.3654852   0.1662865   0.9702638  )
        40        O      tau(  40) = (   0.1163776   0.3546954   0.9254186  )
        41        O      tau(  41) = (   0.1502901   0.8969129   0.6541592  )
        42        O      tau(  42) = (   0.3974525   0.7354243   1.2370031  )
        43        O      tau(  43) = (   0.3483097   0.1789497   1.2412670  )
        44        O      tau(  44) = (   0.0974932   0.3376387   0.6529083  )
        45        O      tau(  45) = (   0.0984699   0.5818903   0.7881021  )
        46        O      tau(  46) = (   0.3459978   1.0405493   1.1018526  )
        47        O      tau(  47) = (   0.3731719   0.4204123   0.7945555  )
        48        O      tau(  48) = (   0.1223503   0.0989699   1.1000566  )
        49        O      tau(  49) = (   0.1235438   0.6536772   1.0980598  )
        50        O      tau(  50) = (   0.4004339   0.4872435   1.1047245  )
        51        O      tau(  51) = (   0.1476543   0.0398268   0.7872561  )
        52        O      tau(  52) = (   0.3728637   0.9843360   0.7931368  )
        53        Ni     tau(  53) = (   0.2406075   0.8410745   0.4603118  )
        54        Mn     tau(  54) = (   0.4909555   0.7688210   0.1249907  )
        55        Ni     tau(  55) = (   0.0037414   0.2833427   0.4620755  )
        56        Ni     tau(  56) = (   0.2555676   0.2176485   0.1287398  )
        57        Ni     tau(  57) = (   0.4961657   1.0849810   0.2940889  )
        58        Ni     tau(  58) = (   0.2480854   0.5241915   0.2951494  )
        59        P      tau(  59) = (   0.2068565   0.9783721   0.1317154  )
        60        P      tau(  60) = (   0.4569549   0.6360871   0.4558210  )
        61        P      tau(  61) = (   0.2874467   0.0833574   0.4585952  )
        62        P      tau(  62) = (   0.0385452   0.4139702   0.1319017  )
        63        O      tau(  63) = (   0.1299291   0.9049669   0.2715327  )
        64        O      tau(  64) = (   0.3782317   0.7073639   0.3162425  )
        65        O      tau(  65) = (   0.3647389   0.1563669   0.3184411  )
        66        O      tau(  66) = (   0.1156313   0.3447757   0.2735959  )
        67        O      tau(  67) = (   0.1495437   0.8869933   0.0023366  )
        68        O      tau(  68) = (   0.3967062   0.7255047   0.5851804  )
        69        O      tau(  69) = (   0.3475634   0.1690300   0.5894443  )
        70        O      tau(  70) = (   0.0967469   0.3277190   0.0010856  )
        71        O      tau(  71) = (   0.0977236   0.5719706   0.1362794  )
        72        O      tau(  72) = (   0.3452514   1.0306297   0.4500300  )
        73        O      tau(  73) = (   0.3724256   0.4104926   0.1427328  )
        74        O      tau(  74) = (   0.1216040   0.0890503   0.4482339  )
        75        O      tau(  75) = (   0.1227974   0.6437575   0.4462371  )
        76        O      tau(  76) = (   0.3996875   0.4773239   0.4529018  )
        77        O      tau(  77) = (   0.1469079   0.0299071   0.1354334  )
        78        O      tau(  78) = (   0.3721173   0.9744163   0.1413141  )
        79        Ni     tau(  79) = (   0.7503448   0.8592094   1.7463632  )
        80        Mn     tau(  80) = (   0.9872971   0.7933476   1.4295363  )
        81        Ni     tau(  81) = (   0.4979646   0.3082874   1.7425819  )
        82        Ni     tau(  82) = (   0.7578558   0.2432444   1.4303909  )
        83        Ni     tau(  83) = (   0.9978877   1.1049697   1.6005729  )
        84        Ni     tau(  84) = (   0.7517688   0.5502669   1.5982123  )
        85        P      tau(  85) = (   0.7086164   1.0024684   1.4323347  )
        86        P      tau(  86) = (   0.9608587   0.6587254   1.7669171  )
        87        P      tau(  87) = (   0.7853186   0.1123438   1.7615591  )
        88        P      tau(  88) = (   0.5402593   0.4436461   1.4299959  )
        89        O      tau(  89) = (   0.6336250   0.9299726   1.5717212  )
        90        O      tau(  90) = (   0.8855214   0.7268460   1.6205628  )
        91        O      tau(  91) = (   0.8638479   0.1737568   1.6123671  )
        92        O      tau(  92) = (   0.6187851   0.3726638   1.5694972  )
        93        O      tau(  93) = (   0.6499804   0.9114421   1.3038010  )
        94        O      tau(  94) = (   0.8956097   0.7537924   1.8860885  )
        95        O      tau(  95) = (   0.8474504   0.2119799   1.8776314  )
        96        O      tau(  96) = (   0.6006963   0.3549684   1.3012062  )
        97        O      tau(  97) = (   0.6002576   0.6021520   1.4346509  )
        98        O      tau(  98) = (   0.8385044   1.0568597   1.7610063  )
        99        O      tau(  99) = (   0.8744145   0.4373900   1.4436920  )
       100        O      tau( 100) = (   0.6180356   0.1193672   1.7459243  )
       101        O      tau( 101) = (   0.6301005   0.6707638   1.7450210  )
       102        O      tau( 102) = (   0.9037180   0.4985801   1.7585357  )
       103        O      tau( 103) = (   0.6488284   0.0538192   1.4351739  )
       104        O      tau( 104) = (   0.8752493   0.9934614   1.4449032  )
       105        Ni     tau( 105) = (   0.7413539   0.8509941   1.1121345  )
       106        Mn     tau( 106) = (   0.9917018   0.7787406   0.7768134  )
       107        Ni     tau( 107) = (   0.5044877   0.2932623   1.1138982  )
       108        Ni     tau( 108) = (   0.7563139   0.2275682   0.7805625  )
       109        Ni     tau( 109) = (   0.9969120   1.0949007   0.9459116  )
       110        Ni     tau( 110) = (   0.7488318   0.5341111   0.9469721  )
       111        P      tau( 111) = (   0.7076029   0.9882917   0.7835381  )
       112        P      tau( 112) = (   0.9577012   0.6460068   1.1076436  )
       113        P      tau( 113) = (   0.7881931   0.0932770   1.1104179  )
       114        P      tau( 114) = (   0.5392916   0.4238898   0.7837243  )
       115        O      tau( 115) = (   0.6306755   0.9148866   0.9233554  )
       116        O      tau( 116) = (   0.8789780   0.7172835   0.9680652  )
       117        O      tau( 117) = (   0.8654852   0.1662865   0.9702638  )
       118        O      tau( 118) = (   0.6163776   0.3546954   0.9254186  )
       119        O      tau( 119) = (   0.6502901   0.8969129   0.6541592  )
       120        O      tau( 120) = (   0.8974525   0.7354243   1.2370031  )
       121        O      tau( 121) = (   0.8483097   0.1789497   1.2412670  )
       122        O      tau( 122) = (   0.5974932   0.3376387   0.6529083  )
       123        O      tau( 123) = (   0.5984699   0.5818903   0.7881021  )
       124        O      tau( 124) = (   0.8459978   1.0405493   1.1018526  )
       125        O      tau( 125) = (   0.8731719   0.4204123   0.7945555  )
       126        O      tau( 126) = (   0.6223503   0.0989699   1.1000566  )
       127        O      tau( 127) = (   0.6235438   0.6536772   1.0980598  )
       128        O      tau( 128) = (   0.9004339   0.4872435   1.1047245  )
       129        O      tau( 129) = (   0.6476543   0.0398268   0.7872561  )
       130        O      tau( 130) = (   0.8728637   0.9843360   0.7931368  )
       131        Ni     tau( 131) = (   0.7406075   0.8410745   0.4603118  )
       132        Mn     tau( 132) = (   0.9909555   0.7688210   0.1249907  )
       133        Ni     tau( 133) = (   0.5037414   0.2833427   0.4620755  )
       134        Ni     tau( 134) = (   0.7555676   0.2176485   0.1287398  )
       135        Ni     tau( 135) = (   0.9961657   1.0849810   0.2940889  )
       136        Ni     tau( 136) = (   0.7480854   0.5241915   0.2951494  )
       137        P      tau( 137) = (   0.7068565   0.9783721   0.1317154  )
       138        P      tau( 138) = (   0.9569549   0.6360871   0.4558210  )
       139        P      tau( 139) = (   0.7874467   0.0833574   0.4585952  )
       140        P      tau( 140) = (   0.5385452   0.4139702   0.1319017  )
       141        O      tau( 141) = (   0.6299291   0.9049669   0.2715327  )
       142        O      tau( 142) = (   0.8782317   0.7073639   0.3162425  )
       143        O      tau( 143) = (   0.8647389   0.1563669   0.3184411  )
       144        O      tau( 144) = (   0.6156313   0.3447757   0.2735959  )
       145        O      tau( 145) = (   0.6495437   0.8869933   0.0023366  )
       146        O      tau( 146) = (   0.8967062   0.7255047   0.5851804  )
       147        O      tau( 147) = (   0.8475634   0.1690300   0.5894443  )
       148        O      tau( 148) = (   0.5967469   0.3277190   0.0010856  )
       149        O      tau( 149) = (   0.5977236   0.5719706   0.1362794  )
       150        O      tau( 150) = (   0.8452514   1.0306297   0.4500300  )
       151        O      tau( 151) = (   0.8724256   0.4104926   0.1427328  )
       152        O      tau( 152) = (   0.6216040   0.0890503   0.4482339  )
       153        O      tau( 153) = (   0.6227974   0.6437575   0.4462371  )
       154        O      tau( 154) = (   0.8996875   0.4773239   0.4529018  )
       155        O      tau( 155) = (   0.6469079   0.0299071   0.1354334  )
       156        O      tau( 156) = (   0.8721173   0.9744163   0.1413141  )
       157        O      tau( 157) = (   1.1200851   0.9534950   1.9086669  )
       158        H      tau( 158) = (   1.0374101   0.8912555   1.9356829  )

     -------------------------------------------------
     Parameters for Dispersion (Grimme-D2) Correction:
     -------------------------------------------------
       atom      VdW radius       C_6     

        Ni         2.952        374.666
        Mn         2.952        374.666
        P          3.222        271.980
        O          2.536         24.284
        H          1.892          4.857

     number of k points=     1  Gaussian smearing, width (Ry)=  0.0100
                       cart. coord. in units 2pi/alat
        k(    1) = (   0.0000000   0.0000000   0.0000000), wk =   1.0000000

     Dense  grid:  1938023 G-vectors     FFT dimensions: ( 125, 144, 450)

     Smooth grid:   490328 G-vectors     FFT dimensions: (  80,  90, 288)

     Estimated max dynamical RAM per process >     326.29 MB

     Estimated total dynamical RAM >      20.39 GB

     Check: negative core charge=   -0.000001
     Generating pointlists ...
     new r_m :   0.0812 (alat units)  1.4132 (a.u.) for type    1
     new r_m :   0.0905 (alat units)  1.5755 (a.u.) for type    2
     new r_m :   0.0681 (alat units)  1.1855 (a.u.) for type    3
     new r_m :   0.0441 (alat units)  0.7679 (a.u.) for type    4
     new r_m :   0.0441 (alat units)  0.7679 (a.u.) for type    5

     Initial potential from superposition of free atoms

     starting charge    1092.8893, renormalised to    1093.0000

     negative rho (up, down):  1.397E-03 4.551E-04
 
     Adding external electric field

     Computed dipole along edir(3) : 
        Dipole                1.6517 Ry au,          4.1983 Debye
        Dipole field          0.0010 Ry au, 
 
        Potential amp.       -0.1115 Ry
        Total length         55.1515 bohr
 
 
     Adding external electric field

     Computed dipole along edir(3) : 
        Dipole                1.6517 Ry au,          4.1983 Debye
        Dipole field          0.0010 Ry au, 
 
        Potential amp.       -0.1115 Ry
        Total length         55.1515 bohr
 
     Starting wfcs are  815 randomized atomic wfcs

     total cpu time spent up to now is       10.4 secs

     Self-consistent Calculation

     iteration #  1     ecut=    50.00 Ry     beta= 0.10
     Davidson diagonalization with overlap
     ethr =  1.00E-02,  avg # of iterations =  6.0

     negative rho (up, down):  3.826E-01 3.189E-06
 
     Adding external electric field

     Computed dipole along edir(3) : 
        Dipole               -3.7105 Ry au,         -9.4312 Debye
        Dipole field         -0.0023 Ry au, 
 
        Potential amp.        0.2505 Ry
        Total length         55.1515 bohr
 
 
     Adding external electric field

     Computed dipole along edir(3) : 
        Dipole               -3.7105 Ry au,         -9.4312 Debye
        Dipole field         -0.0023 Ry au, 
 
        Potential amp.        0.2505 Ry
        Total length         55.1515 bohr
 

     total cpu time spent up to now is       38.9 secs

     total energy              =   -7517.99531459 Ry
     estimated scf accuracy    <     797.21735084 Ry

     total magnetization       =   219.00 Bohr mag/cell
     absolute magnetization    =   307.71 Bohr mag/cell

     iteration #  2     ecut=    50.00 Ry     beta= 0.10
     Davidson diagonalization with overlap
     ethr =  1.00E-02,  avg # of iterations =  2.0

     negative rho (up, down):  3.618E-01 2.034E-06
 
     Adding external electric field

     Computed dipole along edir(3) : 
        Dipole               -2.4809 Ry au,         -6.3059 Debye
        Dipole field         -0.0015 Ry au, 
 
        Potential amp.        0.1675 Ry
        Total length         55.1515 bohr
 
 
     Adding external electric field

     Computed dipole along edir(3) : 
        Dipole               -2.4809 Ry au,         -6.3059 Debye
        Dipole field         -0.0015 Ry au, 
 
        Potential amp.        0.1675 Ry
        Total length         55.1515 bohr
 

     total cpu time spent up to now is       56.2 secs

     total energy              =   -7600.60911103 Ry
     estimated scf accuracy    <     216.98111365 Ry

     total magnetization       =   158.52 Bohr mag/cell
     absolute magnetization    =   207.20 Bohr mag/cell

     iteration #  3     ecut=    50.00 Ry     beta= 0.10
     Davidson diagonalization with overlap
     ethr =  1.00E-02,  avg # of iterations =  1.5

     negative rho (up, down):  3.225E-01 2.170E-06
 
     Adding external electric field

     Computed dipole along edir(3) : 
        Dipole               -2.1285 Ry au,         -5.4102 Debye
        Dipole field         -0.0013 Ry au, 
 
        Potential amp.        0.1437 Ry
        Total length         55.1515 bohr
 
 
     Adding external electric field

     Computed dipole along edir(3) : 
        Dipole               -2.1285 Ry au,         -5.4102 Debye
        Dipole field         -0.0013 Ry au, 
 
        Potential amp.        0.1437 Ry
        Total length         55.1515 bohr
 

     total cpu time spent up to now is       69.5 secs

     total energy              =   -7630.45615988 Ry
     estimated scf accuracy    <     103.65786448 Ry

     total magnetization       =   134.91 Bohr mag/cell
     absolute magnetization    =   185.83 Bohr mag/cell

     iteration #  4     ecut=    50.00 Ry     beta= 0.10
     Davidson diagonalization with overlap
     ethr =  9.48E-03,  avg # of iterations =  1.5

     negative rho (up, down):  2.536E-01 8.837E-07
 
     Adding external electric field

     Computed dipole along edir(3) : 
        Dipole               -1.9765 Ry au,         -5.0238 Debye
        Dipole field         -0.0012 Ry au, 
 
        Potential amp.        0.1334 Ry
        Total length         55.1515 bohr
 
 
     Adding external electric field

     Computed dipole along edir(3) : 
        Dipole               -1.9765 Ry au,         -5.0238 Debye
        Dipole field         -0.0012 Ry au, 
 
        Potential amp.        0.1334 Ry
        Total length         55.1515 bohr
 

     total cpu time spent up to now is       82.3 secs

     total energy              =   -7662.76763185 Ry
     estimated scf accuracy    <      82.40746526 Ry

     total magnetization       =   119.27 Bohr mag/cell
     absolute magnetization    =   171.45 Bohr mag/cell

     iteration #  5     ecut=    50.00 Ry     beta= 0.10
     Davidson diagonalization with overlap
     ethr =  7.54E-03,  avg # of iterations =  1.0

     negative rho (up, down):  3.884E-02 2.470E-07
 
     Adding external electric field

     Computed dipole along edir(3) : 
        Dipole               -1.5612 Ry au,         -3.9682 Debye
        Dipole field         -0.0010 Ry au, 
 
        Potential amp.        0.1054 Ry
        Total length         55.1515 bohr
 
 
     Adding external electric field

     Computed dipole along edir(3) : 
        Dipole               -1.5612 Ry au,         -3.9682 Debye
        Dipole field         -0.0010 Ry au, 
 
        Potential amp.        0.1054 Ry
        Total length         55.1515 bohr
 

     total cpu time spent up to now is       95.2 secs

     total energy              =   -7721.56398332 Ry
     estimated scf accuracy    <      66.15101345 Ry

     total magnetization       =    97.41 Bohr mag/cell
     absolute magnetization    =   152.92 Bohr mag/cell

     iteration #  6     ecut=    50.00 Ry     beta= 0.10
     Davidson diagonalization with overlap
     ethr =  6.05E-03,  avg # of iterations =  1.0

     negative rho (up, down):  7.675E-04 1.176E-03
 
     Adding external electric field

     Computed dipole along edir(3) : 
        Dipole               -1.1802 Ry au,         -2.9998 Debye
        Dipole field         -0.0007 Ry au, 
 
        Potential amp.        0.0797 Ry
        Total length         55.1515 bohr
 
 
     Adding external electric field

     Computed dipole along edir(3) : 
        Dipole               -1.1802 Ry au,         -2.9998 Debye
        Dipole field         -0.0007 Ry au, 
 
        Potential amp.        0.0797 Ry
        Total length         55.1515 bohr
 

     total cpu time spent up to now is      107.0 secs

     total energy              =   -7735.81495640 Ry
     estimated scf accuracy    <      15.72956151 Ry

     total magnetization       =    91.00 Bohr mag/cell
     absolute magnetization    =   126.00 Bohr mag/cell

     iteration #  7     ecut=    50.00 Ry     beta= 0.10
     Davidson diagonalization with overlap
     ethr =  1.44E-03,  avg # of iterations =  6.0

     negative rho (up, down):  7.447E-04 1.158E-03
 
     Adding external electric field

     Computed dipole along edir(3) : 
        Dipole               -1.1813 Ry au,         -3.0026 Debye
        Dipole field         -0.0007 Ry au, 
 
        Potential amp.        0.0798 Ry
        Total length         55.1515 bohr
 
 
     Adding external electric field

     Computed dipole along edir(3) : 
        Dipole               -1.1813 Ry au,         -3.0026 Debye
        Dipole field         -0.0007 Ry au, 
 
        Potential amp.        0.0798 Ry
        Total length         55.1515 bohr
 

     total cpu time spent up to now is      128.2 secs

     total energy              =   -7738.22719630 Ry
     estimated scf accuracy    <      19.67684812 Ry

     total magnetization       =    70.71 Bohr mag/cell
     absolute magnetization    =    88.18 Bohr mag/cell

     iteration #  8     ecut=    50.00 Ry     beta= 0.10
     Davidson diagonalization with overlap
     ethr =  1.44E-03,  avg # of iterations =  1.0

     negative rho (up, down):  7.333E-04 1.128E-03
 
     Adding external electric field

     Computed dipole along edir(3) : 
        Dipole               -1.1810 Ry au,         -3.0017 Debye
        Dipole field         -0.0007 Ry au, 
 
        Potential amp.        0.0797 Ry
        Total length         55.1515 bohr
 
 
     Adding external electric field

     Computed dipole along edir(3) : 
        Dipole               -1.1810 Ry au,         -3.0017 Debye
        Dipole field         -0.0007 Ry au, 
 
        Potential amp.        0.0797 Ry
        Total length         55.1515 bohr
 

     total cpu time spent up to now is      140.2 secs

     total energy              =   -7738.27377528 Ry
     estimated scf accuracy    <      19.10179359 Ry

     total magnetization       =    70.88 Bohr mag/cell
     absolute magnetization    =    87.83 Bohr mag/cell

     iteration #  9     ecut=    50.00 Ry     beta= 0.10
     Davidson diagonalization with overlap
     ethr =  1.44E-03,  avg # of iterations =  1.0

     negative rho (up, down):  6.064E-04 1.047E-03
 
     Adding external electric field

     Computed dipole along edir(3) : 
        Dipole               -1.1864 Ry au,         -3.0156 Debye
        Dipole field         -0.0007 Ry au, 
 
        Potential amp.        0.0801 Ry
        Total length         55.1515 bohr
 
 
     Adding external electric field

     Computed dipole along edir(3) : 
        Dipole               -1.1864 Ry au,         -3.0156 Debye
        Dipole field         -0.0007 Ry au, 
 
        Potential amp.        0.0801 Ry
        Total length         55.1515 bohr
 

     total cpu time spent up to now is      151.8 secs

     total energy              =   -7737.99732923 Ry
     estimated scf accuracy    <      18.78742760 Ry

     total magnetization       =    70.95 Bohr mag/cell
     absolute magnetization    =    87.56 Bohr mag/cell

     iteration # 10     ecut=    50.00 Ry     beta= 0.10
     Davidson diagonalization with overlap
     ethr =  1.44E-03,  avg # of iterations =  1.0

     negative rho (up, down):  5.873E-04 1.089E-03
 
     Adding external electric field

     Computed dipole along edir(3) : 
        Dipole               -1.2186 Ry au,         -3.0974 Debye
        Dipole field         -0.0007 Ry au, 
 
        Potential amp.        0.0823 Ry
        Total length         55.1515 bohr
 
 
     Adding external electric field

     Computed dipole along edir(3) : 
        Dipole               -1.2186 Ry au,         -3.0974 Debye
        Dipole field         -0.0007 Ry au, 
 
        Potential amp.        0.0823 Ry
        Total length         55.1515 bohr
 

     total cpu time spent up to now is      163.2 secs

     total energy              =   -7737.87105581 Ry
     estimated scf accuracy    <      13.52680905 Ry

     total magnetization       =    72.99 Bohr mag/cell
     absolute magnetization    =    87.62 Bohr mag/cell

     iteration # 11     ecut=    50.00 Ry     beta= 0.10
     Davidson diagonalization with overlap
     ethr =  1.24E-03,  avg # of iterations =  1.5

     negative rho (up, down):  4.129E-04 1.125E-03
 
     Adding external electric field

     Computed dipole along edir(3) : 
        Dipole               -1.1961 Ry au,         -3.0401 Debye
        Dipole field         -0.0007 Ry au, 
 
        Potential amp.        0.0808 Ry
        Total length         55.1515 bohr
 
 
     Adding external electric field

     Computed dipole along edir(3) : 
        Dipole               -1.1961 Ry au,         -3.0401 Debye
        Dipole field         -0.0007 Ry au, 
 
        Potential amp.        0.0808 Ry
        Total length         55.1515 bohr
 

     total cpu time spent up to now is      175.1 secs

     total energy              =   -7737.92843077 Ry
     estimated scf accuracy    <       6.52085217 Ry

     total magnetization       =    78.86 Bohr mag/cell
     absolute magnetization    =    91.33 Bohr mag/cell

     iteration # 12     ecut=    50.00 Ry     beta= 0.10
     Davidson diagonalization with overlap
     ethr =  5.97E-04,  avg # of iterations =  1.5

     negative rho (up, down):  1.791E-04 7.136E-04
 
     Adding external electric field

     Computed dipole along edir(3) : 
        Dipole               -1.1859 Ry au,         -3.0143 Debye
        Dipole field         -0.0007 Ry au, 
 
        Potential amp.        0.0801 Ry
        Total length         55.1515 bohr
 
 
     Adding external electric field

     Computed dipole along edir(3) : 
        Dipole               -1.1859 Ry au,         -3.0143 Debye
        Dipole field         -0.0007 Ry au, 
 
        Potential amp.        0.0801 Ry
        Total length         55.1515 bohr
 

     total cpu time spent up to now is      187.7 secs

     total energy              =   -7737.93814120 Ry
     estimated scf accuracy    <       5.61841835 Ry

     total magnetization       =    78.69 Bohr mag/cell
     absolute magnetization    =    90.53 Bohr mag/cell

     iteration # 13     ecut=    50.00 Ry     beta= 0.10
     Davidson diagonalization with overlap
     ethr =  5.14E-04,  avg # of iterations =  1.5

     negative rho (up, down):  1.614E-04 1.051E-03
 
     Adding external electric field

     Computed dipole along edir(3) : 
        Dipole               -1.1900 Ry au,         -3.0246 Debye
        Dipole field         -0.0007 Ry au, 
 
        Potential amp.        0.0803 Ry
        Total length         55.1515 bohr
 
 
     Adding external electric field

     Computed dipole along edir(3) : 
        Dipole               -1.1900 Ry au,         -3.0246 Debye
        Dipole field         -0.0007 Ry au, 
 
        Potential amp.        0.0803 Ry
        Total length         55.1515 bohr
 

     total cpu time spent up to now is      199.4 secs

     total energy              =   -7737.99497239 Ry
     estimated scf accuracy    <       2.75831209 Ry

     total magnetization       =    82.28 Bohr mag/cell
     absolute magnetization    =    92.30 Bohr mag/cell

     iteration # 14     ecut=    50.00 Ry     beta= 0.10
     Davidson diagonalization with overlap
     ethr =  2.52E-04,  avg # of iterations =  1.5

     negative rho (up, down):  4.445E-04 1.402E-03
 
     Adding external electric field

     Computed dipole along edir(3) : 
        Dipole               -1.2534 Ry au,         -3.1859 Debye
        Dipole field         -0.0008 Ry au, 
 
        Potential amp.        0.0846 Ry
        Total length         55.1515 bohr
 
 
     Adding external electric field

     Computed dipole along edir(3) : 
        Dipole               -1.2534 Ry au,         -3.1859 Debye
        Dipole field         -0.0008 Ry au, 
 
        Potential amp.        0.0846 Ry
        Total length         55.1515 bohr
 

     total cpu time spent up to now is      210.8 secs

     total energy              =   -7738.03177749 Ry
     estimated scf accuracy    <       3.30374658 Ry

     total magnetization       =    80.24 Bohr mag/cell
     absolute magnetization    =    89.63 Bohr mag/cell

     iteration # 15     ecut=    50.00 Ry     beta= 0.10
     Davidson diagonalization with overlap
     ethr =  2.52E-04,  avg # of iterations =  1.5

     negative rho (up, down):  3.470E-04 1.689E-03
 
     Adding external electric field

     Computed dipole along edir(3) : 
        Dipole               -1.2206 Ry au,         -3.1024 Debye
        Dipole field         -0.0007 Ry au, 
 
        Potential amp.        0.0824 Ry
        Total length         55.1515 bohr
 
 
     Adding external electric field

     Computed dipole along edir(3) : 
        Dipole               -1.2206 Ry au,         -3.1024 Debye
        Dipole field         -0.0007 Ry au, 
 
        Potential amp.        0.0824 Ry
        Total length         55.1515 bohr
 

     total cpu time spent up to now is      223.5 secs

     total energy              =   -7738.17612713 Ry
     estimated scf accuracy    <       0.46985801 Ry

     total magnetization       =    89.80 Bohr mag/cell
     absolute magnetization    =    95.30 Bohr mag/cell

     iteration # 16     ecut=    50.00 Ry     beta= 0.10
     Davidson diagonalization with overlap
     ethr =  4.30E-05,  avg # of iterations = 10.0

     negative rho (up, down):  3.202E-04 1.981E-03
 
     Adding external electric field

     Computed dipole along edir(3) : 
        Dipole               -1.1851 Ry au,         -3.0123 Debye
        Dipole field         -0.0007 Ry au, 
 
        Potential amp.        0.0800 Ry
        Total length         55.1515 bohr
 
 
     Adding external electric field

     Computed dipole along edir(3) : 
        Dipole               -1.1851 Ry au,         -3.0123 Debye
        Dipole field         -0.0007 Ry au, 
 
        Potential amp.        0.0800 Ry
        Total length         55.1515 bohr
 

     total cpu time spent up to now is      243.4 secs

     total energy              =   -7738.19602742 Ry
     estimated scf accuracy    <       0.32391694 Ry

     total magnetization       =    88.98 Bohr mag/cell
     absolute magnetization    =    93.45 Bohr mag/cell

     iteration # 17     ecut=    50.00 Ry     beta= 0.10
     Davidson diagonalization with overlap
     ethr =  2.96E-05,  avg # of iterations =  1.5

     negative rho (up, down):  1.957E-04 1.118E-03
 
     Adding external electric field

     Computed dipole along edir(3) : 
        Dipole               -1.1040 Ry au,         -2.8062 Debye
        Dipole field         -0.0007 Ry au, 
 
        Potential amp.        0.0745 Ry
        Total length         55.1515 bohr
 
 
     Adding external electric field

     Computed dipole along edir(3) : 
        Dipole               -1.1040 Ry au,         -2.8062 Debye
        Dipole field         -0.0007 Ry au, 
 
        Potential amp.        0.0745 Ry
        Total length         55.1515 bohr
 

     total cpu time spent up to now is      254.3 secs

     total energy              =   -7738.27576122 Ry
     estimated scf accuracy    <       0.20245559 Ry

     total magnetization       =    88.24 Bohr mag/cell
     absolute magnetization    =    91.62 Bohr mag/cell

     iteration # 18     ecut=    50.00 Ry     beta= 0.10
     Davidson diagonalization with overlap
     c_bands:  3 eigenvalues not converged
     ethr =  1.85E-05,  avg # of iterations = 11.0

     negative rho (up, down):  2.042E-04 6.919E-04
 
     Adding external electric field

     Computed dipole along edir(3) : 
        Dipole               -1.0527 Ry au,         -2.6757 Debye
        Dipole field         -0.0006 Ry au, 
 
        Potential amp.        0.0711 Ry
        Total length         55.1515 bohr
 
 
     Adding external electric field

     Computed dipole along edir(3) : 
        Dipole               -1.0527 Ry au,         -2.6757 Debye
        Dipole field         -0.0006 Ry au, 
 
        Potential amp.        0.0711 Ry
        Total length         55.1515 bohr
 

     total cpu time spent up to now is      274.8 secs

     total energy              =   -7738.31378555 Ry
     estimated scf accuracy    <       0.18717017 Ry

     total magnetization       =    87.81 Bohr mag/cell
     absolute magnetization    =    90.25 Bohr mag/cell

     iteration # 19     ecut=    50.00 Ry     beta= 0.10
     Davidson diagonalization with overlap
     ethr =  1.71E-05,  avg # of iterations =  1.5

     negative rho (up, down):  1.633E-04 6.881E-04
 
     Adding external electric field

     Computed dipole along edir(3) : 
        Dipole               -1.0430 Ry au,         -2.6510 Debye
        Dipole field         -0.0006 Ry au, 
 
        Potential amp.        0.0704 Ry
        Total length         55.1515 bohr
 
 
     Adding external electric field

     Computed dipole along edir(3) : 
        Dipole               -1.0430 Ry au,         -2.6510 Debye
        Dipole field         -0.0006 Ry au, 
 
        Potential amp.        0.0704 Ry
        Total length         55.1515 bohr
 

     total cpu time spent up to now is      286.7 secs

     total energy              =   -7738.31676306 Ry
     estimated scf accuracy    <       0.15909982 Ry

     total magnetization       =    88.18 Bohr mag/cell
     absolute magnetization    =    89.92 Bohr mag/cell

     iteration # 20     ecut=    50.00 Ry     beta= 0.10
     Davidson diagonalization with overlap
     ethr =  1.46E-05,  avg # of iterations =  1.0

     negative rho (up, down):  1.180E-04 4.756E-05
 
     Adding external electric field

     Computed dipole along edir(3) : 
        Dipole               -0.9711 Ry au,         -2.4684 Debye
        Dipole field         -0.0006 Ry au, 
 
        Potential amp.        0.0656 Ry
        Total length         55.1515 bohr
 
 
     Adding external electric field

     Computed dipole along edir(3) : 
        Dipole               -0.9711 Ry au,         -2.4684 Debye
        Dipole field         -0.0006 Ry au, 
 
        Potential amp.        0.0656 Ry
        Total length         55.1515 bohr
 

     total cpu time spent up to now is      297.1 secs

     total energy              =   -7738.31857531 Ry
     estimated scf accuracy    <       0.11306887 Ry

     total magnetization       =    88.09 Bohr mag/cell
     absolute magnetization    =    89.72 Bohr mag/cell

     iteration # 21     ecut=    50.00 Ry     beta= 0.10
     Davidson diagonalization with overlap
     ethr =  1.03E-05,  avg # of iterations =  2.0

     negative rho (up, down):  3.585E-05 1.434E-05
 
     Adding external electric field

     Computed dipole along edir(3) : 
        Dipole               -0.9227 Ry au,         -2.3453 Debye
        Dipole field         -0.0006 Ry au, 
 
        Potential amp.        0.0623 Ry
        Total length         55.1515 bohr
 
 
     Adding external electric field

     Computed dipole along edir(3) : 
        Dipole               -0.9227 Ry au,         -2.3453 Debye
        Dipole field         -0.0006 Ry au, 
 
        Potential amp.        0.0623 Ry
        Total length         55.1515 bohr
 

     total cpu time spent up to now is      309.5 secs

     total energy              =   -7738.32152319 Ry
     estimated scf accuracy    <       0.04949302 Ry

     total magnetization       =    88.87 Bohr mag/cell
     absolute magnetization    =    90.19 Bohr mag/cell

     iteration # 22     ecut=    50.00 Ry     beta= 0.10
     Davidson diagonalization with overlap
     ethr =  4.53E-06,  avg # of iterations =  2.0

     negative rho (up, down):  3.760E-05 8.198E-06
 
     Adding external electric field

     Computed dipole along edir(3) : 
        Dipole               -0.9127 Ry au,         -2.3199 Debye
        Dipole field         -0.0006 Ry au, 
 
        Potential amp.        0.0616 Ry
        Total length         55.1515 bohr
 
 
     Adding external electric field

     Computed dipole along edir(3) : 
        Dipole               -0.9127 Ry au,         -2.3199 Debye
        Dipole field         -0.0006 Ry au, 
 
        Potential amp.        0.0616 Ry
        Total length         55.1515 bohr
 

     total cpu time spent up to now is      321.4 secs

     total energy              =   -7738.32175443 Ry
     estimated scf accuracy    <       0.03822495 Ry

     total magnetization       =    88.63 Bohr mag/cell
     absolute magnetization    =    89.89 Bohr mag/cell

     iteration # 23     ecut=    50.00 Ry     beta= 0.10
     Davidson diagonalization with overlap
     ethr =  3.50E-06,  avg # of iterations =  2.0

     negative rho (up, down):  2.728E-05 8.440E-06
 
     Adding external electric field

     Computed dipole along edir(3) : 
        Dipole               -0.8911 Ry au,         -2.2648 Debye
        Dipole field         -0.0005 Ry au, 
 
        Potential amp.        0.0602 Ry
        Total length         55.1515 bohr
 
 
     Adding external electric field

     Computed dipole along edir(3) : 
        Dipole               -0.8911 Ry au,         -2.2648 Debye
        Dipole field         -0.0005 Ry au, 
 
        Potential amp.        0.0602 Ry
        Total length         55.1515 bohr
 

     total cpu time spent up to now is      333.0 secs

     total energy              =   -7738.32200948 Ry
     estimated scf accuracy    <       0.04811169 Ry

     total magnetization       =    88.85 Bohr mag/cell
     absolute magnetization    =    90.10 Bohr mag/cell

     iteration # 24     ecut=    50.00 Ry     beta= 0.10
     Davidson diagonalization with overlap
     c_bands:  1 eigenvalues not converged
     ethr =  3.50E-06,  avg # of iterations = 11.0

     negative rho (up, down):  6.113E-06 1.244E-05
 
     Adding external electric field

     Computed dipole along edir(3) : 
        Dipole               -0.8492 Ry au,         -2.1585 Debye
        Dipole field         -0.0005 Ry au, 
 
        Potential amp.        0.0573 Ry
        Total length         55.1515 bohr
 
 
     Adding external electric field

     Computed dipole along edir(3) : 
        Dipole               -0.8492 Ry au,         -2.1585 Debye
        Dipole field         -0.0005 Ry au, 
 
        Potential amp.        0.0573 Ry
        Total length         55.1515 bohr
 

     total cpu time spent up to now is      349.7 secs

     total energy              =   -7738.32128958 Ry
     estimated scf accuracy    <       0.05446105 Ry

     total magnetization       =    88.89 Bohr mag/cell
     absolute magnetization    =    90.12 Bohr mag/cell

     iteration # 25     ecut=    50.00 Ry     beta= 0.10
     Davidson diagonalization with overlap
     ethr =  3.50E-06,  avg # of iterations =  8.0

     negative rho (up, down):  2.383E-06 9.082E-06
 
     Adding external electric field

     Computed dipole along edir(3) : 
        Dipole               -0.7378 Ry au,         -1.8754 Debye
        Dipole field         -0.0005 Ry au, 
 
        Potential amp.        0.0498 Ry
        Total length         55.1515 bohr
 
 
     Adding external electric field

     Computed dipole along edir(3) : 
        Dipole               -0.7378 Ry au,         -1.8754 Debye
        Dipole field         -0.0005 Ry au, 
 
        Potential amp.        0.0498 Ry
        Total length         55.1515 bohr
 

     total cpu time spent up to now is      364.6 secs

     total energy              =   -7738.31983801 Ry
     estimated scf accuracy    <       0.03161506 Ry

     total magnetization       =    88.51 Bohr mag/cell
     absolute magnetization    =    89.74 Bohr mag/cell

     iteration # 26     ecut=    50.00 Ry     beta= 0.10
     Davidson diagonalization with overlap
     c_bands:  1 eigenvalues not converged
     ethr =  2.89E-06,  avg # of iterations = 11.0

     negative rho (up, down):  2.823E-06 1.409E-05
 
     Adding external electric field

     Computed dipole along edir(3) : 
        Dipole               -0.7511 Ry au,         -1.9091 Debye
        Dipole field         -0.0005 Ry au, 
 
        Potential amp.        0.0507 Ry
        Total length         55.1515 bohr
 
 
     Adding external electric field

     Computed dipole along edir(3) : 
        Dipole               -0.7511 Ry au,         -1.9091 Debye
        Dipole field         -0.0005 Ry au, 
 
        Potential amp.        0.0507 Ry
        Total length         55.1515 bohr
 

     total cpu time spent up to now is      382.6 secs

     total energy              =   -7738.32008430 Ry
     estimated scf accuracy    <       0.04111324 Ry

     total magnetization       =    88.25 Bohr mag/cell
     absolute magnetization    =    89.54 Bohr mag/cell

     iteration # 27     ecut=    50.00 Ry     beta= 0.10
     Davidson diagonalization with overlap
     ethr =  2.89E-06,  avg # of iterations =  2.0

     negative rho (up, down):  6.498E-06 1.855E-05
 
     Adding external electric field

     Computed dipole along edir(3) : 
        Dipole               -0.7825 Ry au,         -1.9888 Debye
        Dipole field         -0.0005 Ry au, 
 
        Potential amp.        0.0528 Ry
        Total length         55.1515 bohr
 
 
     Adding external electric field

     Computed dipole along edir(3) : 
        Dipole               -0.7825 Ry au,         -1.9888 Debye
        Dipole field         -0.0005 Ry au, 
 
        Potential amp.        0.0528 Ry
        Total length         55.1515 bohr
 

     total cpu time spent up to now is      395.0 secs

     total energy              =   -7738.32019845 Ry
     estimated scf accuracy    <       0.04432283 Ry

     total magnetization       =    88.23 Bohr mag/cell
     absolute magnetization    =    89.51 Bohr mag/cell

     iteration # 28     ecut=    50.00 Ry     beta= 0.10
     Davidson diagonalization with overlap
     ethr =  2.89E-06,  avg # of iterations =  2.0

     negative rho (up, down):  4.970E-06 2.412E-05
 
     Adding external electric field

     Computed dipole along edir(3) : 
        Dipole               -0.7750 Ry au,         -1.9697 Debye
        Dipole field         -0.0005 Ry au, 
 
        Potential amp.        0.0523 Ry
        Total length         55.1515 bohr
 
 
     Adding external electric field

     Computed dipole along edir(3) : 
        Dipole               -0.7750 Ry au,         -1.9697 Debye
        Dipole field         -0.0005 Ry au, 
 
        Potential amp.        0.0523 Ry
        Total length         55.1515 bohr
 

     total cpu time spent up to now is      407.2 secs

     total energy              =   -7738.31978023 Ry
     estimated scf accuracy    <       0.04616894 Ry

     total magnetization       =    88.24 Bohr mag/cell
     absolute magnetization    =    89.45 Bohr mag/cell

     iteration # 29     ecut=    50.00 Ry     beta= 0.10
     Davidson diagonalization with overlap
     ethr =  2.89E-06,  avg # of iterations =  1.5

     negative rho (up, down):  6.765E-06 2.816E-05
 
     Adding external electric field

     Computed dipole along edir(3) : 
        Dipole               -0.7467 Ry au,         -1.8980 Debye
        Dipole field         -0.0005 Ry au, 
 
        Potential amp.        0.0504 Ry
        Total length         55.1515 bohr
 
 
     Adding external electric field

     Computed dipole along edir(3) : 
        Dipole               -0.7467 Ry au,         -1.8980 Debye
        Dipole field         -0.0005 Ry au, 
 
        Potential amp.        0.0504 Ry
        Total length         55.1515 bohr
 

     total cpu time spent up to now is      419.0 secs

     total energy              =   -7738.31925811 Ry
     estimated scf accuracy    <       0.03548194 Ry

     total magnetization       =    88.30 Bohr mag/cell
     absolute magnetization    =    89.52 Bohr mag/cell

     iteration # 30     ecut=    50.00 Ry     beta= 0.10
     Davidson diagonalization with overlap
     ethr =  2.89E-06,  avg # of iterations =  2.0

     negative rho (up, down):  5.001E-06 1.700E-05
 
     Adding external electric field

     Computed dipole along edir(3) : 
        Dipole               -0.8298 Ry au,         -2.1090 Debye
        Dipole field         -0.0005 Ry au, 
 
        Potential amp.        0.0560 Ry
        Total length         55.1515 bohr
 
 
     Adding external electric field

     Computed dipole along edir(3) : 
        Dipole               -0.8298 Ry au,         -2.1090 Debye
        Dipole field         -0.0005 Ry au, 
 
        Potential amp.        0.0560 Ry
        Total length         55.1515 bohr
 

     total cpu time spent up to now is      431.3 secs

     total energy              =   -7738.32131546 Ry
     estimated scf accuracy    <       0.03577682 Ry

     total magnetization       =    88.32 Bohr mag/cell
     absolute magnetization    =    89.52 Bohr mag/cell

     iteration # 31     ecut=    50.00 Ry     beta= 0.10
     Davidson diagonalization with overlap
     ethr =  2.89E-06,  avg # of iterations =  2.0

     negative rho (up, down):  5.187E-06 1.265E-05
 
     Adding external electric field

     Computed dipole along edir(3) : 
        Dipole               -0.7420 Ry au,         -1.8859 Debye
        Dipole field         -0.0005 Ry au, 
 
        Potential amp.        0.0501 Ry
        Total length         55.1515 bohr
 
 
     Adding external electric field

     Computed dipole along edir(3) : 
        Dipole               -0.7420 Ry au,         -1.8859 Debye
        Dipole field         -0.0005 Ry au, 
 
        Potential amp.        0.0501 Ry
        Total length         55.1515 bohr
 

     total cpu time spent up to now is      444.0 secs

     total energy              =   -7738.32033989 Ry
     estimated scf accuracy    <       0.03338523 Ry

     total magnetization       =    88.40 Bohr mag/cell
     absolute magnetization    =    89.68 Bohr mag/cell

     iteration # 32     ecut=    50.00 Ry     beta= 0.10
     Davidson diagonalization with overlap
     ethr =  2.89E-06,  avg # of iterations =  2.0

     negative rho (up, down):  1.251E-05 2.283E-05
 
     Adding external electric field

     Computed dipole along edir(3) : 
        Dipole               -0.6736 Ry au,         -1.7120 Debye
        Dipole field         -0.0004 Ry au, 
 
        Potential amp.        0.0455 Ry
        Total length         55.1515 bohr
 
 
     Adding external electric field

     Computed dipole along edir(3) : 
        Dipole               -0.6736 Ry au,         -1.7120 Debye
        Dipole field         -0.0004 Ry au, 
 
        Potential amp.        0.0455 Ry
        Total length         55.1515 bohr
 

     total cpu time spent up to now is      456.2 secs

     total energy              =   -7738.31966477 Ry
     estimated scf accuracy    <       0.03364909 Ry

     total magnetization       =    88.47 Bohr mag/cell
     absolute magnetization    =    89.73 Bohr mag/cell

     iteration # 33     ecut=    50.00 Ry     beta= 0.10
     Davidson diagonalization with overlap
     ethr =  2.89E-06,  avg # of iterations =  2.0

     negative rho (up, down):  1.329E-04 2.343E-04
 
     Adding external electric field

     Computed dipole along edir(3) : 
        Dipole               -0.5445 Ry au,         -1.3840 Debye
        Dipole field         -0.0003 Ry au, 
 
        Potential amp.        0.0368 Ry
        Total length         55.1515 bohr
 
 
     Adding external electric field

     Computed dipole along edir(3) : 
        Dipole               -0.5445 Ry au,         -1.3840 Debye
        Dipole field         -0.0003 Ry au, 
 
        Potential amp.        0.0368 Ry
        Total length         55.1515 bohr
 

     total cpu time spent up to now is      469.2 secs

     total energy              =   -7738.31840219 Ry
     estimated scf accuracy    <       0.02682002 Ry

     total magnetization       =    88.44 Bohr mag/cell
     absolute magnetization    =    89.71 Bohr mag/cell

     iteration # 34     ecut=    50.00 Ry     beta= 0.10
     Davidson diagonalization with overlap
     c_bands:  4 eigenvalues not converged
     ethr =  2.45E-06,  avg # of iterations = 22.0

     negative rho (up, down):  2.204E-04 3.859E-04
 
     Adding external electric field

     Computed dipole along edir(3) : 
        Dipole               -0.5099 Ry au,         -1.2961 Debye
        Dipole field         -0.0003 Ry au, 
 
        Potential amp.        0.0344 Ry
        Total length         55.1515 bohr
 
 
     Adding external electric field

     Computed dipole along edir(3) : 
        Dipole               -0.5099 Ry au,         -1.2961 Debye
        Dipole field         -0.0003 Ry au, 
 
        Potential amp.        0.0344 Ry
        Total length         55.1515 bohr
 

     total cpu time spent up to now is      499.2 secs

     total energy              =   -7738.31846110 Ry
     estimated scf accuracy    <       0.01564566 Ry

     total magnetization       =    88.47 Bohr mag/cell
     absolute magnetization    =    89.81 Bohr mag/cell

     iteration # 35     ecut=    50.00 Ry     beta= 0.10
     Davidson diagonalization with overlap
     ethr =  1.43E-06,  avg # of iterations =  2.5

     negative rho (up, down):  5.590E-05 1.678E-04
 
     Adding external electric field

     Computed dipole along edir(3) : 
        Dipole               -0.5321 Ry au,         -1.3523 Debye
        Dipole field         -0.0003 Ry au, 
 
        Potential amp.        0.0359 Ry
        Total length         55.1515 bohr
 
 
     Adding external electric field

     Computed dipole along edir(3) : 
        Dipole               -0.5321 Ry au,         -1.3523 Debye
        Dipole field         -0.0003 Ry au, 
 
        Potential amp.        0.0359 Ry
        Total length         55.1515 bohr
 

     total cpu time spent up to now is      512.2 secs

     total energy              =   -7738.31767603 Ry
     estimated scf accuracy    <       0.01463589 Ry

     total magnetization       =    88.48 Bohr mag/cell
     absolute magnetization    =    89.83 Bohr mag/cell

     iteration # 36     ecut=    50.00 Ry     beta= 0.10
     Davidson diagonalization with overlap
     ethr =  1.34E-06,  avg # of iterations =  2.0

     negative rho (up, down):  3.894E-05 1.609E-04
 
     Adding external electric field

     Computed dipole along edir(3) : 
        Dipole               -0.4177 Ry au,         -1.0616 Debye
        Dipole field         -0.0003 Ry au, 
 
        Potential amp.        0.0282 Ry
        Total length         55.1515 bohr
 
 
     Adding external electric field

     Computed dipole along edir(3) : 
        Dipole               -0.4177 Ry au,         -1.0616 Debye
        Dipole field         -0.0003 Ry au, 
 
        Potential amp.        0.0282 Ry
        Total length         55.1515 bohr
 

     total cpu time spent up to now is      524.5 secs

     total energy              =   -7738.31634833 Ry
     estimated scf accuracy    <       0.01149210 Ry

     total magnetization       =    88.42 Bohr mag/cell
     absolute magnetization    =    89.84 Bohr mag/cell

     iteration # 37     ecut=    50.00 Ry     beta= 0.10
     Davidson diagonalization with overlap
     ethr =  1.05E-06,  avg # of iterations =  2.0

     negative rho (up, down):  3.879E-05 1.652E-04
 
     Adding external electric field

     Computed dipole along edir(3) : 
        Dipole               -0.3851 Ry au,         -0.9787 Debye
        Dipole field         -0.0002 Ry au, 
 
        Potential amp.        0.0260 Ry
        Total length         55.1515 bohr
 
 
     Adding external electric field

     Computed dipole along edir(3) : 
        Dipole               -0.3851 Ry au,         -0.9787 Debye
        Dipole field         -0.0002 Ry au, 
 
        Potential amp.        0.0260 Ry
        Total length         55.1515 bohr
 

     total cpu time spent up to now is      537.1 secs

     total energy              =   -7738.31574529 Ry
     estimated scf accuracy    <       0.00911303 Ry

     total magnetization       =    88.40 Bohr mag/cell
     absolute magnetization    =    89.90 Bohr mag/cell

     iteration # 38     ecut=    50.00 Ry     beta= 0.10
     Davidson diagonalization with overlap
     ethr =  8.34E-07,  avg # of iterations =  1.0

     negative rho (up, down):  1.250E-04 1.995E-04
 
     Adding external electric field

     Computed dipole along edir(3) : 
        Dipole               -0.3489 Ry au,         -0.8868 Debye
        Dipole field         -0.0002 Ry au, 
 
        Potential amp.        0.0236 Ry
        Total length         55.1515 bohr
 
 
     Adding external electric field

     Computed dipole along edir(3) : 
        Dipole               -0.3489 Ry au,         -0.8868 Debye
        Dipole field         -0.0002 Ry au, 
 
        Potential amp.        0.0236 Ry
        Total length         55.1515 bohr
 

     total cpu time spent up to now is      547.8 secs

     total energy              =   -7738.31725831 Ry
     estimated scf accuracy    <       0.00689805 Ry

     total magnetization       =    88.36 Bohr mag/cell
     absolute magnetization    =    89.95 Bohr mag/cell

     iteration # 39     ecut=    50.00 Ry     beta= 0.10
     Davidson diagonalization with overlap
     ethr =  6.31E-07,  avg # of iterations =  2.0

     negative rho (up, down):  1.111E-04 1.576E-04
 
     Adding external electric field

     Computed dipole along edir(3) : 
        Dipole               -0.3527 Ry au,         -0.8966 Debye
        Dipole field         -0.0002 Ry au, 
 
        Potential amp.        0.0238 Ry
        Total length         55.1515 bohr
 
 
     Adding external electric field

     Computed dipole along edir(3) : 
        Dipole               -0.3527 Ry au,         -0.8966 Debye
        Dipole field         -0.0002 Ry au, 
 
        Potential amp.        0.0238 Ry
        Total length         55.1515 bohr
 

     total cpu time spent up to now is      560.1 secs

     total energy              =   -7738.31726811 Ry
     estimated scf accuracy    <       0.00606928 Ry

     total magnetization       =    88.42 Bohr mag/cell
     absolute magnetization    =    89.97 Bohr mag/cell

     iteration # 40     ecut=    50.00 Ry     beta= 0.10
     Davidson diagonalization with overlap
     ethr =  5.55E-07,  avg # of iterations =  1.0

     negative rho (up, down):  3.003E-06 6.825E-07
 
     Adding external electric field

     Computed dipole along edir(3) : 
        Dipole               -0.3812 Ry au,         -0.9690 Debye
        Dipole field         -0.0002 Ry au, 
 
        Potential amp.        0.0257 Ry
        Total length         55.1515 bohr
 
 
     Adding external electric field

     Computed dipole along edir(3) : 
        Dipole               -0.3812 Ry au,         -0.9690 Debye
        Dipole field         -0.0002 Ry au, 
 
        Potential amp.        0.0257 Ry
        Total length         55.1515 bohr
 

     total cpu time spent up to now is      570.3 secs

     total energy              =   -7738.31718725 Ry
     estimated scf accuracy    <       0.00513092 Ry

     total magnetization       =    88.43 Bohr mag/cell
     absolute magnetization    =    89.99 Bohr mag/cell

     iteration # 41     ecut=    50.00 Ry     beta= 0.10
     Davidson diagonalization with overlap
     ethr =  4.69E-07,  avg # of iterations =  2.0

     negative rho (up, down):  2.169E-06 7.791E-07
 
     Adding external electric field

     Computed dipole along edir(3) : 
        Dipole               -0.3886 Ry au,         -0.9878 Debye
        Dipole field         -0.0002 Ry au, 
 
        Potential amp.        0.0262 Ry
        Total length         55.1515 bohr
 
 
     Adding external electric field

     Computed dipole along edir(3) : 
        Dipole               -0.3886 Ry au,         -0.9878 Debye
        Dipole field         -0.0002 Ry au, 
 
        Potential amp.        0.0262 Ry
        Total length         55.1515 bohr
 

     total cpu time spent up to now is      582.0 secs

     total energy              =   -7738.31701039 Ry
     estimated scf accuracy    <       0.00383119 Ry

     total magnetization       =    88.51 Bohr mag/cell
     absolute magnetization    =    90.06 Bohr mag/cell

     iteration # 42     ecut=    50.00 Ry     beta= 0.10
     Davidson diagonalization with overlap
     ethr =  3.51E-07,  avg # of iterations =  2.0

     negative rho (up, down):  8.587E-07 7.070E-08
 
     Adding external electric field

     Computed dipole along edir(3) : 
        Dipole               -0.3947 Ry au,         -1.0033 Debye
        Dipole field         -0.0002 Ry au, 
 
        Potential amp.        0.0267 Ry
        Total length         55.1515 bohr
 
 
     Adding external electric field

     Computed dipole along edir(3) : 
        Dipole               -0.3947 Ry au,         -1.0033 Debye
        Dipole field         -0.0002 Ry au, 
 
        Potential amp.        0.0267 Ry
        Total length         55.1515 bohr
 

     total cpu time spent up to now is      594.4 secs

     total energy              =   -7738.31718990 Ry
     estimated scf accuracy    <       0.00316974 Ry

     total magnetization       =    88.52 Bohr mag/cell
     absolute magnetization    =    90.09 Bohr mag/cell

     iteration # 43     ecut=    50.00 Ry     beta= 0.10
     Davidson diagonalization with overlap
     ethr =  2.90E-07,  avg # of iterations =  2.0

     negative rho (up, down):  3.085E-06 4.044E-07
 
     Adding external electric field

     Computed dipole along edir(3) : 
        Dipole               -0.3860 Ry au,         -0.9811 Debye
        Dipole field         -0.0002 Ry au, 
 
        Potential amp.        0.0261 Ry
        Total length         55.1515 bohr
 
 
     Adding external electric field

     Computed dipole along edir(3) : 
        Dipole               -0.3860 Ry au,         -0.9811 Debye
        Dipole field         -0.0002 Ry au, 
 
        Potential amp.        0.0261 Ry
        Total length         55.1515 bohr
 

     total cpu time spent up to now is      606.8 secs

     total energy              =   -7738.31751162 Ry
     estimated scf accuracy    <       0.00194562 Ry

     total magnetization       =    88.51 Bohr mag/cell
     absolute magnetization    =    90.03 Bohr mag/cell

     iteration # 44     ecut=    50.00 Ry     beta= 0.10
     Davidson diagonalization with overlap
     ethr =  1.78E-07,  avg # of iterations =  2.0

     negative rho (up, down):  1.013E-05 1.582E-06
 
     Adding external electric field

     Computed dipole along edir(3) : 
        Dipole               -0.3776 Ry au,         -0.9598 Debye
        Dipole field         -0.0002 Ry au, 
 
        Potential amp.        0.0255 Ry
        Total length         55.1515 bohr
 
 
     Adding external electric field

     Computed dipole along edir(3) : 
        Dipole               -0.3776 Ry au,         -0.9598 Debye
        Dipole field         -0.0002 Ry au, 
 
        Potential amp.        0.0255 Ry
        Total length         55.1515 bohr
 

     total cpu time spent up to now is      619.0 secs

     total energy              =   -7738.31772823 Ry
     estimated scf accuracy    <       0.00120985 Ry

     total magnetization       =    88.48 Bohr mag/cell
     absolute magnetization    =    89.95 Bohr mag/cell

     iteration # 45     ecut=    50.00 Ry     beta= 0.10
     Davidson diagonalization with overlap
     c_bands:  1 eigenvalues not converged
     ethr =  1.11E-07,  avg # of iterations = 11.0

     negative rho (up, down):  7.791E-06 1.194E-06
 
     Adding external electric field

     Computed dipole along edir(3) : 
        Dipole               -0.3845 Ry au,         -0.9773 Debye
        Dipole field         -0.0002 Ry au, 
 
        Potential amp.        0.0260 Ry
        Total length         55.1515 bohr
 
 
     Adding external electric field

     Computed dipole along edir(3) : 
        Dipole               -0.3845 Ry au,         -0.9773 Debye
        Dipole field         -0.0002 Ry au, 
 
        Potential amp.        0.0260 Ry
        Total length         55.1515 bohr
 

     total cpu time spent up to now is      636.4 secs

     total energy              =   -7738.31784203 Ry
     estimated scf accuracy    <       0.00070006 Ry

     total magnetization       =    88.47 Bohr mag/cell
     absolute magnetization    =    89.90 Bohr mag/cell

     iteration # 46     ecut=    50.00 Ry     beta= 0.10
     Davidson diagonalization with overlap
     ethr =  6.40E-08,  avg # of iterations =  2.0

     negative rho (up, down):  2.150E-05 3.642E-06
 
     Adding external electric field

     Computed dipole along edir(3) : 
        Dipole               -0.3801 Ry au,         -0.9662 Debye
        Dipole field         -0.0002 Ry au, 
 
        Potential amp.        0.0257 Ry
        Total length         55.1515 bohr
 
 
     Adding external electric field

     Computed dipole along edir(3) : 
        Dipole               -0.3801 Ry au,         -0.9662 Debye
        Dipole field         -0.0002 Ry au, 
 
        Potential amp.        0.0257 Ry
        Total length         55.1515 bohr
 

     total cpu time spent up to now is      649.6 secs

     total energy              =   -7738.31790301 Ry
     estimated scf accuracy    <       0.00050867 Ry

     total magnetization       =    88.46 Bohr mag/cell
     absolute magnetization    =    89.87 Bohr mag/cell

     iteration # 47     ecut=    50.00 Ry     beta= 0.10
     Davidson diagonalization with overlap
     ethr =  4.65E-08,  avg # of iterations =  2.0

     negative rho (up, down):  1.817E-04 5.657E-05
 
     Adding external electric field

     Computed dipole along edir(3) : 
        Dipole               -0.3585 Ry au,         -0.9113 Debye
        Dipole field         -0.0002 Ry au, 
 
        Potential amp.        0.0242 Ry
        Total length         55.1515 bohr
 
 
     Adding external electric field

     Computed dipole along edir(3) : 
        Dipole               -0.3585 Ry au,         -0.9113 Debye
        Dipole field         -0.0002 Ry au, 
 
        Potential amp.        0.0242 Ry
        Total length         55.1515 bohr
 

     total cpu time spent up to now is      662.0 secs

     total energy              =   -7738.31794642 Ry
     estimated scf accuracy    <       0.00041757 Ry

     total magnetization       =    88.45 Bohr mag/cell
     absolute magnetization    =    89.85 Bohr mag/cell

     iteration # 48     ecut=    50.00 Ry     beta= 0.10
     Davidson diagonalization with overlap
     ethr =  3.82E-08,  avg # of iterations =  2.0

     negative rho (up, down):  6.261E-04 3.059E-04
 
     Adding external electric field

     Computed dipole along edir(3) : 
        Dipole               -0.3426 Ry au,         -0.8709 Debye
        Dipole field         -0.0002 Ry au, 
 
        Potential amp.        0.0231 Ry
        Total length         55.1515 bohr
 
 
     Adding external electric field

     Computed dipole along edir(3) : 
        Dipole               -0.3426 Ry au,         -0.8709 Debye
        Dipole field         -0.0002 Ry au, 
 
        Potential amp.        0.0231 Ry
        Total length         55.1515 bohr
 

     total cpu time spent up to now is      675.2 secs

     total energy              =   -7738.31798105 Ry
     estimated scf accuracy    <       0.00034066 Ry

     total magnetization       =    88.45 Bohr mag/cell
     absolute magnetization    =    89.84 Bohr mag/cell

     iteration # 49     ecut=    50.00 Ry     beta= 0.10
     Davidson diagonalization with overlap
     ethr =  3.12E-08,  avg # of iterations =  1.5

     negative rho (up, down):  9.624E-04 6.078E-04
 
     Adding external electric field

     Computed dipole along edir(3) : 
        Dipole               -0.3189 Ry au,         -0.8105 Debye
        Dipole field         -0.0002 Ry au, 
 
        Potential amp.        0.0215 Ry
        Total length         55.1515 bohr
 
 
     Adding external electric field

     Computed dipole along edir(3) : 
        Dipole               -0.3189 Ry au,         -0.8105 Debye
        Dipole field         -0.0002 Ry au, 
 
        Potential amp.        0.0215 Ry
        Total length         55.1515 bohr
 

     total cpu time spent up to now is      687.3 secs

     total energy              =   -7738.31802002 Ry
     estimated scf accuracy    <       0.00022004 Ry

     total magnetization       =    88.45 Bohr mag/cell
     absolute magnetization    =    89.83 Bohr mag/cell

     iteration # 50     ecut=    50.00 Ry     beta= 0.10
     Davidson diagonalization with overlap
     ethr =  2.01E-08,  avg # of iterations =  2.0

     negative rho (up, down):  1.111E-03 7.089E-04
 
     Adding external electric field

     Computed dipole along edir(3) : 
        Dipole               -0.3167 Ry au,         -0.8051 Debye
        Dipole field         -0.0002 Ry au, 
 
        Potential amp.        0.0214 Ry
        Total length         55.1515 bohr
 
 
     Adding external electric field

     Computed dipole along edir(3) : 
        Dipole               -0.3167 Ry au,         -0.8051 Debye
        Dipole field         -0.0002 Ry au, 
 
        Potential amp.        0.0214 Ry
        Total length         55.1515 bohr
 

     total cpu time spent up to now is      699.9 secs

     total energy              =   -7738.31802950 Ry
     estimated scf accuracy    <       0.00006795 Ry

     total magnetization       =    88.46 Bohr mag/cell
     absolute magnetization    =    89.84 Bohr mag/cell

     iteration # 51     ecut=    50.00 Ry     beta= 0.10
     Davidson diagonalization with overlap
     ethr =  6.22E-09,  avg # of iterations =  1.0

     negative rho (up, down):  1.141E-03 6.627E-04
 
     Adding external electric field

     Computed dipole along edir(3) : 
        Dipole               -0.3152 Ry au,         -0.8013 Debye
        Dipole field         -0.0002 Ry au, 
 
        Potential amp.        0.0213 Ry
        Total length         55.1515 bohr
 
 
     Adding external electric field

     Computed dipole along edir(3) : 
        Dipole               -0.3152 Ry au,         -0.8013 Debye
        Dipole field         -0.0002 Ry au, 
 
        Potential amp.        0.0213 Ry
        Total length         55.1515 bohr
 

     total cpu time spent up to now is      710.9 secs

     total energy              =   -7738.31802749 Ry
     estimated scf accuracy    <       0.00004042 Ry

     total magnetization       =    88.46 Bohr mag/cell
     absolute magnetization    =    89.84 Bohr mag/cell

     iteration # 52     ecut=    50.00 Ry     beta= 0.10
     Davidson diagonalization with overlap
     ethr =  3.70E-09,  avg # of iterations =  2.0

     negative rho (up, down):  1.208E-03 7.005E-04
 
     Adding external electric field

     Computed dipole along edir(3) : 
        Dipole               -0.3142 Ry au,         -0.7985 Debye
        Dipole field         -0.0002 Ry au, 
 
        Potential amp.        0.0212 Ry
        Total length         55.1515 bohr
 
 
     Adding external electric field

     Computed dipole along edir(3) : 
        Dipole               -0.3142 Ry au,         -0.7985 Debye
        Dipole field         -0.0002 Ry au, 
 
        Potential amp.        0.0212 Ry
        Total length         55.1515 bohr
 

     total cpu time spent up to now is      723.3 secs

     total energy              =   -7738.31802858 Ry
     estimated scf accuracy    <       0.00002256 Ry

     total magnetization       =    88.47 Bohr mag/cell
     absolute magnetization    =    89.84 Bohr mag/cell

     iteration # 53     ecut=    50.00 Ry     beta= 0.10
     Davidson diagonalization with overlap
     ethr =  2.06E-09,  avg # of iterations =  1.0

     negative rho (up, down):  1.259E-03 7.662E-04
 
     Adding external electric field

     Computed dipole along edir(3) : 
        Dipole               -0.3125 Ry au,         -0.7944 Debye
        Dipole field         -0.0002 Ry au, 
 
        Potential amp.        0.0211 Ry
        Total length         55.1515 bohr
 
 
     Adding external electric field

     Computed dipole along edir(3) : 
        Dipole               -0.3125 Ry au,         -0.7944 Debye
        Dipole field         -0.0002 Ry au, 
 
        Potential amp.        0.0211 Ry
        Total length         55.1515 bohr
 

     total cpu time spent up to now is      734.3 secs

     total energy              =   -7738.31802946 Ry
     estimated scf accuracy    <       0.00001473 Ry

     total magnetization       =    88.47 Bohr mag/cell
     absolute magnetization    =    89.85 Bohr mag/cell

     iteration # 54     ecut=    50.00 Ry     beta= 0.10
     Davidson diagonalization with overlap
     ethr =  1.35E-09,  avg # of iterations =  2.0

     negative rho (up, down):  1.207E-03 7.398E-04
 
     Adding external electric field

     Computed dipole along edir(3) : 
        Dipole               -0.3124 Ry au,         -0.7940 Debye
        Dipole field         -0.0002 Ry au, 
 
        Potential amp.        0.0211 Ry
        Total length         55.1515 bohr
 
 
     Adding external electric field

     Computed dipole along edir(3) : 
        Dipole               -0.3124 Ry au,         -0.7940 Debye
        Dipole field         -0.0002 Ry au, 
 
        Potential amp.        0.0211 Ry
        Total length         55.1515 bohr
 

     total cpu time spent up to now is      746.9 secs

     total energy              =   -7738.31802887 Ry
     estimated scf accuracy    <       0.00000925 Ry

     total magnetization       =    88.47 Bohr mag/cell
     absolute magnetization    =    89.85 Bohr mag/cell

     iteration # 55     ecut=    50.00 Ry     beta= 0.10
     Davidson diagonalization with overlap
     ethr =  8.46E-10,  avg # of iterations =  2.0

     negative rho (up, down):  1.225E-03 7.690E-04
 
     Adding external electric field

     Computed dipole along edir(3) : 
        Dipole               -0.3116 Ry au,         -0.7921 Debye
        Dipole field         -0.0002 Ry au, 
 
        Potential amp.        0.0210 Ry
        Total length         55.1515 bohr
 
 
     Adding external electric field

     Computed dipole along edir(3) : 
        Dipole               -0.3116 Ry au,         -0.7921 Debye
        Dipole field         -0.0002 Ry au, 
 
        Potential amp.        0.0210 Ry
        Total length         55.1515 bohr
 

     total cpu time spent up to now is      759.6 secs

     total energy              =   -7738.31802918 Ry
     estimated scf accuracy    <       0.00000417 Ry

     total magnetization       =    88.47 Bohr mag/cell
     absolute magnetization    =    89.85 Bohr mag/cell

     iteration # 56     ecut=    50.00 Ry     beta= 0.10
     Davidson diagonalization with overlap
     ethr =  3.82E-10,  avg # of iterations =  2.0

     negative rho (up, down):  1.157E-03 7.013E-04
 
     Adding external electric field

     Computed dipole along edir(3) : 
        Dipole               -0.3119 Ry au,         -0.7928 Debye
        Dipole field         -0.0002 Ry au, 
 
        Potential amp.        0.0211 Ry
        Total length         55.1515 bohr
 
 
     Adding external electric field

     Computed dipole along edir(3) : 
        Dipole               -0.3119 Ry au,         -0.7928 Debye
        Dipole field         -0.0002 Ry au, 
 
        Potential amp.        0.0211 Ry
        Total length         55.1515 bohr
 

     total cpu time spent up to now is      772.8 secs

     total energy              =   -7738.31802888 Ry
     estimated scf accuracy    <       0.00000231 Ry

     total magnetization       =    88.47 Bohr mag/cell
     absolute magnetization    =    89.85 Bohr mag/cell

     iteration # 57     ecut=    50.00 Ry     beta= 0.10
     Davidson diagonalization with overlap
     ethr =  2.11E-10,  avg # of iterations =  2.0

     negative rho (up, down):  1.114E-03 6.553E-04
 
     Adding external electric field

     Computed dipole along edir(3) : 
        Dipole               -0.3122 Ry au,         -0.7936 Debye
        Dipole field         -0.0002 Ry au, 
 
        Potential amp.        0.0211 Ry
        Total length         55.1515 bohr
 
 
     Adding external electric field

     Computed dipole along edir(3) : 
        Dipole               -0.3122 Ry au,         -0.7936 Debye
        Dipole field         -0.0002 Ry au, 
 
        Potential amp.        0.0211 Ry
        Total length         55.1515 bohr
 

     total cpu time spent up to now is      786.1 secs

     total energy              =   -7738.31802871 Ry
     estimated scf accuracy    <       0.00000178 Ry

     total magnetization       =    88.47 Bohr mag/cell
     absolute magnetization    =    89.85 Bohr mag/cell

     iteration # 58     ecut=    50.00 Ry     beta= 0.10
     Davidson diagonalization with overlap
     ethr =  1.63E-10,  avg # of iterations =  2.0

     negative rho (up, down):  1.079E-03 6.120E-04
 
     Adding external electric field

     Computed dipole along edir(3) : 
[...]
    -5.9815  -5.9654  -5.9169  -5.9090  -5.8874  -5.8778  -5.8769  -5.8447
    -5.8237  -5.8020  -5.7505  -5.7387  -5.7233  -5.6895  -5.6782  -5.6448
    -5.6405  -5.6296  -5.5923  -5.5748  -5.5670  -5.5588  -5.5559  -5.5331
    -5.5163  -5.5046  -5.4808  -5.4436  -5.4017  -5.3548  -5.3310  -5.3161
    -5.2938  -5.2644  -5.2347  -5.1648  -5.1504  -5.1454  -5.1309  -5.1033
    -5.0516  -5.0105  -4.9727  -4.9470  -4.8992  -4.8889  -4.8594  -4.8584
    -4.8137  -4.7940  -4.7817  -4.7419  -4.7093  -4.6903  -4.6504  -4.6035
    -4.5526  -4.4777  -4.4455  -4.4257  -4.4189  -4.4032  -4.3630  -4.3527
    -4.3123  -4.2855  -4.2561  -4.2351  -4.2025  -4.1766  -4.1183  -4.1071
    -4.0870  -4.0484  -4.0452  -4.0176  -3.9580  -3.9326  -3.9194  -3.8798
    -3.8701  -3.8263  -3.8121  -3.7991  -3.7874  -3.7460  -3.7245  -3.7016
    -3.6911  -3.6637  -3.6482  -3.5979  -3.5850  -3.5769  -3.5741  -3.5473
    -3.5440  -3.5197  -3.5042  -3.4788  -3.4583  -3.4428  -3.4285  -3.4164
    -3.4142  -3.3707  -3.3602  -3.3541  -3.3417  -3.3059  -3.2790  -3.2586
    -3.2533  -3.2124  -3.1965  -3.1847  -3.1486  -3.1155  -3.1061  -3.0819
    -3.0730  -3.0683  -3.0485  -3.0361  -3.0213  -3.0037  -2.9822  -2.9657
    -2.9307  -2.9184  -2.8954  -2.8874  -2.8681  -2.8509  -2.8094  -2.7960
    -2.7860  -2.7595  -2.7528  -2.7432  -2.7270  -2.7152  -2.7020  -2.6881
    -2.6838  -2.6767  -2.6611  -2.6432  -2.6392  -2.6075  -2.6018  -2.5929
    -2.5743  -2.5690  -2.5418  -2.5274  -2.5144  -2.4848  -2.4719  -2.4568
    -2.4402  -2.4206  -2.4051  -2.3788  -2.3565  -2.3530  -2.3220  -2.2868
    -2.2770  -2.2680  -2.2306  -2.2076  -2.1929  -2.1820  -2.1460  -2.1429
    -2.1142  -2.0892  -2.0686  -2.0636  -2.0576  -2.0400  -2.0304  -2.0217
    -1.9972  -1.9789  -1.9398  -1.9167  -1.9118  -1.9103  -1.8747  -1.8562
    -1.8403  -1.8359  -1.8258  -1.8103  -1.7916  -1.7164  -1.7109  -1.6914
    -1.6712  -1.6573  -1.6351  -1.6283  -1.6160  -1.6152  -1.5920  -1.5719
    -1.5500  -1.5358  -1.5178  -1.4877  -1.4871  -1.4549  -1.4360  -1.4275
    -1.4046  -1.3981  -1.3837  -1.3758  -1.3579  -1.3514  -1.3064  -1.2678
    -1.2339  -1.2187  -1.1735  -1.1488  -1.1360  -1.1316  -1.0938  -1.0568
    -1.0452  -0.9950  -0.9289  -0.8440  -0.7386  -0.7290  -0.6141  -0.5585
    -0.5229  -0.5092  -0.3567  -0.2264   0.1780   0.2180   0.2404   0.2467
     0.2986   0.3103   0.3169   0.3207   0.3294   0.3482   0.3609   0.3665
     0.3745   0.3887   0.3971   0.4020   0.4050   0.4127   0.4181   0.4243
     0.4319   0.4406   0.4607   0.4652   0.4748   0.4826   0.4902   0.4912
     0.4957   0.5021   0.5090   0.5150   0.5251   0.5316   0.5359   0.5423
     0.5447   0.5626   0.5664   0.5737   0.5838   0.5978   0.6020   0.6170
     0.6230   0.6237   0.6427   0.6478   0.6530   0.6613   0.6652   0.6775
     0.6827   0.6905   0.7002   0.7075   0.7124   0.7297   0.7319   0.7423
     0.7477   0.7592   0.7667   0.7687   0.7756   0.7923   0.8011   0.8103
     0.8127   0.8235   0.8378   0.8556   0.8650   0.8666   0.8683   0.8723
     0.8828   0.8874   0.9052   0.9089   0.9178   0.9525   0.9857   0.9948
     1.0182   1.0476   1.0904   1.1118   1.1226   1.6752   1.7352   1.7477
     1.7693   1.7891   1.8000   1.8158   1.8271   1.8425   1.9045   1.9199
     1.9384   1.9685   1.9883   2.0089   2.0426   2.0453   2.0946   2.1065
     2.1321   2.1440   2.1458   2.1809   2.1903   2.1976   2.2051   2.2330
     2.2683   2.2765   2.2954   2.3048   2.3135   2.3231   2.3313   2.3506
     2.3722   2.3787   2.3925   2.3951   2.4163   2.4196   2.4319   2.4964
     2.5040   2.5309   2.5354   2.5403   2.5507   2.5667   2.5890   2.5976
     2.6234   2.6803   2.7057   2.7199   2.7497   2.8017   2.8073   2.8666
     2.8760   2.9531   3.6725   3.7077   3.7211   3.7580   3.7835   3.7980
     3.8636   3.9055   3.9323   3.9594   3.9701   3.9825   4.0011   4.0146
     4.0536   4.0593   4.1444   4.1477   4.1583   4.1801   4.6578   4.6884
     4.7904   4.8270   4.8620   4.9024   4.9201   4.9624   5.0402   5.0958
     5.1166   5.1464   5.4293   6.2434   6.3743   6.6114   6.6597   6.7561
     6.8492   6.8634   6.8904   6.9657   6.9884   7.0679   7.1172   7.1324
     7.2653   7.3489   7.3521   7.4197   7.4806   7.5421   7.5724   7.6296
     7.6609   7.6675   7.7413   7.7680   7.7951   7.8599   7.8928   7.9639
     7.9997   8.0452   8.0522   8.0901   8.1095   8.1586   8.1729   8.2106
     8.2455   8.2854   8.3028   8.3324   8.4031   8.4267   8.4275   8.4522
     8.4624   8.4787   8.4953   8.5373   8.5539   8.5728   8.5975   8.6217
     8.6715   8.7076   8.7242   8.7572   8.7672   8.7811   8.8371   8.8454

     the Fermi energy is     1.6601 ev

!    total energy              =   -7738.31802784 Ry
     estimated scf accuracy    <       0.00000058 Ry
     smearing contrib. (-TS)   =      -0.02307365 Ry
     internal energy E=F+TS    =   -7738.29495419 Ry

     The total energy is F=E-TS. E is the sum of the following terms:
     one-electron contribution =  -94759.83162582 Ry
     hartree contribution      =   47997.05757691 Ry
     xc contribution           =   -2218.70744570 Ry
     ewald contribution        =   41244.99387015 Ry
     Dispersion Correction     =      -1.80739360 Ry
     electric field correction =       0.00006387 Ry

     total magnetization       =    88.48 Bohr mag/cell
     absolute magnetization    =    89.85 Bohr mag/cell

     convergence has been achieved in  59 iterations

     negative rho (up, down):  1.052E-03 5.888E-04

     Forces acting on atoms (cartesian axes, Ry/au):

     atom    1 type  1   force =    -0.00018030   -0.00035690    0.00001992
     atom    2 type  2   force =    -0.00010436   -0.00037729   -0.00006267
     atom    3 type  1   force =    -0.00032925    0.00056842   -0.00041278
     atom    4 type  1   force =     0.00002304    0.00039627   -0.00042030
     atom    5 type  1   force =    -0.00005911    0.00005661   -0.00054221
     atom    6 type  1   force =     0.00041544    0.00029677   -0.00036901
     atom    7 type  3   force =    -0.00023084    0.00021391    0.00012063
     atom    8 type  3   force =    -0.00009749   -0.00009110    0.00001274
     atom    9 type  3   force =     0.00033904   -0.00012917    0.00001034
     atom   10 type  3   force =     0.00006875    0.00018539    0.00023874
     atom   11 type  4   force =     0.00066336   -0.00014930    0.00022474
     atom   12 type  4   force =    -0.00053886   -0.00017081   -0.00002151
     atom   13 type  4   force =    -0.00005476    0.00018028   -0.00047437
     atom   14 type  4   force =    -0.00056825   -0.00028070    0.00011932
     atom   15 type  4   force =     0.00024571   -0.00028074   -0.00002492
     atom   16 type  4   force =    -0.00040917   -0.00013588    0.00027521
     atom   17 type  4   force =    -0.00045653    0.00004695    0.00058092
     atom   18 type  4   force =     0.00006611    0.00004254    0.00040009
     atom   19 type  4   force =     0.00004891    0.00031275    0.00004410
     atom   20 type  4   force =    -0.00024677   -0.00020857   -0.00003576
     atom   21 type  4   force =     0.00028053    0.00012193   -0.00000216
     atom   22 type  4   force =    -0.00003421    0.00017782   -0.00055053
     atom   23 type  4   force =     0.00007413   -0.00012167   -0.00025182
     atom   24 type  4   force =     0.00033636    0.00010802    0.00005811
     atom   25 type  4   force =    -0.00019315    0.00045777   -0.00005303
     atom   26 type  4   force =    -0.00036276    0.00003382   -0.00008346
     atom   27 type  1   force =    -0.00659775   -0.00703823   -0.00177935
     atom   28 type  2   force =    -0.01236676   -0.00011660   -0.00144984
     atom   29 type  1   force =     0.00353291   -0.00399092   -0.00055454
     atom   30 type  1   force =     0.00240904    0.00407132   -0.00151204
     atom   31 type  1   force =     0.00149651   -0.00499595   -0.00020635
     atom   32 type  1   force =    -0.00101795    0.00148559    0.00198599
     atom   33 type  3   force =    -0.00698777   -0.00095299    0.00010397
     atom   34 type  3   force =    -0.00714888    0.00449694   -0.00248299
     atom   35 type  3   force =     0.00391877   -0.00257268   -0.00364010
     atom   36 type  3   force =     0.00121661   -0.00124446    0.00299319
     atom   37 type  4   force =     0.00865072    0.00540638   -0.00793259
     atom   38 type  4   force =     0.00453308   -0.00232997    0.01991247
     atom   39 type  4   force =    -0.00121272    0.00397979    0.01050548
     atom   40 type  4   force =    -0.00169000   -0.00229624   -0.00898473
     atom   41 type  4   force =     0.00205057    0.00846054    0.00643618
     atom   42 type  4   force =    -0.00570928   -0.00288207   -0.01998299
     atom   43 type  4   force =     0.01041992    0.00691074   -0.00681181
     atom   44 type  4   force =     0.00721869   -0.00302354    0.00611078
     atom   45 type  4   force =     0.00216033    0.00573503   -0.00059329
     atom   46 type  4   force =     0.00349701    0.00203318    0.00459682
     atom   47 type  4   force =    -0.01310046    0.00015653    0.00330802
     atom   48 type  4   force =    -0.01457995    0.00272113   -0.00310423
     atom   49 type  4   force =     0.01237199    0.00250568   -0.00467968
     atom   50 type  4   force =    -0.00381339   -0.00417284   -0.00002056
     atom   51 type  4   force =    -0.00442194    0.00268251   -0.00064293
     atom   52 type  4   force =     0.01623133   -0.00324350    0.00409055
     atom   53 type  1   force =    -0.00749420   -0.00730327   -0.00841110
     atom   54 type  2   force =     0.01572609    0.01729533   -0.00992339
     atom   55 type  1   force =     0.00580892   -0.00468132   -0.00587364
     atom   56 type  1   force =    -0.02051816    0.01921097    0.01981318
     atom   57 type  1   force =     0.00449380   -0.00776631   -0.00161880
     atom   58 type  1   force =    -0.00391112   -0.00521559   -0.00088794
     atom   59 type  3   force =    -0.03899260   -0.03830749   -0.05609739
     atom   60 type  3   force =    -0.00478286   -0.00134630   -0.00109758
     atom   61 type  3   force =     0.00272559   -0.00093116   -0.01011451
     atom   62 type  3   force =     0.02910149   -0.04951549   -0.06058258
     atom   63 type  4   force =     0.00631593    0.00351483    0.02101864
     atom   64 type  4   force =     0.00441656    0.00236629    0.01474468
     atom   65 type  4   force =    -0.00069067    0.00289377    0.01279655
     atom   66 type  4   force =     0.00013811    0.00216427    0.01618730
     atom   67 type  4   force =     0.00109175   -0.00058210    0.03925449
     atom   68 type  4   force =    -0.00567733   -0.00395890   -0.01732268
     atom   69 type  4   force =     0.00779665    0.00446521   -0.00261520
     atom   70 type  4   force =     0.00174641   -0.00734746    0.03547806
     atom   71 type  4   force =    -0.00911695    0.03910175    0.00098271
     atom   72 type  4   force =     0.00226109   -0.00050819    0.00795851
     atom   73 type  4   force =    -0.03004855    0.00087189    0.00767130
     atom   74 type  4   force =    -0.01345125    0.00141213   -0.00040474
     atom   75 type  4   force =     0.01192121    0.00352994   -0.00248817
     atom   76 type  4   force =    -0.00236644   -0.00279147    0.00256989
     atom   77 type  4   force =     0.00921445    0.02570821   -0.00253087
     atom   78 type  4   force =     0.03341929   -0.00638235    0.00623033
     atom   79 type  1   force =     0.00004937    0.00036487   -0.00001529
     atom   80 type  2   force =    -0.00009476   -0.00024633   -0.00058696
     atom   81 type  1   force =    -0.00006823    0.00035939   -0.00071983
     atom   82 type  1   force =    -0.00007310    0.00016218   -0.00040891
     atom   83 type  1   force =    -0.00056206    0.00001610   -0.00032988
     atom   84 type  1   force =     0.00017523    0.00022246    0.00028821
     atom   85 type  3   force =    -0.00024880    0.00054068    0.00035353
     atom   86 type  3   force =    -0.00013177    0.00071295    0.00081220
     atom   87 type  3   force =    -0.00008155    0.00019546   -0.00009630
     atom   88 type  3   force =     0.00008496    0.00044829    0.00017238
     atom   89 type  4   force =    -0.00008838   -0.00050031   -0.00002146
     atom   90 type  4   force =    -0.00007414    0.00070207    0.00007243
     atom   91 type  4   force =     0.00031481    0.00009385   -0.00021541
     atom   92 type  4   force =    -0.00055660   -0.00002743    0.00003876
     atom   93 type  4   force =     0.00038389   -0.00028250    0.00024467
     atom   94 type  4   force =    -0.00025306   -0.00026903    0.00034239
     atom   95 type  4   force =    -0.00019555    0.00011132    0.00007475
     atom   96 type  4   force =    -0.00005897    0.00003792    0.00007298
     atom   97 type  4   force =    -0.00015933    0.00048400   -0.00020221
     atom   98 type  4   force =     0.00013754   -0.00037193    0.00008999
     atom   99 type  4   force =    -0.00001284   -0.00006638   -0.00046261
     atom  100 type  4   force =     0.00020691    0.00053799   -0.00036673
     atom  101 type  4   force =     0.00028683   -0.00011184   -0.00024587
     atom  102 type  4   force =     0.00026560   -0.00016897    0.00016563
     atom  103 type  4   force =    -0.00039426    0.00042408   -0.00052827
     atom  104 type  4   force =    -0.00040827    0.00052533    0.00007801
     atom  105 type  1   force =    -0.00630440   -0.00859477   -0.00305962
     atom  106 type  2   force =    -0.01198858    0.00007993   -0.00166614
     atom  107 type  1   force =     0.00319238   -0.00420026   -0.00073063
     atom  108 type  1   force =     0.00232251    0.00407734   -0.00162157
     atom  109 type  1   force =     0.00203404   -0.00501475   -0.00038487
     atom  110 type  1   force =    -0.00122088    0.00130546    0.00187750
     atom  111 type  3   force =    -0.00716449   -0.00082527   -0.00040197
     atom  112 type  3   force =    -0.00604304    0.00387800   -0.00141781
     atom  113 type  3   force =     0.00354885   -0.00104565   -0.00513458
     atom  114 type  3   force =     0.00106209   -0.00122043    0.00296191
     atom  115 type  4   force =     0.00881773    0.00508511   -0.00765811
     atom  116 type  4   force =     0.00359389   -0.00127466    0.02033710
     atom  117 type  4   force =    -0.00122128    0.00373405    0.01090756
     atom  118 type  4   force =    -0.00154604   -0.00235912   -0.00903775
     atom  119 type  4   force =     0.00220461    0.00854383    0.00647058
     atom  120 type  4   force =    -0.00546323   -0.00237706   -0.01760572
     atom  121 type  4   force =     0.01113531    0.00646192   -0.00736077
     atom  122 type  4   force =     0.00707025   -0.00303482    0.00609519
     atom  123 type  4   force =     0.00213028    0.00577337   -0.00057818
     atom  124 type  4   force =     0.00302183    0.00111629    0.00553941
     atom  125 type  4   force =    -0.01307926    0.00020181    0.00336168
     atom  126 type  4   force =    -0.01408305    0.00241660   -0.00305406
     atom  127 type  4   force =     0.01300162    0.00281621   -0.00486237
     atom  128 type  4   force =    -0.00411174   -0.00424940   -0.00001834
     atom  129 type  4   force =    -0.00427492    0.00263409   -0.00054164
     atom  130 type  4   force =     0.01636095   -0.00322704    0.00424100
     atom  131 type  1   force =    -0.00759846   -0.00722829   -0.00842931
     atom  132 type  2   force =     0.01566516    0.01726307   -0.00990234
     atom  133 type  1   force =     0.00582671   -0.00468412   -0.00586119
     atom  134 type  1   force =    -0.02051977    0.01920724    0.01981837
     atom  135 type  1   force =     0.00445315   -0.00775032   -0.00161245
     atom  136 type  1   force =    -0.00390668   -0.00519943   -0.00087184
     atom  137 type  3   force =    -0.03902747   -0.03835506   -0.05605010
     atom  138 type  3   force =    -0.00494631   -0.00127245   -0.00115011
     atom  139 type  3   force =     0.00273802   -0.00101704   -0.01011379
     atom  140 type  3   force =     0.02911103   -0.04951516   -0.06057878
     atom  141 type  4   force =     0.00624088    0.00356133    0.02102841
     atom  142 type  4   force =     0.00446731    0.00225732    0.01469635
     atom  143 type  4   force =    -0.00060337    0.00281142    0.01282476
     atom  144 type  4   force =     0.00017560    0.00224983    0.01638521
     atom  145 type  4   force =     0.00124667   -0.00058016    0.03922675
     atom  146 type  4   force =    -0.00539596   -0.00399658   -0.01725881
     atom  147 type  4   force =     0.00779108    0.00452828   -0.00277079
     atom  148 type  4   force =     0.00163714   -0.00738616    0.03552584
     atom  149 type  4   force =    -0.00933365    0.03910164    0.00098508
     atom  150 type  4   force =     0.00205828   -0.00042228    0.00795016
     atom  151 type  4   force =    -0.02992837    0.00087096    0.00767034
     atom  152 type  4   force =    -0.01356505    0.00143504   -0.00041203
     atom  153 type  4   force =     0.01197111    0.00360657   -0.00251274
     atom  154 type  4   force =    -0.00238920   -0.00269584    0.00249879
     atom  155 type  4   force =     0.00911128    0.02575560   -0.00259134
     atom  156 type  4   force =     0.03340786   -0.00619167    0.00605603
     atom  157 type  4   force =     0.00790711    0.00660841   -0.00198063
     atom  158 type  5   force =    -0.00691645   -0.00613678    0.00296341

     Total force =     0.237361     Total SCF correction =     0.003907
 
     init_run     :      7.44s CPU      8.03s WALL (       1 calls)
     electrons    :    762.55s CPU    800.86s WALL (       1 calls)
     forces       :      3.89s CPU      4.22s WALL (       1 calls)
     force_london :      0.10s CPU      0.10s WALL (       1 calls)

     Called by init_run:
     wfcinit      :      4.48s CPU      4.67s WALL (       1 calls)
     potinit      :      0.52s CPU      0.69s WALL (       1 calls)
     hinit0       :      1.23s CPU      1.32s WALL (       1 calls)

     Called by electrons:
     c_bands      :    602.20s CPU    622.53s WALL (      59 calls)
     sum_band     :     99.55s CPU    108.67s WALL (      59 calls)
     v_of_rho     :     14.68s CPU     16.24s WALL (      60 calls)
     newd         :     30.11s CPU     37.37s WALL (      60 calls)
     mix_rho      :     15.49s CPU     15.57s WALL (      59 calls)
     energy_londo :      0.09s CPU      0.09s WALL (       1 calls)

     Called by c_bands:
     init_us_2    :      1.71s CPU      1.76s WALL (     240 calls)
     init_us_2:cp :      1.71s CPU      1.76s WALL (     240 calls)
     regterg      :    589.97s CPU    610.18s WALL (     119 calls)

     Called by *egterg:
     rdiaghg      :    171.28s CPU    180.95s WALL (     481 calls)
     h_psi        :    224.46s CPU    228.85s WALL (     483 calls)
     s_psi        :     40.04s CPU     40.05s WALL (     483 calls)
     g_psi        :      0.28s CPU      0.29s WALL (     362 calls)

     Called by h_psi:
     h_psi:calbec :     58.48s CPU     61.89s WALL (     483 calls)
     vloc_psi     :    124.47s CPU    124.99s WALL (     483 calls)
     add_vuspsi   :     40.97s CPU     41.41s WALL (     483 calls)

     General routines
     calbec       :     86.24s CPU     91.37s WALL (     609 calls)
     fft          :     16.62s CPU     18.74s WALL (    1093 calls)
     ffts         :      9.63s CPU      9.65s WALL (    7313 calls)
     fftw         :    140.74s CPU    141.29s WALL (  201996 calls)
     interpolate  :      1.12s CPU      1.33s WALL (     120 calls)
 
     Parallel routines
 
     PWSCF        :  12m56.12s CPU  13m35.66s WALL

 
   This run was terminated on:   1:10:24  18Nov2025            

=------------------------------------------------------------------------------=
   JOB DONE.
=------------------------------------------------------------------------------=
