
     Program PWSCF v.7.2 starts on 17Nov2025 at 21:30:52 

     This program is part of the open-source Quantum ESPRESSO suite
     for quantum simulation of materials; please cite
         "P. Giannozzi et al., J. Phys.:Condens. Matter 21 395502 (2009);
         "P. Giannozzi et al., J. Phys.:Condens. Matter 29 465901 (2017);
         "P. Giannozzi et al., J. Chem. Phys. 152 154105 (2020);
          URL http://www.quantum-espresso.org", 
     in publications or presentations arising from this work. More details at
     http://www.quantum-espresso.org/quote

     Parallel version (MPI), running on    64 processors

     MPI processes distributed on     4 nodes
     464664 MiB available memory on the printing compute node when the environment starts
 
     Reading input from PWINPUT_atm157_xp

     Current dimensions of program PWSCF are:
     Max number of different atomic species (ntypx) = 10
     Max number of k-points (npk) =  40000
     Max angular momentum in pseudopotentials (lmaxx) =  4
     Presently no symmetry can be used with electric field

     file Ni.pbe-n-rrkjus_psl.1.0.0.UPF: wavefunction(s)  3D renormalized
     file Mn.pbe-spn-rrkjus_psl.0.3.1.UPF: wavefunction(s)  3D renormalized
     file O.pbe-rrkjus.UPF: wavefunction(s)  2S renormalized
     file H.pbe-rrkjus.UPF: wavefunction(s)  1S renormalized

     gamma-point specific algorithms are used
 
     R & G space division:  proc/nbgrp/npool/nimage =      64
     Subspace diagonalization in iterative solution of the eigenvalue problem:
     one sub-group per band group will be used
     custom distributed-memory algorithm (size of sub-group:  7*  7 procs)

 
     Parallelization info
     --------------------
     sticks:   dense  smooth     PW     G-vecs:    dense   smooth      PW
     Min         207      82     20                60552    15302    1896
     Max         210      84     22                60574    15336    1950
     Sum       13325    5345   1333              3876045   980655  122653
 
     Using Slab Decomposition
 


     bravais-lattice index     =            0
     lattice parameter (alat)  =      17.4067  a.u.
     unit-cell volume          =   20529.8182 (a.u.)^3
     number of atoms/cell      =          158
     number of atomic types    =            5
     number of electrons       =      1093.00
     number of Kohn-Sham states=          656
     kinetic-energy cutoff     =      50.0000  Ry
     charge density cutoff     =     500.0000  Ry
     scf convergence threshold =      1.0E-06
     mixing beta               =       0.1000
     number of iterations used =            8  local-TF  mixing
     Exchange-correlation=  SLA  PW   PBE  PBE
                           (   1   4   3   4   0   0   0)

     celldm(1)=  17.406729  celldm(2)=   0.000000  celldm(3)=   0.000000
     celldm(4)=   0.000000  celldm(5)=   0.000000  celldm(6)=   0.000000

     crystal axes: (cart. coord. in units of alat)
               a(1) = (   1.000000   0.000000   0.000000 )  
               a(2) = (  -0.001404   1.105696   0.000000 )  
               a(3) = (   0.000000   0.000000   3.520448 )  

     reciprocal axes: (cart. coord. in units 2 pi/alat)
               b(1) = (  1.000000  0.001270  0.000000 )  
               b(2) = (  0.000000  0.904408  0.000000 )  
               b(3) = (  0.000000  0.000000  0.284055 )  


     PseudoPot. # 1 for Ni read from file:
     ~/PSEUDO/Ni.pbe-n-rrkjus_psl.1.0.0.UPF
     MD5 check sum: Not computed, couldn't open file
     Pseudo is Ultrasoft + core correction, Zval = 10.0
     Generated using "atomic" code by A. Dal Corso  v.5.1.2
     Using radial grid of 1195 points,  6 beta functions with: 
                l(1) =   0
                l(2) =   0
                l(3) =   1
                l(4) =   1
                l(5) =   2
                l(6) =   2
     Q(r) pseudized with 0 coefficients 


     PseudoPot. # 2 for Mn read from file:
     ~/PSEUDO/Mn.pbe-spn-rrkjus_psl.0.3.1.UPF
     MD5 check sum: Not computed, couldn't open file
     Pseudo is Ultrasoft + core correction, Zval = 15.0
     Generated using &quot;atomic&quot; code by A. Dal Corso  v.6.2.2
     Using radial grid of 1187 points,  6 beta functions with: 
                l(1) =   0
                l(2) =   0
                l(3) =   1
                l(4) =   1
                l(5) =   2
                l(6) =   2
     Q(r) pseudized with 0 coefficients 


     PseudoPot. # 3 for P  read from file:
     ~/PSEUDO/P.pbe-n-rrkjus_psl.1.0.0.UPF
     MD5 check sum: Not computed, couldn't open file
     Pseudo is Ultrasoft + core correction, Zval =  5.0
     Generated using "atomic" code by A. Dal Corso  v.5.1
     Using radial grid of 1147 points,  6 beta functions with: 
                l(1) =   0
                l(2) =   0
                l(3) =   1
                l(4) =   1
                l(5) =   2
                l(6) =   2
     Q(r) pseudized with 0 coefficients 


     PseudoPot. # 4 for O  read from file:
     ~/PSEUDO/O.pbe-rrkjus.UPF
     MD5 check sum: Not computed, couldn't open file
     Pseudo is Ultrasoft, Zval =  6.0
     Generated by new atomic code, or converted to UPF format
     Using radial grid of 1269 points,  4 beta functions with: 
                l(1) =   0
                l(2) =   0
                l(3) =   1
                l(4) =   1
     Q(r) pseudized with 0 coefficients 


     PseudoPot. # 5 for H  read from file:
     ~/PSEUDO/H.pbe-rrkjus.UPF
     MD5 check sum: Not computed, couldn't open file
     Pseudo is Ultrasoft, Zval =  1.0
     Generated by new atomic code, or converted to UPF format
     Using radial grid of 1061 points,  2 beta functions with: 
                l(1) =   0
                l(2) =   0
     Q(r) pseudized with 0 coefficients 


     atomic species   valence    mass     pseudopotential
     Ni               10.00    58.69300     Ni( 1.00)
     Mn               15.00    54.93800     Mn( 1.00)
     P                 5.00    30.97300     P ( 1.00)
     O                 6.00    15.99900     O ( 1.00)
     H                 1.00     1.00790     H ( 1.00)

     Starting magnetic structure 
     atomic species   magnetization
     Ni              1.000
     Mn              1.000
     P               1.000
     O               1.000
     H               0.000

     No symmetry found



   Cartesian axes

     site n.     atom                  positions (alat units)
         1        Ni     tau(   1) = (   0.2407247   0.8678666   1.7788468  )
         2        Mn     tau(   2) = (   0.4849050   0.7928704   1.4298720  )
         3        Ni     tau(   3) = (  -0.0015463   0.3040756   1.7427651  )
         4        Ni     tau(   4) = (   0.2576988   0.2438884   1.4304882  )
         5        Ni     tau(   5) = (   0.4960089   1.1079636   1.5969794  )
         6        Ni     tau(   6) = (   0.2509439   0.5529914   1.6014984  )
         7        P      tau(   7) = (   0.2089048   1.0013970   1.4343524  )
         8        P      tau(   8) = (   0.4624796   0.6667191   1.7615344  )
         9        P      tau(   9) = (   0.2870509   0.1160398   1.7607833  )
        10        P      tau(  10) = (   0.0409376   0.4429602   1.4308127  )
        11        O      tau(  11) = (   0.1352892   0.9270454   1.5724618  )
        12        O      tau(  12) = (   0.3840209   0.7294626   1.6169117  )
        13        O      tau(  13) = (   0.3651818   0.1791486   1.6110775  )
        14        O      tau(  14) = (   0.1191348   0.3726454   1.5703673  )
        15        O      tau(  15) = (   0.1507888   0.9120623   1.3039965  )
        16        O      tau(  16) = (   0.4052423   0.7648049   1.8817709  )
        17        O      tau(  17) = (   0.3458822   0.2189915   1.8759922  )
        18        O      tau(  18) = (   0.1009621   0.3550841   1.3013183  )
        19        O      tau(  19) = (   0.0995916   0.6017289   1.4364553  )
        20        O      tau(  20) = (   0.3468601   1.0635796   1.7571918  )
        21        O      tau(  21) = (   0.3739296   0.4396566   1.4433176  )
        22        O      tau(  22) = (   0.1199364   0.1204540   1.7432983  )
        23        O      tau(  23) = (   0.1279675   0.6643683   1.7537820  )
        24        O      tau(  24) = (   0.4072413   0.5052188   1.7593813  )
        25        O      tau(  25) = (   0.1493697   0.0531357   1.4376636  )
        26        O      tau(  26) = (   0.3761102   0.9942916   1.4433476  )
        27        Ni     tau(  27) = (   0.2413539   0.8509941   1.1121345  )
        28        Mn     tau(  28) = (   0.4917018   0.7787406   0.7768134  )
        29        Ni     tau(  29) = (   0.0044877   0.2932623   1.1138982  )
        30        Ni     tau(  30) = (   0.2563139   0.2275682   0.7805625  )
        31        Ni     tau(  31) = (   0.4969120   1.0949007   0.9459116  )
        32        Ni     tau(  32) = (   0.2488318   0.5341111   0.9469721  )
        33        P      tau(  33) = (   0.2076029   0.9882917   0.7835381  )
        34        P      tau(  34) = (   0.4577012   0.6460068   1.1076436  )
        35        P      tau(  35) = (   0.2881931   0.0932770   1.1104179  )
        36        P      tau(  36) = (   0.0392916   0.4238898   0.7837243  )
        37        O      tau(  37) = (   0.1306755   0.9148866   0.9233554  )
        38        O      tau(  38) = (   0.3789780   0.7172835   0.9680652  )
        39        O      tau(  39) = (   0.3654852   0.1662865   0.9702638  )
        40        O      tau(  40) = (   0.1163776   0.3546954   0.9254186  )
        41        O      tau(  41) = (   0.1502901   0.8969129   0.6541592  )
        42        O      tau(  42) = (   0.3974525   0.7354243   1.2370031  )
        43        O      tau(  43) = (   0.3483097   0.1789497   1.2412670  )
        44        O      tau(  44) = (   0.0974932   0.3376387   0.6529083  )
        45        O      tau(  45) = (   0.0984699   0.5818903   0.7881021  )
        46        O      tau(  46) = (   0.3459978   1.0405493   1.1018526  )
        47        O      tau(  47) = (   0.3731719   0.4204123   0.7945555  )
        48        O      tau(  48) = (   0.1223503   0.0989699   1.1000566  )
        49        O      tau(  49) = (   0.1235438   0.6536772   1.0980598  )
        50        O      tau(  50) = (   0.4004339   0.4872435   1.1047245  )
        51        O      tau(  51) = (   0.1476543   0.0398268   0.7872561  )
        52        O      tau(  52) = (   0.3728637   0.9843360   0.7931368  )
        53        Ni     tau(  53) = (   0.2406075   0.8410745   0.4603118  )
        54        Mn     tau(  54) = (   0.4909555   0.7688210   0.1249907  )
        55        Ni     tau(  55) = (   0.0037414   0.2833427   0.4620755  )
        56        Ni     tau(  56) = (   0.2555676   0.2176485   0.1287398  )
        57        Ni     tau(  57) = (   0.4961657   1.0849810   0.2940889  )
        58        Ni     tau(  58) = (   0.2480854   0.5241915   0.2951494  )
        59        P      tau(  59) = (   0.2068565   0.9783721   0.1317154  )
        60        P      tau(  60) = (   0.4569549   0.6360871   0.4558210  )
        61        P      tau(  61) = (   0.2874467   0.0833574   0.4585952  )
        62        P      tau(  62) = (   0.0385452   0.4139702   0.1319017  )
        63        O      tau(  63) = (   0.1299291   0.9049669   0.2715327  )
        64        O      tau(  64) = (   0.3782317   0.7073639   0.3162425  )
        65        O      tau(  65) = (   0.3647389   0.1563669   0.3184411  )
        66        O      tau(  66) = (   0.1156313   0.3447757   0.2735959  )
        67        O      tau(  67) = (   0.1495437   0.8869933   0.0023366  )
        68        O      tau(  68) = (   0.3967062   0.7255047   0.5851804  )
        69        O      tau(  69) = (   0.3475634   0.1690300   0.5894443  )
        70        O      tau(  70) = (   0.0967469   0.3277190   0.0010856  )
        71        O      tau(  71) = (   0.0977236   0.5719706   0.1362794  )
        72        O      tau(  72) = (   0.3452514   1.0306297   0.4500300  )
        73        O      tau(  73) = (   0.3724256   0.4104926   0.1427328  )
        74        O      tau(  74) = (   0.1216040   0.0890503   0.4482339  )
        75        O      tau(  75) = (   0.1227974   0.6437575   0.4462371  )
        76        O      tau(  76) = (   0.3996875   0.4773239   0.4529018  )
        77        O      tau(  77) = (   0.1469079   0.0299071   0.1354334  )
        78        O      tau(  78) = (   0.3721173   0.9744163   0.1413141  )
        79        Ni     tau(  79) = (   0.7503448   0.8592094   1.7463632  )
        80        Mn     tau(  80) = (   0.9872971   0.7933476   1.4295363  )
        81        Ni     tau(  81) = (   0.4979646   0.3082874   1.7425819  )
        82        Ni     tau(  82) = (   0.7578558   0.2432444   1.4303909  )
        83        Ni     tau(  83) = (   0.9978877   1.1049697   1.6005729  )
        84        Ni     tau(  84) = (   0.7517688   0.5502669   1.5982123  )
        85        P      tau(  85) = (   0.7086164   1.0024684   1.4323347  )
        86        P      tau(  86) = (   0.9608587   0.6587254   1.7669171  )
        87        P      tau(  87) = (   0.7853186   0.1123438   1.7615591  )
        88        P      tau(  88) = (   0.5402593   0.4436461   1.4299959  )
        89        O      tau(  89) = (   0.6336250   0.9299726   1.5717212  )
        90        O      tau(  90) = (   0.8855214   0.7268460   1.6205628  )
        91        O      tau(  91) = (   0.8638479   0.1737568   1.6123671  )
        92        O      tau(  92) = (   0.6187851   0.3726638   1.5694972  )
        93        O      tau(  93) = (   0.6499804   0.9114421   1.3038010  )
        94        O      tau(  94) = (   0.8956097   0.7537924   1.8860885  )
        95        O      tau(  95) = (   0.8474504   0.2119799   1.8776314  )
        96        O      tau(  96) = (   0.6006963   0.3549684   1.3012062  )
        97        O      tau(  97) = (   0.6002576   0.6021520   1.4346509  )
        98        O      tau(  98) = (   0.8385044   1.0568597   1.7610063  )
        99        O      tau(  99) = (   0.8744145   0.4373900   1.4436920  )
       100        O      tau( 100) = (   0.6180356   0.1193672   1.7459243  )
       101        O      tau( 101) = (   0.6301005   0.6707638   1.7450210  )
       102        O      tau( 102) = (   0.9037180   0.4985801   1.7585357  )
       103        O      tau( 103) = (   0.6488284   0.0538192   1.4351739  )
       104        O      tau( 104) = (   0.8752493   0.9934614   1.4449032  )
       105        Ni     tau( 105) = (   0.7413539   0.8509941   1.1121345  )
       106        Mn     tau( 106) = (   0.9917018   0.7787406   0.7768134  )
       107        Ni     tau( 107) = (   0.5044877   0.2932623   1.1138982  )
       108        Ni     tau( 108) = (   0.7563139   0.2275682   0.7805625  )
       109        Ni     tau( 109) = (   0.9969120   1.0949007   0.9459116  )
       110        Ni     tau( 110) = (   0.7488318   0.5341111   0.9469721  )
       111        P      tau( 111) = (   0.7076029   0.9882917   0.7835381  )
       112        P      tau( 112) = (   0.9577012   0.6460068   1.1076436  )
       113        P      tau( 113) = (   0.7881931   0.0932770   1.1104179  )
       114        P      tau( 114) = (   0.5392916   0.4238898   0.7837243  )
       115        O      tau( 115) = (   0.6306755   0.9148866   0.9233554  )
       116        O      tau( 116) = (   0.8789780   0.7172835   0.9680652  )
       117        O      tau( 117) = (   0.8654852   0.1662865   0.9702638  )
       118        O      tau( 118) = (   0.6163776   0.3546954   0.9254186  )
       119        O      tau( 119) = (   0.6502901   0.8969129   0.6541592  )
       120        O      tau( 120) = (   0.8974525   0.7354243   1.2370031  )
       121        O      tau( 121) = (   0.8483097   0.1789497   1.2412670  )
       122        O      tau( 122) = (   0.5974932   0.3376387   0.6529083  )
       123        O      tau( 123) = (   0.5984699   0.5818903   0.7881021  )
       124        O      tau( 124) = (   0.8459978   1.0405493   1.1018526  )
       125        O      tau( 125) = (   0.8731719   0.4204123   0.7945555  )
       126        O      tau( 126) = (   0.6223503   0.0989699   1.1000566  )
       127        O      tau( 127) = (   0.6235438   0.6536772   1.0980598  )
       128        O      tau( 128) = (   0.9004339   0.4872435   1.1047245  )
       129        O      tau( 129) = (   0.6476543   0.0398268   0.7872561  )
       130        O      tau( 130) = (   0.8728637   0.9843360   0.7931368  )
       131        Ni     tau( 131) = (   0.7406075   0.8410745   0.4603118  )
       132        Mn     tau( 132) = (   0.9909555   0.7688210   0.1249907  )
       133        Ni     tau( 133) = (   0.5037414   0.2833427   0.4620755  )
       134        Ni     tau( 134) = (   0.7555676   0.2176485   0.1287398  )
       135        Ni     tau( 135) = (   0.9961657   1.0849810   0.2940889  )
       136        Ni     tau( 136) = (   0.7480854   0.5241915   0.2951494  )
       137        P      tau( 137) = (   0.7068565   0.9783721   0.1317154  )
       138        P      tau( 138) = (   0.9569549   0.6360871   0.4558210  )
       139        P      tau( 139) = (   0.7874467   0.0833574   0.4585952  )
       140        P      tau( 140) = (   0.5385452   0.4139702   0.1319017  )
       141        O      tau( 141) = (   0.6299291   0.9049669   0.2715327  )
       142        O      tau( 142) = (   0.8782317   0.7073639   0.3162425  )
       143        O      tau( 143) = (   0.8647389   0.1563669   0.3184411  )
       144        O      tau( 144) = (   0.6156313   0.3447757   0.2735959  )
       145        O      tau( 145) = (   0.6495437   0.8869933   0.0023366  )
       146        O      tau( 146) = (   0.8967062   0.7255047   0.5851804  )
       147        O      tau( 147) = (   0.8475634   0.1690300   0.5894443  )
       148        O      tau( 148) = (   0.5967469   0.3277190   0.0010856  )
       149        O      tau( 149) = (   0.5977236   0.5719706   0.1362794  )
       150        O      tau( 150) = (   0.8452514   1.0306297   0.4500300  )
       151        O      tau( 151) = (   0.8724256   0.4104926   0.1427328  )
       152        O      tau( 152) = (   0.6216040   0.0890503   0.4482339  )
       153        O      tau( 153) = (   0.6227974   0.6437575   0.4462371  )
       154        O      tau( 154) = (   0.8996875   0.4773239   0.4529018  )
       155        O      tau( 155) = (   0.6469079   0.0299071   0.1354334  )
       156        O      tau( 156) = (   0.8721173   0.9744163   0.1413141  )
       157        O      tau( 157) = (   1.1211708   0.9534950   1.9086669  )
       158        H      tau( 158) = (   1.0374101   0.8901699   1.9356829  )

     -------------------------------------------------
     Parameters for Dispersion (Grimme-D2) Correction:
     -------------------------------------------------
       atom      VdW radius       C_6     

        Ni         2.952        374.666
        Mn         2.952        374.666
        P          3.222        271.980
        O          2.536         24.284
        H          1.892          4.857

     number of k points=     1  Gaussian smearing, width (Ry)=  0.0100
                       cart. coord. in units 2pi/alat
        k(    1) = (   0.0000000   0.0000000   0.0000000), wk =   1.0000000

     Dense  grid:  1938023 G-vectors     FFT dimensions: ( 125, 144, 450)

     Smooth grid:   490328 G-vectors     FFT dimensions: (  80,  90, 288)

     Estimated max dynamical RAM per process >     326.29 MB

     Estimated total dynamical RAM >      20.39 GB

     Check: negative core charge=   -0.000001
     Generating pointlists ...
     new r_m :   0.0809 (alat units)  1.4085 (a.u.) for type    1
     new r_m :   0.0905 (alat units)  1.5755 (a.u.) for type    2
     new r_m :   0.0681 (alat units)  1.1855 (a.u.) for type    3
     new r_m :   0.0447 (alat units)  0.7785 (a.u.) for type    4
     new r_m :   0.0447 (alat units)  0.7785 (a.u.) for type    5

     Initial potential from superposition of free atoms

     starting charge    1092.8893, renormalised to    1093.0000

     negative rho (up, down):  1.397E-03 4.551E-04
 
     Adding external electric field

     Computed dipole along edir(3) : 
        Dipole                1.6517 Ry au,          4.1983 Debye
        Dipole field          0.0010 Ry au, 
 
        Potential amp.       -0.1115 Ry
        Total length         55.1515 bohr
 
 
     Adding external electric field

     Computed dipole along edir(3) : 
        Dipole                1.6517 Ry au,          4.1983 Debye
        Dipole field          0.0010 Ry au, 
 
        Potential amp.       -0.1115 Ry
        Total length         55.1515 bohr
 
     Starting wfcs are  815 randomized atomic wfcs

     total cpu time spent up to now is       10.6 secs

     Self-consistent Calculation

     iteration #  1     ecut=    50.00 Ry     beta= 0.10
     Davidson diagonalization with overlap
     ethr =  1.00E-02,  avg # of iterations =  6.0

     negative rho (up, down):  3.956E-01 6.351E-06
 
     Adding external electric field

     Computed dipole along edir(3) : 
        Dipole               -3.4252 Ry au,         -8.7059 Debye
        Dipole field         -0.0021 Ry au, 
 
        Potential amp.        0.2313 Ry
        Total length         55.1515 bohr
 
 
     Adding external electric field

     Computed dipole along edir(3) : 
        Dipole               -3.4252 Ry au,         -8.7059 Debye
        Dipole field         -0.0021 Ry au, 
 
        Potential amp.        0.2313 Ry
        Total length         55.1515 bohr
 

     total cpu time spent up to now is       39.0 secs

     total energy              =   -7519.85492251 Ry
     estimated scf accuracy    <     797.28153379 Ry

     total magnetization       =   219.00 Bohr mag/cell
     absolute magnetization    =   307.73 Bohr mag/cell

     iteration #  2     ecut=    50.00 Ry     beta= 0.10
     Davidson diagonalization with overlap
     ethr =  1.00E-02,  avg # of iterations =  2.0

     negative rho (up, down):  3.662E-01 6.782E-06
 
     Adding external electric field

     Computed dipole along edir(3) : 
        Dipole               -2.4695 Ry au,         -6.2767 Debye
        Dipole field         -0.0015 Ry au, 
 
        Potential amp.        0.1667 Ry
        Total length         55.1515 bohr
 
 
     Adding external electric field

     Computed dipole along edir(3) : 
        Dipole               -2.4695 Ry au,         -6.2767 Debye
        Dipole field         -0.0015 Ry au, 
 
        Potential amp.        0.1667 Ry
        Total length         55.1515 bohr
 

     total cpu time spent up to now is       55.8 secs

     total energy              =   -7602.31503189 Ry
     estimated scf accuracy    <     177.98279903 Ry

     total magnetization       =   154.87 Bohr mag/cell
     absolute magnetization    =   204.61 Bohr mag/cell

     iteration #  3     ecut=    50.00 Ry     beta= 0.10
     Davidson diagonalization with overlap
     ethr =  1.00E-02,  avg # of iterations =  1.5

     negative rho (up, down):  3.220E-01 6.887E-06
 
     Adding external electric field

     Computed dipole along edir(3) : 
        Dipole               -2.0308 Ry au,         -5.1618 Debye
        Dipole field         -0.0012 Ry au, 
 
        Potential amp.        0.1371 Ry
        Total length         55.1515 bohr
 
 
     Adding external electric field

     Computed dipole along edir(3) : 
        Dipole               -2.0308 Ry au,         -5.1618 Debye
        Dipole field         -0.0012 Ry au, 
 
        Potential amp.        0.1371 Ry
        Total length         55.1515 bohr
 

     total cpu time spent up to now is       69.7 secs

     total energy              =   -7634.51735467 Ry
     estimated scf accuracy    <     103.81442156 Ry

     total magnetization       =   132.14 Bohr mag/cell
     absolute magnetization    =   183.31 Bohr mag/cell

     iteration #  4     ecut=    50.00 Ry     beta= 0.10
     Davidson diagonalization with overlap
     ethr =  9.50E-03,  avg # of iterations =  1.5

     negative rho (up, down):  2.506E-01 2.466E-06
 
     Adding external electric field

     Computed dipole along edir(3) : 
        Dipole               -1.9463 Ry au,         -4.9470 Debye
        Dipole field         -0.0012 Ry au, 
 
        Potential amp.        0.1314 Ry
        Total length         55.1515 bohr
 
 
     Adding external electric field

     Computed dipole along edir(3) : 
        Dipole               -1.9463 Ry au,         -4.9470 Debye
        Dipole field         -0.0012 Ry au, 
 
        Potential amp.        0.1314 Ry
        Total length         55.1515 bohr
 

     total cpu time spent up to now is       83.2 secs

     total energy              =   -7666.23373695 Ry
     estimated scf accuracy    <      80.56467609 Ry

     total magnetization       =   115.65 Bohr mag/cell
     absolute magnetization    =   168.42 Bohr mag/cell

     iteration #  5     ecut=    50.00 Ry     beta= 0.10
     Davidson diagonalization with overlap
     ethr =  7.37E-03,  avg # of iterations =  1.0

     negative rho (up, down):  1.777E-02 6.202E-08
 
     Adding external electric field

     Computed dipole along edir(3) : 
        Dipole               -1.4382 Ry au,         -3.6554 Debye
        Dipole field         -0.0009 Ry au, 
 
        Potential amp.        0.0971 Ry
        Total length         55.1515 bohr
 
 
     Adding external electric field

     Computed dipole along edir(3) : 
        Dipole               -1.4382 Ry au,         -3.6554 Debye
        Dipole field         -0.0009 Ry au, 
 
        Potential amp.        0.0971 Ry
        Total length         55.1515 bohr
 

     total cpu time spent up to now is       96.2 secs

     total energy              =   -7725.57577363 Ry
     estimated scf accuracy    <      63.92813924 Ry

     total magnetization       =    97.04 Bohr mag/cell
     absolute magnetization    =   150.96 Bohr mag/cell

     iteration #  6     ecut=    50.00 Ry     beta= 0.10
     Davidson diagonalization with overlap
     ethr =  5.85E-03,  avg # of iterations =  1.0

     negative rho (up, down):  1.324E-04 2.256E-04
 
     Adding external electric field

     Computed dipole along edir(3) : 
        Dipole               -1.0444 Ry au,         -2.6547 Debye
        Dipole field         -0.0006 Ry au, 
 
        Potential amp.        0.0705 Ry
        Total length         55.1515 bohr
 
 
     Adding external electric field

     Computed dipole along edir(3) : 
        Dipole               -1.0444 Ry au,         -2.6547 Debye
        Dipole field         -0.0006 Ry au, 
 
        Potential amp.        0.0705 Ry
        Total length         55.1515 bohr
 

     total cpu time spent up to now is      108.3 secs

     total energy              =   -7736.26771740 Ry
     estimated scf accuracy    <      12.04779817 Ry

     total magnetization       =    91.00 Bohr mag/cell
     absolute magnetization    =   122.50 Bohr mag/cell

     iteration #  7     ecut=    50.00 Ry     beta= 0.10
     Davidson diagonalization with overlap
     ethr =  1.10E-03,  avg # of iterations =  6.5

     negative rho (up, down):  1.222E-04 2.185E-04
 
     Adding external electric field

     Computed dipole along edir(3) : 
        Dipole               -1.0381 Ry au,         -2.6386 Debye
        Dipole field         -0.0006 Ry au, 
 
        Potential amp.        0.0701 Ry
        Total length         55.1515 bohr
 
 
     Adding external electric field

     Computed dipole along edir(3) : 
        Dipole               -1.0381 Ry au,         -2.6386 Debye
        Dipole field         -0.0006 Ry au, 
 
        Potential amp.        0.0701 Ry
        Total length         55.1515 bohr
 

     total cpu time spent up to now is      132.2 secs

     total energy              =   -7738.28646916 Ry
     estimated scf accuracy    <      19.81622877 Ry

     total magnetization       =    70.55 Bohr mag/cell
     absolute magnetization    =    87.75 Bohr mag/cell

     iteration #  8     ecut=    50.00 Ry     beta= 0.10
     Davidson diagonalization with overlap
     ethr =  1.10E-03,  avg # of iterations =  1.0

     negative rho (up, down):  1.109E-04 1.907E-04
 
     Adding external electric field

     Computed dipole along edir(3) : 
        Dipole               -1.0474 Ry au,         -2.6621 Debye
        Dipole field         -0.0006 Ry au, 
 
        Potential amp.        0.0707 Ry
        Total length         55.1515 bohr
 
 
     Adding external electric field

     Computed dipole along edir(3) : 
        Dipole               -1.0474 Ry au,         -2.6621 Debye
        Dipole field         -0.0006 Ry au, 
 
        Potential amp.        0.0707 Ry
        Total length         55.1515 bohr
 

     total cpu time spent up to now is      144.9 secs

     total energy              =   -7738.25497844 Ry
     estimated scf accuracy    <      19.10341124 Ry

     total magnetization       =    70.76 Bohr mag/cell
     absolute magnetization    =    87.46 Bohr mag/cell

     iteration #  9     ecut=    50.00 Ry     beta= 0.10
     Davidson diagonalization with overlap
     ethr =  1.10E-03,  avg # of iterations =  1.0

     negative rho (up, down):  7.802E-04 1.660E-03
 
     Adding external electric field

     Computed dipole along edir(3) : 
        Dipole               -1.2159 Ry au,         -3.0904 Debye
        Dipole field         -0.0007 Ry au, 
 
        Potential amp.        0.0821 Ry
        Total length         55.1515 bohr
 
 
     Adding external electric field

     Computed dipole along edir(3) : 
        Dipole               -1.2159 Ry au,         -3.0904 Debye
        Dipole field         -0.0007 Ry au, 
 
        Potential amp.        0.0821 Ry
        Total length         55.1515 bohr
 

     total cpu time spent up to now is      157.2 secs

     total energy              =   -7737.51493494 Ry
     estimated scf accuracy    <      17.99738651 Ry

     total magnetization       =    70.99 Bohr mag/cell
     absolute magnetization    =    87.22 Bohr mag/cell

     iteration # 10     ecut=    50.00 Ry     beta= 0.10
     Davidson diagonalization with overlap
     ethr =  1.10E-03,  avg # of iterations =  1.0

     negative rho (up, down):  2.567E-03 4.471E-03
 
     Adding external electric field

     Computed dipole along edir(3) : 
        Dipole               -1.2512 Ry au,         -3.1802 Debye
        Dipole field         -0.0008 Ry au, 
 
        Potential amp.        0.0845 Ry
        Total length         55.1515 bohr
 
 
     Adding external electric field

     Computed dipole along edir(3) : 
        Dipole               -1.2512 Ry au,         -3.1802 Debye
        Dipole field         -0.0008 Ry au, 
 
        Potential amp.        0.0845 Ry
        Total length         55.1515 bohr
 

     total cpu time spent up to now is      169.0 secs

     total energy              =   -7737.90537468 Ry
     estimated scf accuracy    <       2.99178907 Ry

     total magnetization       =    84.86 Bohr mag/cell
     absolute magnetization    =    96.16 Bohr mag/cell

     iteration # 11     ecut=    50.00 Ry     beta= 0.10
     Davidson diagonalization with overlap
     ethr =  2.74E-04,  avg # of iterations =  2.5

     negative rho (up, down):  1.141E-03 3.073E-03
 
     Adding external electric field

     Computed dipole along edir(3) : 
        Dipole               -1.2512 Ry au,         -3.1802 Debye
        Dipole field         -0.0008 Ry au, 
 
        Potential amp.        0.0845 Ry
        Total length         55.1515 bohr
 
 
     Adding external electric field

     Computed dipole along edir(3) : 
        Dipole               -1.2512 Ry au,         -3.1802 Debye
        Dipole field         -0.0008 Ry au, 
 
        Potential amp.        0.0845 Ry
        Total length         55.1515 bohr
 

     total cpu time spent up to now is      183.3 secs

     total energy              =   -7737.97228886 Ry
     estimated scf accuracy    <       1.15932269 Ry

     total magnetization       =    89.49 Bohr mag/cell
     absolute magnetization    =    98.64 Bohr mag/cell

     iteration # 12     ecut=    50.00 Ry     beta= 0.10
     Davidson diagonalization with overlap
     ethr =  1.06E-04,  avg # of iterations = 11.0

     negative rho (up, down):  9.923E-05 5.941E-04
 
     Adding external electric field

     Computed dipole along edir(3) : 
        Dipole               -1.2909 Ry au,         -3.2813 Debye
        Dipole field         -0.0008 Ry au, 
 
        Potential amp.        0.0872 Ry
        Total length         55.1515 bohr
 
 
     Adding external electric field

     Computed dipole along edir(3) : 
        Dipole               -1.2909 Ry au,         -3.2813 Debye
        Dipole field         -0.0008 Ry au, 
 
        Potential amp.        0.0872 Ry
        Total length         55.1515 bohr
 

     total cpu time spent up to now is      203.7 secs

     total energy              =   -7738.05414842 Ry
     estimated scf accuracy    <       1.09700582 Ry

     total magnetization       =    88.13 Bohr mag/cell
     absolute magnetization    =    96.73 Bohr mag/cell

     iteration # 13     ecut=    50.00 Ry     beta= 0.10
     Davidson diagonalization with overlap
     ethr =  1.00E-04,  avg # of iterations =  1.0

     negative rho (up, down):  7.895E-04 1.744E-03
 
     Adding external electric field

     Computed dipole along edir(3) : 
        Dipole               -1.3688 Ry au,         -3.4791 Debye
        Dipole field         -0.0008 Ry au, 
 
        Potential amp.        0.0924 Ry
        Total length         55.1515 bohr
 
 
     Adding external electric field

     Computed dipole along edir(3) : 
        Dipole               -1.3688 Ry au,         -3.4791 Debye
        Dipole field         -0.0008 Ry au, 
 
        Potential amp.        0.0924 Ry
        Total length         55.1515 bohr
 

     total cpu time spent up to now is      215.3 secs

     total energy              =   -7738.12707671 Ry
     estimated scf accuracy    <       3.29602823 Ry

     total magnetization       =    83.01 Bohr mag/cell
     absolute magnetization    =    90.60 Bohr mag/cell

     iteration # 14     ecut=    50.00 Ry     beta= 0.10
     Davidson diagonalization with overlap
     ethr =  1.00E-04,  avg # of iterations =  1.5

     negative rho (up, down):  7.509E-04 1.674E-03
 
     Adding external electric field

     Computed dipole along edir(3) : 
        Dipole               -1.3705 Ry au,         -3.4836 Debye
        Dipole field         -0.0008 Ry au, 
 
        Potential amp.        0.0925 Ry
        Total length         55.1515 bohr
 
 
     Adding external electric field

     Computed dipole along edir(3) : 
        Dipole               -1.3705 Ry au,         -3.4836 Debye
        Dipole field         -0.0008 Ry au, 
 
        Potential amp.        0.0925 Ry
        Total length         55.1515 bohr
 

     total cpu time spent up to now is      227.3 secs

     total energy              =   -7738.25430343 Ry
     estimated scf accuracy    <       0.85958850 Ry

     total magnetization       =    89.64 Bohr mag/cell
     absolute magnetization    =    94.49 Bohr mag/cell

     iteration # 15     ecut=    50.00 Ry     beta= 0.10
     Davidson diagonalization with overlap
     ethr =  7.86E-05,  avg # of iterations =  1.0

     negative rho (up, down):  2.869E-04 5.023E-04
 
     Adding external electric field

     Computed dipole along edir(3) : 
        Dipole               -1.2555 Ry au,         -3.1912 Debye
        Dipole field         -0.0008 Ry au, 
 
        Potential amp.        0.0848 Ry
        Total length         55.1515 bohr
 
 
     Adding external electric field

     Computed dipole along edir(3) : 
        Dipole               -1.2555 Ry au,         -3.1912 Debye
        Dipole field         -0.0008 Ry au, 
 
        Potential amp.        0.0848 Ry
        Total length         55.1515 bohr
 

     total cpu time spent up to now is      238.4 secs

     total energy              =   -7738.29581675 Ry
     estimated scf accuracy    <       0.76407574 Ry

     total magnetization       =    89.52 Bohr mag/cell
     absolute magnetization    =    93.49 Bohr mag/cell

     iteration # 16     ecut=    50.00 Ry     beta= 0.10
     Davidson diagonalization with overlap
     ethr =  6.99E-05,  avg # of iterations =  1.5

     negative rho (up, down):  3.683E-04 4.371E-04
 
     Adding external electric field

     Computed dipole along edir(3) : 
        Dipole               -1.2572 Ry au,         -3.1955 Debye
        Dipole field         -0.0008 Ry au, 
 
        Potential amp.        0.0849 Ry
        Total length         55.1515 bohr
 
 
     Adding external electric field

     Computed dipole along edir(3) : 
        Dipole               -1.2572 Ry au,         -3.1955 Debye
        Dipole field         -0.0008 Ry au, 
 
        Potential amp.        0.0849 Ry
        Total length         55.1515 bohr
 

     total cpu time spent up to now is      250.2 secs

     total energy              =   -7738.32607564 Ry
     estimated scf accuracy    <       0.53605499 Ry

     total magnetization       =    88.91 Bohr mag/cell
     absolute magnetization    =    91.53 Bohr mag/cell

     iteration # 17     ecut=    50.00 Ry     beta= 0.10
     Davidson diagonalization with overlap
     ethr =  4.90E-05,  avg # of iterations =  1.5

     negative rho (up, down):  3.997E-04 3.204E-04
 
     Adding external electric field

     Computed dipole along edir(3) : 
        Dipole               -1.2294 Ry au,         -3.1249 Debye
        Dipole field         -0.0008 Ry au, 
 
        Potential amp.        0.0830 Ry
        Total length         55.1515 bohr
 
 
     Adding external electric field

     Computed dipole along edir(3) : 
        Dipole               -1.2294 Ry au,         -3.1249 Debye
        Dipole field         -0.0008 Ry au, 
 
        Potential amp.        0.0830 Ry
        Total length         55.1515 bohr
 

     total cpu time spent up to now is      261.6 secs

     total energy              =   -7738.32123887 Ry
     estimated scf accuracy    <       0.27100610 Ry

     total magnetization       =    88.83 Bohr mag/cell
     absolute magnetization    =    90.89 Bohr mag/cell

     iteration # 18     ecut=    50.00 Ry     beta= 0.10
     Davidson diagonalization with overlap
     ethr =  2.48E-05,  avg # of iterations =  2.0

     negative rho (up, down):  5.513E-04 2.185E-04
 
     Adding external electric field

     Computed dipole along edir(3) : 
        Dipole               -1.1869 Ry au,         -3.0167 Debye
        Dipole field         -0.0007 Ry au, 
 
        Potential amp.        0.0801 Ry
        Total length         55.1515 bohr
 
 
     Adding external electric field

     Computed dipole along edir(3) : 
        Dipole               -1.1869 Ry au,         -3.0167 Debye
        Dipole field         -0.0007 Ry au, 
 
        Potential amp.        0.0801 Ry
        Total length         55.1515 bohr
 

     total cpu time spent up to now is      273.6 secs

     total energy              =   -7738.31319729 Ry
     estimated scf accuracy    <       0.28841564 Ry

     total magnetization       =    87.88 Bohr mag/cell
     absolute magnetization    =    89.80 Bohr mag/cell

     iteration # 19     ecut=    50.00 Ry     beta= 0.10
     Davidson diagonalization with overlap
     ethr =  2.48E-05,  avg # of iterations =  1.5

     negative rho (up, down):  5.374E-04 1.429E-04
 
     Adding external electric field

     Computed dipole along edir(3) : 
        Dipole               -1.1482 Ry au,         -2.9184 Debye
        Dipole field         -0.0007 Ry au, 
 
        Potential amp.        0.0775 Ry
        Total length         55.1515 bohr
 
 
     Adding external electric field

     Computed dipole along edir(3) : 
        Dipole               -1.1482 Ry au,         -2.9184 Debye
        Dipole field         -0.0007 Ry au, 
 
        Potential amp.        0.0775 Ry
        Total length         55.1515 bohr
 

     total cpu time spent up to now is      285.9 secs

     total energy              =   -7738.30605334 Ry
     estimated scf accuracy    <       0.43174256 Ry

     total magnetization       =    88.11 Bohr mag/cell
     absolute magnetization    =    89.88 Bohr mag/cell

     iteration # 20     ecut=    50.00 Ry     beta= 0.10
     Davidson diagonalization with overlap
     ethr =  2.48E-05,  avg # of iterations =  1.5

     negative rho (up, down):  5.774E-04 1.075E-04
 
     Adding external electric field

     Computed dipole along edir(3) : 
        Dipole               -1.0594 Ry au,         -2.6928 Debye
        Dipole field         -0.0006 Ry au, 
 
        Potential amp.        0.0715 Ry
        Total length         55.1515 bohr
 
 
     Adding external electric field

     Computed dipole along edir(3) : 
        Dipole               -1.0594 Ry au,         -2.6928 Debye
        Dipole field         -0.0006 Ry au, 
 
        Potential amp.        0.0715 Ry
        Total length         55.1515 bohr
 

     total cpu time spent up to now is      298.1 secs

     total energy              =   -7738.30402204 Ry
     estimated scf accuracy    <       0.09878735 Ry

     total magnetization       =    88.92 Bohr mag/cell
     absolute magnetization    =    90.49 Bohr mag/cell

     iteration # 21     ecut=    50.00 Ry     beta= 0.10
     Davidson diagonalization with overlap
     c_bands:  3 eigenvalues not converged
     ethr =  9.04E-06,  avg # of iterations = 11.0

     negative rho (up, down):  1.919E-04 9.505E-06
 
     Adding external electric field

     Computed dipole along edir(3) : 
        Dipole               -0.9692 Ry au,         -2.4635 Debye
        Dipole field         -0.0006 Ry au, 
 
        Potential amp.        0.0654 Ry
        Total length         55.1515 bohr
 
 
     Adding external electric field

     Computed dipole along edir(3) : 
        Dipole               -0.9692 Ry au,         -2.4635 Debye
        Dipole field         -0.0006 Ry au, 
 
        Potential amp.        0.0654 Ry
        Total length         55.1515 bohr
 

     total cpu time spent up to now is      319.1 secs

     total energy              =   -7738.31419185 Ry
     estimated scf accuracy    <       0.08713484 Ry

     total magnetization       =    89.15 Bohr mag/cell
     absolute magnetization    =    90.39 Bohr mag/cell

     iteration # 22     ecut=    50.00 Ry     beta= 0.10
     Davidson diagonalization with overlap
     ethr =  7.97E-06,  avg # of iterations =  2.5

     negative rho (up, down):  1.994E-04 1.206E-05
 
     Adding external electric field

     Computed dipole along edir(3) : 
        Dipole               -0.9698 Ry au,         -2.4649 Debye
        Dipole field         -0.0006 Ry au, 
 
        Potential amp.        0.0655 Ry
        Total length         55.1515 bohr
 
 
     Adding external electric field

     Computed dipole along edir(3) : 
        Dipole               -0.9698 Ry au,         -2.4649 Debye
        Dipole field         -0.0006 Ry au, 
 
        Potential amp.        0.0655 Ry
        Total length         55.1515 bohr
 

     total cpu time spent up to now is      331.7 secs

     total energy              =   -7738.31624961 Ry
     estimated scf accuracy    <       0.24183492 Ry

     total magnetization       =    88.72 Bohr mag/cell
     absolute magnetization    =    89.91 Bohr mag/cell

     iteration # 23     ecut=    50.00 Ry     beta= 0.10
     Davidson diagonalization with overlap
     ethr =  7.97E-06,  avg # of iterations =  1.5

     negative rho (up, down):  1.991E-04 3.059E-06
 
     Adding external electric field

     Computed dipole along edir(3) : 
        Dipole               -0.9986 Ry au,         -2.5381 Debye
        Dipole field         -0.0006 Ry au, 
 
        Potential amp.        0.0674 Ry
        Total length         55.1515 bohr
 
 
     Adding external electric field

     Computed dipole along edir(3) : 
        Dipole               -0.9986 Ry au,         -2.5381 Debye
        Dipole field         -0.0006 Ry au, 
 
        Potential amp.        0.0674 Ry
        Total length         55.1515 bohr
 

     total cpu time spent up to now is      343.3 secs

     total energy              =   -7738.31080592 Ry
     estimated scf accuracy    <       0.26234999 Ry

     total magnetization       =    88.62 Bohr mag/cell
     absolute magnetization    =    89.79 Bohr mag/cell

     iteration # 24     ecut=    50.00 Ry     beta= 0.10
     Davidson diagonalization with overlap
     ethr =  7.97E-06,  avg # of iterations =  1.5

     negative rho (up, down):  7.766E-05 1.134E-05
 
     Adding external electric field

     Computed dipole along edir(3) : 
        Dipole               -0.9084 Ry au,         -2.3088 Debye
        Dipole field         -0.0006 Ry au, 
 
        Potential amp.        0.0613 Ry
        Total length         55.1515 bohr
 
 
     Adding external electric field

     Computed dipole along edir(3) : 
        Dipole               -0.9084 Ry au,         -2.3088 Debye
        Dipole field         -0.0006 Ry au, 
 
        Potential amp.        0.0613 Ry
        Total length         55.1515 bohr
 

     total cpu time spent up to now is      355.6 secs

     total energy              =   -7738.31841018 Ry
     estimated scf accuracy    <       0.11517659 Ry

     total magnetization       =    88.84 Bohr mag/cell
     absolute magnetization    =    90.15 Bohr mag/cell

     iteration # 25     ecut=    50.00 Ry     beta= 0.10
     Davidson diagonalization with overlap
     ethr =  7.97E-06,  avg # of iterations =  2.0

     negative rho (up, down):  4.518E-05 3.248E-06
 
     Adding external electric field

     Computed dipole along edir(3) : 
        Dipole               -0.9323 Ry au,         -2.3696 Debye
        Dipole field         -0.0006 Ry au, 
 
        Potential amp.        0.0629 Ry
        Total length         55.1515 bohr
 
 
     Adding external electric field

     Computed dipole along edir(3) : 
        Dipole               -0.9323 Ry au,         -2.3696 Debye
        Dipole field         -0.0006 Ry au, 
 
        Potential amp.        0.0629 Ry
        Total length         55.1515 bohr
 

     total cpu time spent up to now is      368.1 secs

     total energy              =   -7738.32283209 Ry
     estimated scf accuracy    <       0.46472206 Ry

     total magnetization       =    87.32 Bohr mag/cell
     absolute magnetization    =    88.88 Bohr mag/cell

     iteration # 26     ecut=    50.00 Ry     beta= 0.10
     Davidson diagonalization with overlap
     ethr =  7.97E-06,  avg # of iterations =  1.5

     negative rho (up, down):  6.691E-05 1.137E-05
 
     Adding external electric field

     Computed dipole along edir(3) : 
        Dipole               -0.8778 Ry au,         -2.2312 Debye
        Dipole field         -0.0005 Ry au, 
 
        Potential amp.        0.0593 Ry
        Total length         55.1515 bohr
 
 
     Adding external electric field

     Computed dipole along edir(3) : 
        Dipole               -0.8778 Ry au,         -2.2312 Debye
        Dipole field         -0.0005 Ry au, 
 
        Potential amp.        0.0593 Ry
        Total length         55.1515 bohr
 

     total cpu time spent up to now is      380.0 secs

     total energy              =   -7738.32449067 Ry
     estimated scf accuracy    <       0.47064189 Ry

     total magnetization       =    87.76 Bohr mag/cell
     absolute magnetization    =    89.27 Bohr mag/cell

     iteration # 27     ecut=    50.00 Ry     beta= 0.10
     Davidson diagonalization with overlap
     ethr =  7.97E-06,  avg # of iterations =  1.5

     negative rho (up, down):  2.790E-04 3.871E-05
 
     Adding external electric field

     Computed dipole along edir(3) : 
        Dipole               -1.0353 Ry au,         -2.6313 Debye
        Dipole field         -0.0006 Ry au, 
 
        Potential amp.        0.0699 Ry
        Total length         55.1515 bohr
 
 
     Adding external electric field

     Computed dipole along edir(3) : 
        Dipole               -1.0353 Ry au,         -2.6313 Debye
        Dipole field         -0.0006 Ry au, 
 
        Potential amp.        0.0699 Ry
        Total length         55.1515 bohr
 

     total cpu time spent up to now is      392.0 secs

     total energy              =   -7738.30779624 Ry
     estimated scf accuracy    <       0.63385263 Ry

     total magnetization       =    87.59 Bohr mag/cell
     absolute magnetization    =    89.01 Bohr mag/cell

     iteration # 28     ecut=    50.00 Ry     beta= 0.10
     Davidson diagonalization with overlap
     ethr =  7.97E-06,  avg # of iterations =  2.0

     negative rho (up, down):  2.908E-04 3.793E-05
 
     Adding external electric field

     Computed dipole along edir(3) : 
        Dipole               -1.0417 Ry au,         -2.6477 Debye
        Dipole field         -0.0006 Ry au, 
 
        Potential amp.        0.0703 Ry
        Total length         55.1515 bohr
 
 
     Adding external electric field

     Computed dipole along edir(3) : 
        Dipole               -1.0417 Ry au,         -2.6477 Debye
        Dipole field         -0.0006 Ry au, 
 
        Potential amp.        0.0703 Ry
        Total length         55.1515 bohr
 

     total cpu time spent up to now is      405.2 secs

     total energy              =   -7738.31199517 Ry
     estimated scf accuracy    <       0.10844954 Ry

     total magnetization       =    88.72 Bohr mag/cell
     absolute magnetization    =    89.97 Bohr mag/cell

     iteration # 29     ecut=    50.00 Ry     beta= 0.10
     Davidson diagonalization with overlap
     ethr =  7.97E-06,  avg # of iterations =  1.0

     negative rho (up, down):  4.086E-04 1.150E-04
 
     Adding external electric field

     Computed dipole along edir(3) : 
        Dipole               -1.0251 Ry au,         -2.6056 Debye
        Dipole field         -0.0006 Ry au, 
 
        Potential amp.        0.0692 Ry
        Total length         55.1515 bohr
 
 
     Adding external electric field

     Computed dipole along edir(3) : 
        Dipole               -1.0251 Ry au,         -2.6056 Debye
        Dipole field         -0.0006 Ry au, 
 
        Potential amp.        0.0692 Ry
        Total length         55.1515 bohr
 

     total cpu time spent up to now is      417.0 secs

     total energy              =   -7738.31632582 Ry
     estimated scf accuracy    <       0.10394373 Ry

     total magnetization       =    88.71 Bohr mag/cell
     absolute magnetization    =    89.96 Bohr mag/cell

     iteration # 30     ecut=    50.00 Ry     beta= 0.10
     Davidson diagonalization with overlap
     ethr =  7.97E-06,  avg # of iterations =  2.5

     negative rho (up, down):  7.600E-04 6.138E-04
 
     Adding external electric field

     Computed dipole along edir(3) : 
        Dipole               -0.8593 Ry au,         -2.1841 Debye
        Dipole field         -0.0005 Ry au, 
 
        Potential amp.        0.0580 Ry
        Total length         55.1515 bohr
 
 
     Adding external electric field

     Computed dipole along edir(3) : 
        Dipole               -0.8593 Ry au,         -2.1841 Debye
        Dipole field         -0.0005 Ry au, 
 
        Potential amp.        0.0580 Ry
        Total length         55.1515 bohr
 

     total cpu time spent up to now is      430.0 secs

     total energy              =   -7738.31975035 Ry
     estimated scf accuracy    <       0.03478414 Ry

     total magnetization       =    88.92 Bohr mag/cell
     absolute magnetization    =    90.20 Bohr mag/cell

     iteration # 31     ecut=    50.00 Ry     beta= 0.10
     Davidson diagonalization with overlap
     c_bands:  2 eigenvalues not converged
     ethr =  3.18E-06,  avg # of iterations = 11.0

     negative rho (up, down):  7.691E-04 7.939E-04
 
     Adding external electric field

     Computed dipole along edir(3) : 
        Dipole               -0.7326 Ry au,         -1.8620 Debye
        Dipole field         -0.0004 Ry au, 
 
        Potential amp.        0.0495 Ry
        Total length         55.1515 bohr
 
 
     Adding external electric field

     Computed dipole along edir(3) : 
        Dipole               -0.7326 Ry au,         -1.8620 Debye
        Dipole field         -0.0004 Ry au, 
 
        Potential amp.        0.0495 Ry
        Total length         55.1515 bohr
 

     total cpu time spent up to now is      450.7 secs

     total energy              =   -7738.31918380 Ry
     estimated scf accuracy    <       0.01912438 Ry

     total magnetization       =    88.73 Bohr mag/cell
     absolute magnetization    =    90.04 Bohr mag/cell

     iteration # 32     ecut=    50.00 Ry     beta= 0.10
     Davidson diagonalization with overlap
     c_bands:  1 eigenvalues not converged
     c_bands:  1 eigenvalues not converged
     ethr =  1.75E-06,  avg # of iterations = 20.0

     negative rho (up, down):  6.889E-04 7.211E-04
 
     Adding external electric field

     Computed dipole along edir(3) : 
        Dipole               -0.7487 Ry au,         -1.9029 Debye
        Dipole field         -0.0005 Ry au, 
 
        Potential amp.        0.0505 Ry
        Total length         55.1515 bohr
 
 
     Adding external electric field

     Computed dipole along edir(3) : 
        Dipole               -0.7487 Ry au,         -1.9029 Debye
        Dipole field         -0.0005 Ry au, 
 
        Potential amp.        0.0505 Ry
        Total length         55.1515 bohr
 

     total cpu time spent up to now is      474.4 secs

     total energy              =   -7738.31967877 Ry
     estimated scf accuracy    <       0.04676879 Ry

     total magnetization       =    88.44 Bohr mag/cell
     absolute magnetization    =    89.81 Bohr mag/cell

     iteration # 33     ecut=    50.00 Ry     beta= 0.10
     Davidson diagonalization with overlap
     ethr =  1.75E-06,  avg # of iterations =  7.5

     negative rho (up, down):  6.655E-04 6.806E-04
 
     Adding external electric field

     Computed dipole along edir(3) : 
        Dipole               -0.7685 Ry au,         -1.9534 Debye
        Dipole field         -0.0005 Ry au, 
 
        Potential amp.        0.0519 Ry
        Total length         55.1515 bohr
 
 
     Adding external electric field

     Computed dipole along edir(3) : 
        Dipole               -0.7685 Ry au,         -1.9534 Debye
        Dipole field         -0.0005 Ry au, 
 
        Potential amp.        0.0519 Ry
        Total length         55.1515 bohr
 

     total cpu time spent up to now is      490.4 secs

     total energy              =   -7738.32015989 Ry
     estimated scf accuracy    <       0.03149257 Ry

     total magnetization       =    88.51 Bohr mag/cell
     absolute magnetization    =    89.94 Bohr mag/cell

     iteration # 34     ecut=    50.00 Ry     beta= 0.10
     Davidson diagonalization with overlap
     ethr =  1.75E-06,  avg # of iterations =  1.0

     negative rho (up, down):  9.316E-04 9.661E-04
 
     Adding external electric field

     Computed dipole along edir(3) : 
        Dipole               -0.6937 Ry au,         -1.7633 Debye
        Dipole field         -0.0004 Ry au, 
 
        Potential amp.        0.0468 Ry
        Total length         55.1515 bohr
 
 
     Adding external electric field

     Computed dipole along edir(3) : 
        Dipole               -0.6937 Ry au,         -1.7633 Debye
        Dipole field         -0.0004 Ry au, 
 
        Potential amp.        0.0468 Ry
        Total length         55.1515 bohr
 

     total cpu time spent up to now is      501.6 secs

     total energy              =   -7738.31913936 Ry
     estimated scf accuracy    <       0.03097509 Ry

     total magnetization       =    88.52 Bohr mag/cell
     absolute magnetization    =    89.96 Bohr mag/cell

     iteration # 35     ecut=    50.00 Ry     beta= 0.10
     Davidson diagonalization with overlap
     ethr =  1.75E-06,  avg # of iterations =  2.0

     negative rho (up, down):  9.240E-04 8.758E-04
 
     Adding external electric field

     Computed dipole along edir(3) : 
        Dipole               -0.6367 Ry au,         -1.6183 Debye
        Dipole field         -0.0004 Ry au, 
 
        Potential amp.        0.0430 Ry
        Total length         55.1515 bohr
 
 
     Adding external electric field

     Computed dipole along edir(3) : 
        Dipole               -0.6367 Ry au,         -1.6183 Debye
        Dipole field         -0.0004 Ry au, 
 
        Potential amp.        0.0430 Ry
        Total length         55.1515 bohr
 

     total cpu time spent up to now is      514.3 secs

     total energy              =   -7738.31864905 Ry
     estimated scf accuracy    <       0.02121171 Ry

     total magnetization       =    88.51 Bohr mag/cell
     absolute magnetization    =    89.94 Bohr mag/cell

     iteration # 36     ecut=    50.00 Ry     beta= 0.10
     Davidson diagonalization with overlap
     ethr =  1.75E-06,  avg # of iterations =  2.0

     negative rho (up, down):  1.816E-03 1.812E-03
 
     Adding external electric field

     Computed dipole along edir(3) : 
        Dipole               -0.4812 Ry au,         -1.2231 Debye
        Dipole field         -0.0003 Ry au, 
 
        Potential amp.        0.0325 Ry
        Total length         55.1515 bohr
 
 
     Adding external electric field

     Computed dipole along edir(3) : 
        Dipole               -0.4812 Ry au,         -1.2231 Debye
        Dipole field         -0.0003 Ry au, 
 
        Potential amp.        0.0325 Ry
        Total length         55.1515 bohr
 

     total cpu time spent up to now is      527.2 secs

     total energy              =   -7738.31753754 Ry
     estimated scf accuracy    <       0.01507660 Ry

     total magnetization       =    88.55 Bohr mag/cell
     absolute magnetization    =    89.96 Bohr mag/cell

     iteration # 37     ecut=    50.00 Ry     beta= 0.10
     Davidson diagonalization with overlap
     ethr =  1.38E-06,  avg # of iterations =  8.5

     negative rho (up, down):  1.358E-03 1.330E-03
 
     Adding external electric field

     Computed dipole along edir(3) : 
        Dipole               -0.4783 Ry au,         -1.2158 Debye
        Dipole field         -0.0003 Ry au, 
 
        Potential amp.        0.0323 Ry
        Total length         55.1515 bohr
 
 
     Adding external electric field

     Computed dipole along edir(3) : 
        Dipole               -0.4783 Ry au,         -1.2158 Debye
        Dipole field         -0.0003 Ry au, 
 
        Potential amp.        0.0323 Ry
        Total length         55.1515 bohr
 

     total cpu time spent up to now is      545.2 secs

     total energy              =   -7738.31784668 Ry
     estimated scf accuracy    <       0.01116161 Ry

     total magnetization       =    88.52 Bohr mag/cell
     absolute magnetization    =    89.81 Bohr mag/cell

     iteration # 38     ecut=    50.00 Ry     beta= 0.10
     Davidson diagonalization with overlap
     ethr =  1.02E-06,  avg # of iterations =  1.5

     negative rho (up, down):  6.481E-04 6.624E-04
 
     Adding external electric field

     Computed dipole along edir(3) : 
        Dipole               -0.4216 Ry au,         -1.0715 Debye
        Dipole field         -0.0003 Ry au, 
 
        Potential amp.        0.0285 Ry
        Total length         55.1515 bohr
 
 
     Adding external electric field

     Computed dipole along edir(3) : 
        Dipole               -0.4216 Ry au,         -1.0715 Debye
        Dipole field         -0.0003 Ry au, 
 
        Potential amp.        0.0285 Ry
        Total length         55.1515 bohr
 

     total cpu time spent up to now is      557.5 secs

     total energy              =   -7738.31773262 Ry
     estimated scf accuracy    <       0.01106128 Ry

     total magnetization       =    88.51 Bohr mag/cell
     absolute magnetization    =    89.79 Bohr mag/cell

     iteration # 39     ecut=    50.00 Ry     beta= 0.10
     Davidson diagonalization with overlap
     ethr =  1.01E-06,  avg # of iterations =  2.0

     negative rho (up, down):  1.353E-04 1.590E-04
 
     Adding external electric field

     Computed dipole along edir(3) : 
        Dipole               -0.3316 Ry au,         -0.8427 Debye
        Dipole field         -0.0002 Ry au, 
 
        Potential amp.        0.0224 Ry
        Total length         55.1515 bohr
 
 
     Adding external electric field

     Computed dipole along edir(3) : 
        Dipole               -0.3316 Ry au,         -0.8427 Debye
        Dipole field         -0.0002 Ry au, 
 
        Potential amp.        0.0224 Ry
        Total length         55.1515 bohr
 

     total cpu time spent up to now is      571.2 secs

     total energy              =   -7738.31766377 Ry
     estimated scf accuracy    <       0.00928262 Ry

     total magnetization       =    88.49 Bohr mag/cell
     absolute magnetization    =    89.77 Bohr mag/cell

     iteration # 40     ecut=    50.00 Ry     beta= 0.10
     Davidson diagonalization with overlap
     ethr =  8.49E-07,  avg # of iterations =  4.5

     negative rho (up, down):  2.100E-04 2.386E-04
 
     Adding external electric field

     Computed dipole along edir(3) : 
        Dipole               -0.2887 Ry au,         -0.7338 Debye
        Dipole field         -0.0002 Ry au, 
 
        Potential amp.        0.0195 Ry
        Total length         55.1515 bohr
 
 
     Adding external electric field

     Computed dipole along edir(3) : 
        Dipole               -0.2887 Ry au,         -0.7338 Debye
        Dipole field         -0.0002 Ry au, 
 
        Potential amp.        0.0195 Ry
        Total length         55.1515 bohr
 

     total cpu time spent up to now is      585.2 secs

     total energy              =   -7738.31779169 Ry
     estimated scf accuracy    <       0.00410233 Ry

     total magnetization       =    88.53 Bohr mag/cell
     absolute magnetization    =    89.87 Bohr mag/cell

     iteration # 41     ecut=    50.00 Ry     beta= 0.10
     Davidson diagonalization with overlap
     ethr =  3.75E-07,  avg # of iterations =  4.0

     negative rho (up, down):  5.416E-04 5.720E-04
 
     Adding external electric field

     Computed dipole along edir(3) : 
        Dipole               -0.2706 Ry au,         -0.6879 Debye
        Dipole field         -0.0002 Ry au, 
 
        Potential amp.        0.0183 Ry
        Total length         55.1515 bohr
 
 
     Adding external electric field

     Computed dipole along edir(3) : 
        Dipole               -0.2706 Ry au,         -0.6879 Debye
        Dipole field         -0.0002 Ry au, 
 
        Potential amp.        0.0183 Ry
        Total length         55.1515 bohr
 

     total cpu time spent up to now is      599.2 secs

     total energy              =   -7738.31769431 Ry
     estimated scf accuracy    <       0.00254769 Ry

     total magnetization       =    88.52 Bohr mag/cell
     absolute magnetization    =    89.88 Bohr mag/cell

     iteration # 42     ecut=    50.00 Ry     beta= 0.10
     Davidson diagonalization with overlap
     ethr =  2.33E-07,  avg # of iterations =  4.5

     negative rho (up, down):  1.035E-04 9.134E-05
 
     Adding external electric field

     Computed dipole along edir(3) : 
        Dipole               -0.3112 Ry au,         -0.7911 Debye
        Dipole field         -0.0002 Ry au, 
 
        Potential amp.        0.0210 Ry
        Total length         55.1515 bohr
 
 
     Adding external electric field

     Computed dipole along edir(3) : 
        Dipole               -0.3112 Ry au,         -0.7911 Debye
        Dipole field         -0.0002 Ry au, 
 
        Potential amp.        0.0210 Ry
        Total length         55.1515 bohr
 

     total cpu time spent up to now is      613.3 secs

     total energy              =   -7738.31770092 Ry
     estimated scf accuracy    <       0.00135891 Ry

     total magnetization       =    88.50 Bohr mag/cell
     absolute magnetization    =    89.90 Bohr mag/cell

     iteration # 43     ecut=    50.00 Ry     beta= 0.10
     Davidson diagonalization with overlap
     ethr =  1.24E-07,  avg # of iterations =  2.0

     negative rho (up, down):  5.153E-05 3.510E-05
 
     Adding external electric field

     Computed dipole along edir(3) : 
        Dipole               -0.3261 Ry au,         -0.8288 Debye
        Dipole field         -0.0002 Ry au, 
 
        Potential amp.        0.0220 Ry
        Total length         55.1515 bohr
 
 
     Adding external electric field

     Computed dipole along edir(3) : 
        Dipole               -0.3261 Ry au,         -0.8288 Debye
        Dipole field         -0.0002 Ry au, 
 
        Potential amp.        0.0220 Ry
        Total length         55.1515 bohr
 

     total cpu time spent up to now is      625.4 secs

     total energy              =   -7738.31771988 Ry
     estimated scf accuracy    <       0.00103055 Ry

     total magnetization       =    88.50 Bohr mag/cell
     absolute magnetization    =    89.90 Bohr mag/cell

     iteration # 44     ecut=    50.00 Ry     beta= 0.10
     Davidson diagonalization with overlap
     ethr =  9.43E-08,  avg # of iterations =  2.0

     negative rho (up, down):  1.511E-06 4.135E-07
 
     Adding external electric field

     Computed dipole along edir(3) : 
        Dipole               -0.3572 Ry au,         -0.9079 Debye
        Dipole field         -0.0002 Ry au, 
 
        Potential amp.        0.0241 Ry
        Total length         55.1515 bohr
 
 
     Adding external electric field

     Computed dipole along edir(3) : 
        Dipole               -0.3572 Ry au,         -0.9079 Debye
        Dipole field         -0.0002 Ry au, 
 
        Potential amp.        0.0241 Ry
        Total length         55.1515 bohr
 

     total cpu time spent up to now is      638.1 secs

     total energy              =   -7738.31772576 Ry
     estimated scf accuracy    <       0.00087830 Ry

     total magnetization       =    88.50 Bohr mag/cell
     absolute magnetization    =    89.89 Bohr mag/cell

     iteration # 45     ecut=    50.00 Ry     beta= 0.10
     Davidson diagonalization with overlap
     ethr =  8.04E-08,  avg # of iterations =  2.0

     negative rho (up, down):  1.351E-05 4.468E-06
 
     Adding external electric field

     Computed dipole along edir(3) : 
        Dipole               -0.3583 Ry au,         -0.9107 Debye
        Dipole field         -0.0002 Ry au, 
 
        Potential amp.        0.0242 Ry
        Total length         55.1515 bohr
 
 
     Adding external electric field

     Computed dipole along edir(3) : 
        Dipole               -0.3583 Ry au,         -0.9107 Debye
        Dipole field         -0.0002 Ry au, 
 
        Potential amp.        0.0242 Ry
        Total length         55.1515 bohr
 

     total cpu time spent up to now is      650.6 secs

     total energy              =   -7738.31778594 Ry
     estimated scf accuracy    <       0.00060153 Ry

     total magnetization       =    88.48 Bohr mag/cell
     absolute magnetization    =    89.87 Bohr mag/cell

     iteration # 46     ecut=    50.00 Ry     beta= 0.10
     Davidson diagonalization with overlap
     ethr =  5.50E-08,  avg # of iterations =  2.0

     negative rho (up, down):  6.248E-05 3.730E-05
 
     Adding external electric field

     Computed dipole along edir(3) : 
        Dipole               -0.3550 Ry au,         -0.9022 Debye
        Dipole field         -0.0002 Ry au, 
 
        Potential amp.        0.0240 Ry
        Total length         55.1515 bohr
 
 
     Adding external electric field

     Computed dipole along edir(3) : 
        Dipole               -0.3550 Ry au,         -0.9022 Debye
        Dipole field         -0.0002 Ry au, 
 
        Potential amp.        0.0240 Ry
        Total length         55.1515 bohr
 

     total cpu time spent up to now is      662.9 secs

     total energy              =   -7738.31783864 Ry
     estimated scf accuracy    <       0.00045885 Ry

     total magnetization       =    88.47 Bohr mag/cell
     absolute magnetization    =    89.87 Bohr mag/cell

     iteration # 47     ecut=    50.00 Ry     beta= 0.10
     Davidson diagonalization with overlap
     ethr =  4.20E-08,  avg # of iterations =  2.0

     negative rho (up, down):  3.890E-05 1.745E-05
 
     Adding external electric field

     Computed dipole along edir(3) : 
        Dipole               -0.3648 Ry au,         -0.9272 Debye
        Dipole field         -0.0002 Ry au, 
 
        Potential amp.        0.0246 Ry
        Total length         55.1515 bohr
 
 
     Adding external electric field

     Computed dipole along edir(3) : 
        Dipole               -0.3648 Ry au,         -0.9272 Debye
        Dipole field         -0.0002 Ry au, 
 
        Potential amp.        0.0246 Ry
        Total length         55.1515 bohr
 

     total cpu time spent up to now is      676.0 secs

     total energy              =   -7738.31785223 Ry
     estimated scf accuracy    <       0.00037975 Ry

     total magnetization       =    88.47 Bohr mag/cell
     absolute magnetization    =    89.85 Bohr mag/cell

     iteration # 48     ecut=    50.00 Ry     beta= 0.10
     Davidson diagonalization with overlap
     ethr =  3.47E-08,  avg # of iterations =  2.0

     negative rho (up, down):  7.728E-05 3.766E-05
 
     Adding external electric field

     Computed dipole along edir(3) : 
        Dipole               -0.3635 Ry au,         -0.9239 Debye
        Dipole field         -0.0002 Ry au, 
 
        Potential amp.        0.0245 Ry
        Total length         55.1515 bohr
 
 
     Adding external electric field

     Computed dipole along edir(3) : 
        Dipole               -0.3635 Ry au,         -0.9239 Debye
        Dipole field         -0.0002 Ry au, 
 
        Potential amp.        0.0245 Ry
        Total length         55.1515 bohr
 

     total cpu time spent up to now is      688.5 secs

     total energy              =   -7738.31787838 Ry
     estimated scf accuracy    <       0.00024953 Ry

     total magnetization       =    88.47 Bohr mag/cell
     absolute magnetization    =    89.84 Bohr mag/cell

     iteration # 49     ecut=    50.00 Ry     beta= 0.10
     Davidson diagonalization with overlap
     ethr =  2.28E-08,  avg # of iterations =  1.5

     negative rho (up, down):  5.303E-04 4.124E-04
 
     Adding external electric field

     Computed dipole along edir(3) : 
        Dipole               -0.3405 Ry au,         -0.8656 Debye
        Dipole field         -0.0002 Ry au, 
 
        Potential amp.        0.0230 Ry
        Total length         55.1515 bohr
 
 
     Adding external electric field

     Computed dipole along edir(3) : 
        Dipole               -0.3405 Ry au,         -0.8656 Debye
        Dipole field         -0.0002 Ry au, 
 
        Potential amp.        0.0230 Ry
        Total length         55.1515 bohr
 

     total cpu time spent up to now is      700.4 secs

     total energy              =   -7738.31791620 Ry
     estimated scf accuracy    <       0.00017688 Ry

     total magnetization       =    88.48 Bohr mag/cell
     absolute magnetization    =    89.84 Bohr mag/cell

     iteration # 50     ecut=    50.00 Ry     beta= 0.10
     Davidson diagonalization with overlap
     ethr =  1.62E-08,  avg # of iterations =  2.0

     negative rho (up, down):  9.343E-04 7.125E-04
 
     Adding external electric field

     Computed dipole along edir(3) : 
        Dipole               -0.3237 Ry au,         -0.8228 Debye
        Dipole field         -0.0002 Ry au, 
 
        Potential amp.        0.0219 Ry
        Total length         55.1515 bohr
 
 
     Adding external electric field

     Computed dipole along edir(3) : 
        Dipole               -0.3237 Ry au,         -0.8228 Debye
        Dipole field         -0.0002 Ry au, 
 
        Potential amp.        0.0219 Ry
        Total length         55.1515 bohr
 

     total cpu time spent up to now is      712.8 secs

     total energy              =   -7738.31794854 Ry
     estimated scf accuracy    <       0.00011171 Ry

     total magnetization       =    88.48 Bohr mag/cell
     absolute magnetization    =    89.85 Bohr mag/cell

     iteration # 51     ecut=    50.00 Ry     beta= 0.10
     Davidson diagonalization with overlap
     ethr =  1.02E-08,  avg # of iterations =  2.0

     negative rho (up, down):  1.313E-03 1.004E-03
 
     Adding external electric field

     Computed dipole along edir(3) : 
        Dipole               -0.3151 Ry au,         -0.8009 Debye
        Dipole field         -0.0002 Ry au, 
 
        Potential amp.        0.0213 Ry
        Total length         55.1515 bohr
 
 
     Adding external electric field

     Computed dipole along edir(3) : 
        Dipole               -0.3151 Ry au,         -0.8009 Debye
        Dipole field         -0.0002 Ry au, 
 
        Potential amp.        0.0213 Ry
        Total length         55.1515 bohr
 

     total cpu time spent up to now is      726.0 secs

     total energy              =   -7738.31796416 Ry
     estimated scf accuracy    <       0.00004722 Ry

     total magnetization       =    88.48 Bohr mag/cell
     absolute magnetization    =    89.85 Bohr mag/cell

     iteration # 52     ecut=    50.00 Ry     beta= 0.10
     Davidson diagonalization with overlap
     ethr =  4.32E-09,  avg # of iterations =  2.0

     negative rho (up, down):  1.256E-03 8.872E-04
 
     Adding external electric field

     Computed dipole along edir(3) : 
        Dipole               -0.3153 Ry au,         -0.8015 Debye
        Dipole field         -0.0002 Ry au, 
 
        Potential amp.        0.0213 Ry
        Total length         55.1515 bohr
 
 
     Adding external electric field

     Computed dipole along edir(3) : 
        Dipole               -0.3153 Ry au,         -0.8015 Debye
        Dipole field         -0.0002 Ry au, 
 
        Potential amp.        0.0213 Ry
        Total length         55.1515 bohr
 

     total cpu time spent up to now is      738.9 secs

     total energy              =   -7738.31796850 Ry
     estimated scf accuracy    <       0.00002191 Ry

     total magnetization       =    88.48 Bohr mag/cell
     absolute magnetization    =    89.86 Bohr mag/cell

     iteration # 53     ecut=    50.00 Ry     beta= 0.10
     Davidson diagonalization with overlap
     ethr =  2.00E-09,  avg # of iterations =  2.0

     negative rho (up, down):  1.567E-03 1.168E-03
 
     Adding external electric field

     Computed dipole along edir(3) : 
        Dipole               -0.3078 Ry au,         -0.7824 Debye
        Dipole field         -0.0002 Ry au, 
 
        Potential amp.        0.0208 Ry
        Total length         55.1515 bohr
 
 
     Adding external electric field

     Computed dipole along edir(3) : 
        Dipole               -0.3078 Ry au,         -0.7824 Debye
        Dipole field         -0.0002 Ry au, 
 
        Potential amp.        0.0208 Ry
        Total length         55.1515 bohr
 

     total cpu time spent up to now is      751.1 secs

     total energy              =   -7738.31797106 Ry
     estimated scf accuracy    <       0.00001755 Ry

     total magnetization       =    88.48 Bohr mag/cell
     absolute magnetization    =    89.86 Bohr mag/cell

     iteration # 54     ecut=    50.00 Ry     beta= 0.10
     Davidson diagonalization with overlap
     ethr =  1.61E-09,  avg # of iterations =  2.0

     negative rho (up, down):  1.326E-03 8.683E-04
 
     Adding external electric field

     Computed dipole along edir(3) : 
        Dipole               -0.3069 Ry au,         -0.7800 Debye
        Dipole field         -0.0002 Ry au, 
 
        Potential amp.        0.0207 Ry
        Total length         55.1515 bohr
 
 
     Adding external electric field

     Computed dipole along edir(3) : 
        Dipole               -0.3069 Ry au,         -0.7800 Debye
        Dipole field         -0.0002 Ry au, 
 
        Potential amp.        0.0207 Ry
        Total length         55.1515 bohr
 

     total cpu time spent up to now is      764.2 secs

     total energy              =   -7738.31797041 Ry
     estimated scf accuracy    <       0.00000702 Ry

     total magnetization       =    88.48 Bohr mag/cell
     absolute magnetization    =    89.86 Bohr mag/cell

     iteration # 55     ecut=    50.00 Ry     beta= 0.10
     Davidson diagonalization with overlap
     ethr =  6.42E-10,  avg # of iterations =  1.5

     negative rho (up, down):  1.178E-03 7.041E-04
 
     Adding external electric field

     Computed dipole along edir(3) : 
        Dipole               -0.3060 Ry au,         -0.7777 Debye
        Dipole field         -0.0002 Ry au, 
 
        Potential amp.        0.0207 Ry
        Total length         55.1515 bohr
 
 
     Adding external electric field

     Computed dipole along edir(3) : 
        Dipole               -0.3060 Ry au,         -0.7777 Debye
        Dipole field         -0.0002 Ry au, 
 
        Potential amp.        0.0207 Ry
        Total length         55.1515 bohr
 

     total cpu time spent up to now is      776.1 secs

     total energy              =   -7738.31796979 Ry
     estimated scf accuracy    <       0.00000293 Ry

     total magnetization       =    88.48 Bohr mag/cell
     absolute magnetization    =    89.86 Bohr mag/cell

     iteration # 56     ecut=    50.00 Ry     beta= 0.10
     Davidson diagonalization with overlap
     ethr =  2.68E-10,  avg # of iterations =  4.5

     negative rho (up, down):  1.177E-03 7.088E-04
 
     Adding external electric field

     Computed dipole along edir(3) : 
        Dipole               -0.3049 Ry au,         -0.7749 Debye
        Dipole field         -0.0002 Ry au, 
 
        Potential amp.        0.0206 Ry
        Total length         55.1515 bohr
 
 
     Adding external electric field

     Computed dipole along edir(3) : 
        Dipole               -0.3049 Ry au,         -0.7749 Debye
        Dipole field         -0.0002 Ry au, 
 
        Potential amp.        0.0206 Ry
        Total length         55.1515 bohr
 

     total cpu time spent up to now is      789.4 secs

     total energy              =   -7738.31796995 Ry
     estimated scf accuracy    <       0.00000186 Ry

     total magnetization       =    88.48 Bohr mag/cell
     absolute magnetization    =    89.86 Bohr mag/cell

     iteration # 57     ecut=    50.00 Ry     beta= 0.10
     Davidson diagonalization with overlap
     ethr =  1.70E-10,  avg # of iterations =  2.0

     negative rho (up, down):  1.184E-03 7.176E-04
 
     Adding external electric field

     Computed dipole along edir(3) : 
        Dipole               -0.3048 Ry au,         -0.7748 Debye
        Dipole field         -0.0002 Ry au, 
 
        Potential amp.        0.0206 Ry
        Total length         55.1515 bohr
 
 
     Adding external electric field

     Computed dipole along edir(3) : 
        Dipole               -0.3048 Ry au,         -0.7748 Debye
        Dipole field         -0.0002 Ry au, 
 
        Potential amp.        0.0206 Ry
        Total length         55.1515 bohr
 

     total cpu time spent up to now is      801.5 secs

     total energy              =   -7738.31797022 Ry
     estimated scf accuracy    <       0.00000108 Ry

     total magnetization       =    88.48 Bohr mag/cell
     absolute magnetization    =    89.86 Bohr mag/cell

     iteration # 58     ecut=    50.00 Ry     beta= 0.10
     Davidson diagonalization with overlap
     ethr =  9.86E-11,  avg # of iterations =  2.0

     negative rho (up, down):  1.052E-03 5.888E-04
 
     Adding external electric field

     Computed dipole along edir(3) : 
        Dipole               -0.3000 Ry au,         -0.7626 Debye
[...]
    -5.9797  -5.9636  -5.9150  -5.9073  -5.8858  -5.8758  -5.8751  -5.8427
    -5.8218  -5.8002  -5.7484  -5.7368  -5.7217  -5.6876  -5.6773  -5.6439
    -5.6390  -5.6273  -5.5910  -5.5731  -5.5652  -5.5570  -5.5544  -5.5315
    -5.5143  -5.5027  -5.4788  -5.4416  -5.3999  -5.3541  -5.3288  -5.3141
    -5.2927  -5.2623  -5.2332  -5.1625  -5.1488  -5.1443  -5.1295  -5.1014
    -5.0509  -5.0083  -4.9722  -4.9463  -4.8970  -4.8871  -4.8577  -4.8570
    -4.8123  -4.7920  -4.7801  -4.7396  -4.7088  -4.6886  -4.6482  -4.6013
    -4.5513  -4.4759  -4.4445  -4.4239  -4.4176  -4.4012  -4.3611  -4.3508
    -4.3093  -4.2840  -4.2541  -4.2332  -4.2006  -4.1748  -4.1165  -4.1052
    -4.0851  -4.0470  -4.0434  -4.0175  -3.9559  -3.9310  -3.9174  -3.8781
    -3.8698  -3.8245  -3.8100  -3.7973  -3.7855  -3.7447  -3.7227  -3.6998
    -3.6894  -3.6618  -3.6466  -3.5963  -3.5834  -3.5748  -3.5722  -3.5457
    -3.5424  -3.5180  -3.5024  -3.4775  -3.4564  -3.4409  -3.4266  -3.4147
    -3.4127  -3.3690  -3.3584  -3.3524  -3.3403  -3.3040  -3.2774  -3.2566
    -3.2514  -3.2110  -3.1949  -3.1836  -3.1469  -3.1136  -3.1046  -3.0802
    -3.0712  -3.0665  -3.0470  -3.0345  -3.0196  -3.0021  -2.9804  -2.9648
    -2.9291  -2.9168  -2.8936  -2.8862  -2.8660  -2.8490  -2.8076  -2.7941
    -2.7840  -2.7582  -2.7508  -2.7415  -2.7249  -2.7131  -2.7002  -2.6865
    -2.6820  -2.6747  -2.6591  -2.6417  -2.6372  -2.6055  -2.6003  -2.5911
    -2.5728  -2.5675  -2.5401  -2.5258  -2.5127  -2.4828  -2.4697  -2.4549
    -2.4381  -2.4193  -2.4038  -2.3773  -2.3546  -2.3520  -2.3206  -2.2852
    -2.2751  -2.2662  -2.2295  -2.2064  -2.1914  -2.1802  -2.1440  -2.1413
    -2.1126  -2.0881  -2.0667  -2.0619  -2.0560  -2.0386  -2.0286  -2.0197
    -1.9955  -1.9780  -1.9377  -1.9149  -1.9098  -1.9086  -1.8730  -1.8550
    -1.8382  -1.8343  -1.8241  -1.8087  -1.7903  -1.7150  -1.7090  -1.6911
    -1.6696  -1.6563  -1.6341  -1.6260  -1.6166  -1.6134  -1.5905  -1.5717
    -1.5493  -1.5394  -1.5168  -1.4860  -1.4859  -1.4540  -1.4346  -1.4260
    -1.4032  -1.3969  -1.3826  -1.3743  -1.3560  -1.3501  -1.3044  -1.2673
    -1.2319  -1.2208  -1.1735  -1.1464  -1.1342  -1.1295  -1.0926  -1.0586
    -1.0476  -0.9926  -0.9267  -0.8540  -0.7419  -0.7269  -0.6250  -0.5587
    -0.5209  -0.5065  -0.3541  -0.2457   0.1802   0.2203   0.2426   0.2489
     0.3007   0.3125   0.3183   0.3228   0.3315   0.3503   0.3626   0.3685
     0.3766   0.3907   0.3987   0.4041   0.4072   0.4145   0.4201   0.4263
     0.4339   0.4425   0.4625   0.4673   0.4767   0.4848   0.4923   0.4932
     0.4977   0.5040   0.5108   0.5169   0.5270   0.5336   0.5380   0.5444
     0.5464   0.5642   0.5683   0.5752   0.5858   0.5997   0.6041   0.6189
     0.6251   0.6256   0.6444   0.6497   0.6550   0.6623   0.6671   0.6793
     0.6848   0.6928   0.7022   0.7087   0.7144   0.7305   0.7340   0.7445
     0.7494   0.7610   0.7684   0.7702   0.7761   0.7940   0.8027   0.8123
     0.8147   0.8250   0.8392   0.8575   0.8665   0.8687   0.8703   0.8735
     0.8848   0.8892   0.9064   0.9110   0.9200   0.9547   0.9879   0.9956
     1.0186   1.0485   1.0915   1.1142   1.1251   1.6786   1.7375   1.7499
     1.7711   1.7906   1.8020   1.8178   1.8292   1.8449   1.9067   1.9220
     1.9406   1.9706   1.9906   2.0111   2.0447   2.0474   2.0961   2.1073
     2.1340   2.1460   2.1477   2.1829   2.1925   2.1996   2.2073   2.2348
     2.2702   2.2785   2.2969   2.3061   2.3155   2.3251   2.3329   2.3524
     2.3743   2.3801   2.3946   2.3966   2.4184   2.4215   2.4339   2.4981
     2.5056   2.5331   2.5377   2.5424   2.5525   2.5689   2.5910   2.5997
     2.6247   2.6825   2.7077   2.7221   2.7518   2.8041   2.8089   2.8687
     2.8782   2.9564   3.6752   3.7100   3.7234   3.7608   3.7859   3.8003
     3.8664   3.9079   3.9353   3.9618   3.9723   3.9849   4.0035   4.0168
     4.0559   4.0617   4.1469   4.1501   4.1607   4.1825   4.6595   4.6903
     4.7924   4.8302   4.8645   4.9050   4.9231   4.9641   5.0427   5.0982
     5.1190   5.1487   5.4303   6.2448   6.3765   6.6133   6.6617   6.7570
     6.8500   6.8646   6.8915   6.9676   6.9898   7.0693   7.1185   7.1340
     7.2669   7.3507   7.3536   7.4215   7.4824   7.5436   7.5736   7.6298
     7.6614   7.6693   7.7427   7.7695   7.7964   7.8594   7.8947   7.9644
     8.0010   8.0466   8.0539   8.0920   8.1094   8.1605   8.1746   8.2114
     8.2466   8.2871   8.3040   8.3336   8.4040   8.4283   8.4293   8.4540
     8.4639   8.4804   8.4963   8.5386   8.5547   8.5736   8.5990   8.6238
     8.6734   8.7090   8.7257   8.7601   8.7711   8.7875   8.8405   8.8489

     the Fermi energy is     1.6623 ev

!    total energy              =   -7738.31796918 Ry
     estimated scf accuracy    <       0.00000071 Ry
     smearing contrib. (-TS)   =      -0.02308994 Ry
     internal energy E=F+TS    =   -7738.29487924 Ry

     The total energy is F=E-TS. E is the sum of the following terms:
     one-electron contribution =  -94760.09234447 Ry
     hartree contribution      =   47997.29684995 Ry
     xc contribution           =   -2218.70041696 Ry
     ewald contribution        =   41245.00833828 Ry
     Dispersion Correction     =      -1.80736113 Ry
     electric field correction =       0.00005510 Ry

     total magnetization       =    88.48 Bohr mag/cell
     absolute magnetization    =    89.85 Bohr mag/cell

     convergence has been achieved in  58 iterations

     negative rho (up, down):  1.052E-03 5.888E-04

     Forces acting on atoms (cartesian axes, Ry/au):

     atom    1 type  1   force =     0.00252024   -0.00159574   -0.00220298
     atom    2 type  2   force =    -0.00003143   -0.00035749    0.00028933
     atom    3 type  1   force =    -0.00031992    0.00061005   -0.00009552
     atom    4 type  1   force =     0.00005977    0.00041763   -0.00019448
     atom    5 type  1   force =    -0.00001837    0.00008494   -0.00023614
     atom    6 type  1   force =     0.00046438    0.00025273   -0.00012462
     atom    7 type  3   force =    -0.00016662    0.00025763   -0.00009552
     atom    8 type  3   force =    -0.00004823   -0.00019220   -0.00016790
     atom    9 type  3   force =     0.00049858   -0.00008834   -0.00013658
     atom   10 type  3   force =     0.00008256    0.00019480    0.00013685
     atom   11 type  4   force =     0.00070957   -0.00015260    0.00021862
     atom   12 type  4   force =    -0.00052692   -0.00022540    0.00018111
     atom   13 type  4   force =    -0.00013562    0.00012623   -0.00035671
     atom   14 type  4   force =    -0.00063612   -0.00020593    0.00005375
     atom   15 type  4   force =     0.00026792   -0.00023607    0.00006939
     atom   16 type  4   force =    -0.00028562   -0.00036787   -0.00006828
     atom   17 type  4   force =    -0.00055269   -0.00014418    0.00028126
     atom   18 type  4   force =     0.00004470    0.00007323    0.00044158
     atom   19 type  4   force =     0.00000433    0.00021981    0.00007709
     atom   20 type  4   force =    -0.00001758    0.00018804   -0.00031681
     atom   21 type  4   force =     0.00036229    0.00013656    0.00002921
     atom   22 type  4   force =     0.00008881    0.00012063   -0.00052427
     atom   23 type  4   force =    -0.00038227   -0.00006896   -0.00009960
     atom   24 type  4   force =     0.00043657    0.00035203    0.00002358
     atom   25 type  4   force =    -0.00016714    0.00036221   -0.00001541
     atom   26 type  4   force =    -0.00048375    0.00003310   -0.00003930
     atom   27 type  1   force =    -0.00653539   -0.00705248   -0.00152880
     atom   28 type  2   force =    -0.01237608   -0.00024997   -0.00105928
     atom   29 type  1   force =     0.00350230   -0.00401288   -0.00038026
     atom   30 type  1   force =     0.00239958    0.00416728   -0.00133834
     atom   31 type  1   force =     0.00149429   -0.00485900    0.00012691
     atom   32 type  1   force =    -0.00100072    0.00137140    0.00222316
     atom   33 type  3   force =    -0.00698420   -0.00095744    0.00005390
     atom   34 type  3   force =    -0.00716103    0.00451193   -0.00255607
     atom   35 type  3   force =     0.00391808   -0.00257902   -0.00371177
     atom   36 type  3   force =     0.00121401   -0.00123744    0.00293381
     atom   37 type  4   force =     0.00860982    0.00535886   -0.00787304
     atom   38 type  4   force =     0.00451409   -0.00230426    0.01983931
     atom   39 type  4   force =    -0.00119197    0.00401352    0.01046355
     atom   40 type  4   force =    -0.00166958   -0.00232270   -0.00894111
     atom   41 type  4   force =     0.00195799    0.00836158    0.00624427
     atom   42 type  4   force =    -0.00569667   -0.00289673   -0.01996998
     atom   43 type  4   force =     0.01040611    0.00690086   -0.00682037
     atom   44 type  4   force =     0.00728159   -0.00309155    0.00595668
     atom   45 type  4   force =     0.00221456    0.00585432   -0.00062235
     atom   46 type  4   force =     0.00351526    0.00201943    0.00461168
     atom   47 type  4   force =    -0.01321804    0.00016725    0.00328688
     atom   48 type  4   force =    -0.01460933    0.00272347   -0.00309655
     atom   49 type  4   force =     0.01240967    0.00249557   -0.00466797
     atom   50 type  4   force =    -0.00381933   -0.00418727   -0.00001114
     atom   51 type  4   force =    -0.00449102    0.00281282   -0.00068277
     atom   52 type  4   force =     0.01639899   -0.00322758    0.00406153
     atom   53 type  1   force =    -0.00748824   -0.00724338   -0.00845557
     atom   54 type  2   force =     0.01577972    0.01704956   -0.01002961
     atom   55 type  1   force =     0.00582382   -0.00469922   -0.00592481
     atom   56 type  1   force =    -0.02058386    0.01948338    0.01967727
     atom   57 type  1   force =     0.00449595   -0.00754764   -0.00170695
     atom   58 type  1   force =    -0.00389589   -0.00546636   -0.00117707
     atom   59 type  3   force =    -0.03899414   -0.03830983   -0.05615458
     atom   60 type  3   force =    -0.00478789   -0.00134220   -0.00114781
     atom   61 type  3   force =     0.00271901   -0.00092750   -0.01016726
     atom   62 type  3   force =     0.02909511   -0.04950940   -0.06064146
     atom   63 type  4   force =     0.00623226    0.00340097    0.02112091
     atom   64 type  4   force =     0.00433905    0.00245905    0.01453174
     atom   65 type  4   force =    -0.00063205    0.00298717    0.01263632
     atom   66 type  4   force =     0.00018310    0.00210723    0.01625769
     atom   67 type  4   force =     0.00105033   -0.00069522    0.03894614
     atom   68 type  4   force =    -0.00578533   -0.00386053   -0.01716368
     atom   69 type  4   force =     0.00787299    0.00454594   -0.00251090
     atom   70 type  4   force =     0.00178025   -0.00740663    0.03527724
     atom   71 type  4   force =    -0.00904843    0.03922112    0.00090460
     atom   72 type  4   force =     0.00235696   -0.00068857    0.00794610
     atom   73 type  4   force =    -0.03017186    0.00089455    0.00760791
     atom   74 type  4   force =    -0.01363849    0.00141155   -0.00042677
     atom   75 type  4   force =     0.01214763    0.00350824   -0.00250699
     atom   76 type  4   force =    -0.00243671   -0.00295707    0.00255983
     atom   77 type  4   force =     0.00910847    0.02587463   -0.00261682
     atom   78 type  4   force =     0.03364018   -0.00637104    0.00614409
     atom   79 type  1   force =    -0.00021109    0.00055818    0.00017111
     atom   80 type  2   force =    -0.00015040   -0.00026940   -0.00024979
     atom   81 type  1   force =     0.00000125    0.00036456   -0.00044865
     atom   82 type  1   force =    -0.00012823    0.00014937   -0.00018958
     atom   83 type  1   force =    -0.00065767    0.00009782   -0.00011222
     atom   84 type  1   force =     0.00012461    0.00019927    0.00054431
     atom   85 type  3   force =    -0.00024395    0.00054881    0.00025048
     atom   86 type  3   force =     0.00006147   -0.00004685   -0.00025069
     atom   87 type  3   force =    -0.00013944    0.00029724   -0.00023344
     atom   88 type  3   force =     0.00010792    0.00045969    0.00008863
     atom   89 type  4   force =    -0.00001329   -0.00044464   -0.00008856
     atom   90 type  4   force =     0.00007535    0.00057297    0.00044805
     atom   91 type  4   force =     0.00024086    0.00000383   -0.00009038
     atom   92 type  4   force =    -0.00062396    0.00004911   -0.00004707
     atom   93 type  4   force =     0.00040290   -0.00025326    0.00030287
     atom   94 type  4   force =     0.00045749    0.00036426    0.00077641
     atom   95 type  4   force =    -0.00027181   -0.00008519   -0.00023017
     atom   96 type  4   force =    -0.00009077    0.00007222    0.00012266
     atom   97 type  4   force =    -0.00020715    0.00038711   -0.00017290
     atom   98 type  4   force =     0.00016027   -0.00027345    0.00010874
     atom   99 type  4   force =     0.00007692   -0.00005585   -0.00043318
     atom  100 type  4   force =     0.00046727    0.00052227   -0.00038118
     atom  101 type  4   force =     0.00009634   -0.00008445   -0.00023079
     atom  102 type  4   force =     0.00036500    0.00030279    0.00027446
     atom  103 type  4   force =    -0.00035661    0.00032715   -0.00049925
     atom  104 type  4   force =    -0.00050628    0.00052306    0.00011254
     atom  105 type  1   force =    -0.00629830   -0.00860010   -0.00275867
     atom  106 type  2   force =    -0.01197710   -0.00004168   -0.00128440
     atom  107 type  1   force =     0.00318376   -0.00420770   -0.00052625
     atom  108 type  1   force =     0.00231156    0.00416950   -0.00144058
     atom  109 type  1   force =     0.00203051   -0.00488491   -0.00007008
     atom  110 type  1   force =    -0.00123329    0.00119854    0.00212756
     atom  111 type  3   force =    -0.00716469   -0.00082856   -0.00045647
     atom  112 type  3   force =    -0.00603997    0.00388437   -0.00148879
     atom  113 type  3   force =     0.00354227   -0.00104619   -0.00520496
     atom  114 type  3   force =     0.00105892   -0.00121168    0.00290211
     atom  115 type  4   force =     0.00877810    0.00503544   -0.00758674
     atom  116 type  4   force =     0.00356352   -0.00123268    0.02026438
     atom  117 type  4   force =    -0.00120124    0.00376849    0.01086572
     atom  118 type  4   force =    -0.00152642   -0.00238433   -0.00899315
     atom  119 type  4   force =     0.00211209    0.00844393    0.00627588
     atom  120 type  4   force =    -0.00546035   -0.00237940   -0.01757325
     atom  121 type  4   force =     0.01111756    0.00645121   -0.00736905
     atom  122 type  4   force =     0.00713328   -0.00310251    0.00594088
     atom  123 type  4   force =     0.00218963    0.00589286   -0.00060566
     atom  124 type  4   force =     0.00303627    0.00109927    0.00555432
     atom  125 type  4   force =    -0.01319955    0.00021487    0.00334108
     atom  126 type  4   force =    -0.01410614    0.00241717   -0.00304418
     atom  127 type  4   force =     0.01303760    0.00280799   -0.00484842
     atom  128 type  4   force =    -0.00412234   -0.00426351   -0.00001022
     atom  129 type  4   force =    -0.00434526    0.00276641   -0.00058002
     atom  130 type  4   force =     0.01653366   -0.00321441    0.00421279
     atom  131 type  1   force =    -0.00758282   -0.00717542   -0.00848797
     atom  132 type  2   force =     0.01572858    0.01702288   -0.01000352
     atom  133 type  1   force =     0.00584156   -0.00469307   -0.00592157
     atom  134 type  1   force =    -0.02060346    0.01948828    0.01968847
     atom  135 type  1   force =     0.00445972   -0.00752967   -0.00169150
     atom  136 type  1   force =    -0.00390359   -0.00546454   -0.00117289
     atom  137 type  3   force =    -0.03902785   -0.03835676   -0.05610450
     atom  138 type  3   force =    -0.00495417   -0.00126934   -0.00120279
     atom  139 type  3   force =     0.00273141   -0.00101438   -0.01016610
     atom  140 type  3   force =     0.02910184   -0.04950886   -0.06063810
     atom  141 type  4   force =     0.00615380    0.00344622    0.02113002
     atom  142 type  4   force =     0.00438788    0.00234864    0.01448220
     atom  143 type  4   force =    -0.00054458    0.00290447    0.01266353
     atom  144 type  4   force =     0.00022044    0.00219303    0.01645323
     atom  145 type  4   force =     0.00120266   -0.00069400    0.03892662
     atom  146 type  4   force =    -0.00549700   -0.00389910   -0.01709299
     atom  147 type  4   force =     0.00786815    0.00460970   -0.00266605
     atom  148 type  4   force =     0.00167104   -0.00744286    0.03533072
     atom  149 type  4   force =    -0.00926801    0.03922083    0.00090813
     atom  150 type  4   force =     0.00215883   -0.00060470    0.00793825
     atom  151 type  4   force =    -0.03005158    0.00089291    0.00760751
     atom  152 type  4   force =    -0.01375437    0.00143555   -0.00043424
     atom  153 type  4   force =     0.01219986    0.00358267   -0.00253336
     atom  154 type  4   force =    -0.00246181   -0.00286589    0.00248900
     atom  155 type  4   force =     0.00900626    0.02592185   -0.00267834
     atom  156 type  4   force =     0.03362865   -0.00617690    0.00596923
     atom  157 type  4   force =    -0.01250841   -0.00600804    0.00597350
     atom  158 type  5   force =     0.00979359    0.00710390   -0.00260185

     Total force =     0.237834     Total SCF correction =     0.004146
 
     init_run     :      7.50s CPU      8.23s WALL (       1 calls)
     electrons    :    764.37s CPU    802.55s WALL (       1 calls)
     forces       :      3.74s CPU      4.21s WALL (       1 calls)
     force_london :      0.09s CPU      0.09s WALL (       1 calls)

     Called by init_run:
     wfcinit      :      4.42s CPU      4.63s WALL (       1 calls)
     potinit      :      0.61s CPU      0.83s WALL (       1 calls)
     hinit0       :      1.36s CPU      1.45s WALL (       1 calls)

     Called by electrons:
     c_bands      :    597.24s CPU    617.22s WALL (      58 calls)
     sum_band     :    102.08s CPU    111.76s WALL (      58 calls)
     v_of_rho     :     16.05s CPU     17.11s WALL (      59 calls)
     newd         :     31.43s CPU     38.88s WALL (      59 calls)
     mix_rho      :     16.79s CPU     17.08s WALL (      58 calls)
     energy_londo :      0.09s CPU      0.09s WALL (       1 calls)

     Called by c_bands:
     init_us_2    :      1.87s CPU      1.91s WALL (     236 calls)
     init_us_2:cp :      1.87s CPU      1.91s WALL (     236 calls)
     regterg      :    584.50s CPU    604.33s WALL (     116 calls)

     Called by *egterg:
     rdiaghg      :    166.47s CPU    176.50s WALL (     469 calls)
     h_psi        :    228.48s CPU    232.93s WALL (     471 calls)
     s_psi        :     42.35s CPU     42.37s WALL (     471 calls)
     g_psi        :      0.31s CPU      0.31s WALL (     353 calls)

     Called by h_psi:
     h_psi:calbec :     58.31s CPU     62.13s WALL (     471 calls)
     vloc_psi     :    127.13s CPU    127.68s WALL (     471 calls)
     add_vuspsi   :     42.40s CPU     42.49s WALL (     471 calls)

     General routines
     calbec       :     86.88s CPU     92.71s WALL (     595 calls)
     fft          :     17.09s CPU     18.89s WALL (    1075 calls)
     ffts         :     10.14s CPU     10.16s WALL (    7187 calls)
     fftw         :    142.37s CPU    142.95s WALL (  197450 calls)
     interpolate  :      1.37s CPU      1.45s WALL (     118 calls)
 
     Parallel routines
 
     PWSCF        :  12m57.75s CPU  13m37.51s WALL

 
   This run was terminated on:  21:44:30  17Nov2025            

=------------------------------------------------------------------------------=
   JOB DONE.
=------------------------------------------------------------------------------=
