
     Program PWSCF v.7.2 starts on 18Nov2025 at  1:10:29 

     This program is part of the open-source Quantum ESPRESSO suite
     for quantum simulation of materials; please cite
         "P. Giannozzi et al., J. Phys.:Condens. Matter 21 395502 (2009);
         "P. Giannozzi et al., J. Phys.:Condens. Matter 29 465901 (2017);
         "P. Giannozzi et al., J. Chem. Phys. 152 154105 (2020);
          URL http://www.quantum-espresso.org", 
     in publications or presentations arising from this work. More details at
     http://www.quantum-espresso.org/quote

     Parallel version (MPI), running on    64 processors

     MPI processes distributed on     4 nodes
     460746 MiB available memory on the printing compute node when the environment starts
 
     Reading input from PWINPUT_atm158_ym

     Current dimensions of program PWSCF are:
     Max number of different atomic species (ntypx) = 10
     Max number of k-points (npk) =  40000
     Max angular momentum in pseudopotentials (lmaxx) =  4
     Presently no symmetry can be used with electric field

     file Ni.pbe-n-rrkjus_psl.1.0.0.UPF: wavefunction(s)  3D renormalized
     file Mn.pbe-spn-rrkjus_psl.0.3.1.UPF: wavefunction(s)  3D renormalized
     file O.pbe-rrkjus.UPF: wavefunction(s)  2S renormalized
     file H.pbe-rrkjus.UPF: wavefunction(s)  1S renormalized

     gamma-point specific algorithms are used
 
     R & G space division:  proc/nbgrp/npool/nimage =      64
     Subspace diagonalization in iterative solution of the eigenvalue problem:
     one sub-group per band group will be used
     custom distributed-memory algorithm (size of sub-group:  7*  7 procs)

 
     Parallelization info
     --------------------
     sticks:   dense  smooth     PW     G-vecs:    dense   smooth      PW
     Min         207      82     20                60552    15302    1896
     Max         210      84     22                60574    15336    1950
     Sum       13325    5345   1333              3876045   980655  122653
 
     Using Slab Decomposition
 


     bravais-lattice index     =            0
     lattice parameter (alat)  =      17.4067  a.u.
     unit-cell volume          =   20529.8182 (a.u.)^3
     number of atoms/cell      =          158
     number of atomic types    =            5
     number of electrons       =      1093.00
     number of Kohn-Sham states=          656
     kinetic-energy cutoff     =      50.0000  Ry
     charge density cutoff     =     500.0000  Ry
     scf convergence threshold =      1.0E-06
     mixing beta               =       0.1000
     number of iterations used =            8  local-TF  mixing
     Exchange-correlation=  SLA  PW   PBE  PBE
                           (   1   4   3   4   0   0   0)

     celldm(1)=  17.406729  celldm(2)=   0.000000  celldm(3)=   0.000000
     celldm(4)=   0.000000  celldm(5)=   0.000000  celldm(6)=   0.000000

     crystal axes: (cart. coord. in units of alat)
               a(1) = (   1.000000   0.000000   0.000000 )  
               a(2) = (  -0.001404   1.105696   0.000000 )  
               a(3) = (   0.000000   0.000000   3.520448 )  

     reciprocal axes: (cart. coord. in units 2 pi/alat)
               b(1) = (  1.000000  0.001270  0.000000 )  
               b(2) = (  0.000000  0.904408  0.000000 )  
               b(3) = (  0.000000  0.000000  0.284055 )  


     PseudoPot. # 1 for Ni read from file:
     ~/PSEUDO/Ni.pbe-n-rrkjus_psl.1.0.0.UPF
     MD5 check sum: Not computed, couldn't open file
     Pseudo is Ultrasoft + core correction, Zval = 10.0
     Generated using "atomic" code by A. Dal Corso  v.5.1.2
     Using radial grid of 1195 points,  6 beta functions with: 
                l(1) =   0
                l(2) =   0
                l(3) =   1
                l(4) =   1
                l(5) =   2
                l(6) =   2
     Q(r) pseudized with 0 coefficients 


     PseudoPot. # 2 for Mn read from file:
     ~/PSEUDO/Mn.pbe-spn-rrkjus_psl.0.3.1.UPF
     MD5 check sum: Not computed, couldn't open file
     Pseudo is Ultrasoft + core correction, Zval = 15.0
     Generated using &quot;atomic&quot; code by A. Dal Corso  v.6.2.2
     Using radial grid of 1187 points,  6 beta functions with: 
                l(1) =   0
                l(2) =   0
                l(3) =   1
                l(4) =   1
                l(5) =   2
                l(6) =   2
     Q(r) pseudized with 0 coefficients 


     PseudoPot. # 3 for P  read from file:
     ~/PSEUDO/P.pbe-n-rrkjus_psl.1.0.0.UPF
     MD5 check sum: Not computed, couldn't open file
     Pseudo is Ultrasoft + core correction, Zval =  5.0
     Generated using "atomic" code by A. Dal Corso  v.5.1
     Using radial grid of 1147 points,  6 beta functions with: 
                l(1) =   0
                l(2) =   0
                l(3) =   1
                l(4) =   1
                l(5) =   2
                l(6) =   2
     Q(r) pseudized with 0 coefficients 


     PseudoPot. # 4 for O  read from file:
     ~/PSEUDO/O.pbe-rrkjus.UPF
     MD5 check sum: Not computed, couldn't open file
     Pseudo is Ultrasoft, Zval =  6.0
     Generated by new atomic code, or converted to UPF format
     Using radial grid of 1269 points,  4 beta functions with: 
                l(1) =   0
                l(2) =   0
                l(3) =   1
                l(4) =   1
     Q(r) pseudized with 0 coefficients 


     PseudoPot. # 5 for H  read from file:
     ~/PSEUDO/H.pbe-rrkjus.UPF
     MD5 check sum: Not computed, couldn't open file
     Pseudo is Ultrasoft, Zval =  1.0
     Generated by new atomic code, or converted to UPF format
     Using radial grid of 1061 points,  2 beta functions with: 
                l(1) =   0
                l(2) =   0
     Q(r) pseudized with 0 coefficients 


     atomic species   valence    mass     pseudopotential
     Ni               10.00    58.69300     Ni( 1.00)
     Mn               15.00    54.93800     Mn( 1.00)
     P                 5.00    30.97300     P ( 1.00)
     O                 6.00    15.99900     O ( 1.00)
     H                 1.00     1.00790     H ( 1.00)

     Starting magnetic structure 
     atomic species   magnetization
     Ni              1.000
     Mn              1.000
     P               1.000
     O               1.000
     H               0.000

     No symmetry found



   Cartesian axes

     site n.     atom                  positions (alat units)
         1        Ni     tau(   1) = (   0.2407247   0.8678666   1.7788468  )
         2        Mn     tau(   2) = (   0.4849050   0.7928704   1.4298720  )
         3        Ni     tau(   3) = (  -0.0015463   0.3040756   1.7427651  )
         4        Ni     tau(   4) = (   0.2576988   0.2438884   1.4304882  )
         5        Ni     tau(   5) = (   0.4960089   1.1079636   1.5969794  )
         6        Ni     tau(   6) = (   0.2509439   0.5529914   1.6014984  )
         7        P      tau(   7) = (   0.2089048   1.0013970   1.4343524  )
         8        P      tau(   8) = (   0.4624796   0.6667191   1.7615344  )
         9        P      tau(   9) = (   0.2870509   0.1160398   1.7607833  )
        10        P      tau(  10) = (   0.0409376   0.4429602   1.4308127  )
        11        O      tau(  11) = (   0.1352892   0.9270454   1.5724618  )
        12        O      tau(  12) = (   0.3840209   0.7294626   1.6169117  )
        13        O      tau(  13) = (   0.3651818   0.1791486   1.6110775  )
        14        O      tau(  14) = (   0.1191348   0.3726454   1.5703673  )
        15        O      tau(  15) = (   0.1507888   0.9120623   1.3039965  )
        16        O      tau(  16) = (   0.4052423   0.7648049   1.8817709  )
        17        O      tau(  17) = (   0.3458822   0.2189915   1.8759922  )
        18        O      tau(  18) = (   0.1009621   0.3550841   1.3013183  )
        19        O      tau(  19) = (   0.0995916   0.6017289   1.4364553  )
        20        O      tau(  20) = (   0.3468601   1.0635796   1.7571918  )
        21        O      tau(  21) = (   0.3739296   0.4396566   1.4433176  )
        22        O      tau(  22) = (   0.1199364   0.1204540   1.7432983  )
        23        O      tau(  23) = (   0.1279675   0.6643683   1.7537820  )
        24        O      tau(  24) = (   0.4072413   0.5052188   1.7593813  )
        25        O      tau(  25) = (   0.1493697   0.0531357   1.4376636  )
        26        O      tau(  26) = (   0.3761102   0.9942916   1.4433476  )
        27        Ni     tau(  27) = (   0.2413539   0.8509941   1.1121345  )
        28        Mn     tau(  28) = (   0.4917018   0.7787406   0.7768134  )
        29        Ni     tau(  29) = (   0.0044877   0.2932623   1.1138982  )
        30        Ni     tau(  30) = (   0.2563139   0.2275682   0.7805625  )
        31        Ni     tau(  31) = (   0.4969120   1.0949007   0.9459116  )
        32        Ni     tau(  32) = (   0.2488318   0.5341111   0.9469721  )
        33        P      tau(  33) = (   0.2076029   0.9882917   0.7835381  )
        34        P      tau(  34) = (   0.4577012   0.6460068   1.1076436  )
        35        P      tau(  35) = (   0.2881931   0.0932770   1.1104179  )
        36        P      tau(  36) = (   0.0392916   0.4238898   0.7837243  )
        37        O      tau(  37) = (   0.1306755   0.9148866   0.9233554  )
        38        O      tau(  38) = (   0.3789780   0.7172835   0.9680652  )
        39        O      tau(  39) = (   0.3654852   0.1662865   0.9702638  )
        40        O      tau(  40) = (   0.1163776   0.3546954   0.9254186  )
        41        O      tau(  41) = (   0.1502901   0.8969129   0.6541592  )
        42        O      tau(  42) = (   0.3974525   0.7354243   1.2370031  )
        43        O      tau(  43) = (   0.3483097   0.1789497   1.2412670  )
        44        O      tau(  44) = (   0.0974932   0.3376387   0.6529083  )
        45        O      tau(  45) = (   0.0984699   0.5818903   0.7881021  )
        46        O      tau(  46) = (   0.3459978   1.0405493   1.1018526  )
        47        O      tau(  47) = (   0.3731719   0.4204123   0.7945555  )
        48        O      tau(  48) = (   0.1223503   0.0989699   1.1000566  )
        49        O      tau(  49) = (   0.1235438   0.6536772   1.0980598  )
        50        O      tau(  50) = (   0.4004339   0.4872435   1.1047245  )
        51        O      tau(  51) = (   0.1476543   0.0398268   0.7872561  )
        52        O      tau(  52) = (   0.3728637   0.9843360   0.7931368  )
        53        Ni     tau(  53) = (   0.2406075   0.8410745   0.4603118  )
        54        Mn     tau(  54) = (   0.4909555   0.7688210   0.1249907  )
        55        Ni     tau(  55) = (   0.0037414   0.2833427   0.4620755  )
        56        Ni     tau(  56) = (   0.2555676   0.2176485   0.1287398  )
        57        Ni     tau(  57) = (   0.4961657   1.0849810   0.2940889  )
        58        Ni     tau(  58) = (   0.2480854   0.5241915   0.2951494  )
        59        P      tau(  59) = (   0.2068565   0.9783721   0.1317154  )
        60        P      tau(  60) = (   0.4569549   0.6360871   0.4558210  )
        61        P      tau(  61) = (   0.2874467   0.0833574   0.4585952  )
        62        P      tau(  62) = (   0.0385452   0.4139702   0.1319017  )
        63        O      tau(  63) = (   0.1299291   0.9049669   0.2715327  )
        64        O      tau(  64) = (   0.3782317   0.7073639   0.3162425  )
        65        O      tau(  65) = (   0.3647389   0.1563669   0.3184411  )
        66        O      tau(  66) = (   0.1156313   0.3447757   0.2735959  )
        67        O      tau(  67) = (   0.1495437   0.8869933   0.0023366  )
        68        O      tau(  68) = (   0.3967062   0.7255047   0.5851804  )
        69        O      tau(  69) = (   0.3475634   0.1690300   0.5894443  )
        70        O      tau(  70) = (   0.0967469   0.3277190   0.0010856  )
        71        O      tau(  71) = (   0.0977236   0.5719706   0.1362794  )
        72        O      tau(  72) = (   0.3452514   1.0306297   0.4500300  )
        73        O      tau(  73) = (   0.3724256   0.4104926   0.1427328  )
        74        O      tau(  74) = (   0.1216040   0.0890503   0.4482339  )
        75        O      tau(  75) = (   0.1227974   0.6437575   0.4462371  )
        76        O      tau(  76) = (   0.3996875   0.4773239   0.4529018  )
        77        O      tau(  77) = (   0.1469079   0.0299071   0.1354334  )
        78        O      tau(  78) = (   0.3721173   0.9744163   0.1413141  )
        79        Ni     tau(  79) = (   0.7503448   0.8592094   1.7463632  )
        80        Mn     tau(  80) = (   0.9872971   0.7933476   1.4295363  )
        81        Ni     tau(  81) = (   0.4979646   0.3082874   1.7425819  )
        82        Ni     tau(  82) = (   0.7578558   0.2432444   1.4303909  )
        83        Ni     tau(  83) = (   0.9978877   1.1049697   1.6005729  )
        84        Ni     tau(  84) = (   0.7517688   0.5502669   1.5982123  )
        85        P      tau(  85) = (   0.7086164   1.0024684   1.4323347  )
        86        P      tau(  86) = (   0.9608587   0.6587254   1.7669171  )
        87        P      tau(  87) = (   0.7853186   0.1123438   1.7615591  )
        88        P      tau(  88) = (   0.5402593   0.4436461   1.4299959  )
        89        O      tau(  89) = (   0.6336250   0.9299726   1.5717212  )
        90        O      tau(  90) = (   0.8855214   0.7268460   1.6205628  )
        91        O      tau(  91) = (   0.8638479   0.1737568   1.6123671  )
        92        O      tau(  92) = (   0.6187851   0.3726638   1.5694972  )
        93        O      tau(  93) = (   0.6499804   0.9114421   1.3038010  )
        94        O      tau(  94) = (   0.8956097   0.7537924   1.8860885  )
        95        O      tau(  95) = (   0.8474504   0.2119799   1.8776314  )
        96        O      tau(  96) = (   0.6006963   0.3549684   1.3012062  )
        97        O      tau(  97) = (   0.6002576   0.6021520   1.4346509  )
        98        O      tau(  98) = (   0.8385044   1.0568597   1.7610063  )
        99        O      tau(  99) = (   0.8744145   0.4373900   1.4436920  )
       100        O      tau( 100) = (   0.6180356   0.1193672   1.7459243  )
       101        O      tau( 101) = (   0.6301005   0.6707638   1.7450210  )
       102        O      tau( 102) = (   0.9037180   0.4985801   1.7585357  )
       103        O      tau( 103) = (   0.6488284   0.0538192   1.4351739  )
       104        O      tau( 104) = (   0.8752493   0.9934614   1.4449032  )
       105        Ni     tau( 105) = (   0.7413539   0.8509941   1.1121345  )
       106        Mn     tau( 106) = (   0.9917018   0.7787406   0.7768134  )
       107        Ni     tau( 107) = (   0.5044877   0.2932623   1.1138982  )
       108        Ni     tau( 108) = (   0.7563139   0.2275682   0.7805625  )
       109        Ni     tau( 109) = (   0.9969120   1.0949007   0.9459116  )
       110        Ni     tau( 110) = (   0.7488318   0.5341111   0.9469721  )
       111        P      tau( 111) = (   0.7076029   0.9882917   0.7835381  )
       112        P      tau( 112) = (   0.9577012   0.6460068   1.1076436  )
       113        P      tau( 113) = (   0.7881931   0.0932770   1.1104179  )
       114        P      tau( 114) = (   0.5392916   0.4238898   0.7837243  )
       115        O      tau( 115) = (   0.6306755   0.9148866   0.9233554  )
       116        O      tau( 116) = (   0.8789780   0.7172835   0.9680652  )
       117        O      tau( 117) = (   0.8654852   0.1662865   0.9702638  )
       118        O      tau( 118) = (   0.6163776   0.3546954   0.9254186  )
       119        O      tau( 119) = (   0.6502901   0.8969129   0.6541592  )
       120        O      tau( 120) = (   0.8974525   0.7354243   1.2370031  )
       121        O      tau( 121) = (   0.8483097   0.1789497   1.2412670  )
       122        O      tau( 122) = (   0.5974932   0.3376387   0.6529083  )
       123        O      tau( 123) = (   0.5984699   0.5818903   0.7881021  )
       124        O      tau( 124) = (   0.8459978   1.0405493   1.1018526  )
       125        O      tau( 125) = (   0.8731719   0.4204123   0.7945555  )
       126        O      tau( 126) = (   0.6223503   0.0989699   1.1000566  )
       127        O      tau( 127) = (   0.6235438   0.6536772   1.0980598  )
       128        O      tau( 128) = (   0.9004339   0.4872435   1.1047245  )
       129        O      tau( 129) = (   0.6476543   0.0398268   0.7872561  )
       130        O      tau( 130) = (   0.8728637   0.9843360   0.7931368  )
       131        Ni     tau( 131) = (   0.7406075   0.8410745   0.4603118  )
       132        Mn     tau( 132) = (   0.9909555   0.7688210   0.1249907  )
       133        Ni     tau( 133) = (   0.5037414   0.2833427   0.4620755  )
       134        Ni     tau( 134) = (   0.7555676   0.2176485   0.1287398  )
       135        Ni     tau( 135) = (   0.9961657   1.0849810   0.2940889  )
       136        Ni     tau( 136) = (   0.7480854   0.5241915   0.2951494  )
       137        P      tau( 137) = (   0.7068565   0.9783721   0.1317154  )
       138        P      tau( 138) = (   0.9569549   0.6360871   0.4558210  )
       139        P      tau( 139) = (   0.7874467   0.0833574   0.4585952  )
       140        P      tau( 140) = (   0.5385452   0.4139702   0.1319017  )
       141        O      tau( 141) = (   0.6299291   0.9049669   0.2715327  )
       142        O      tau( 142) = (   0.8782317   0.7073639   0.3162425  )
       143        O      tau( 143) = (   0.8647389   0.1563669   0.3184411  )
       144        O      tau( 144) = (   0.6156313   0.3447757   0.2735959  )
       145        O      tau( 145) = (   0.6495437   0.8869933   0.0023366  )
       146        O      tau( 146) = (   0.8967062   0.7255047   0.5851804  )
       147        O      tau( 147) = (   0.8475634   0.1690300   0.5894443  )
       148        O      tau( 148) = (   0.5967469   0.3277190   0.0010856  )
       149        O      tau( 149) = (   0.5977236   0.5719706   0.1362794  )
       150        O      tau( 150) = (   0.8452514   1.0306297   0.4500300  )
       151        O      tau( 151) = (   0.8724256   0.4104926   0.1427328  )
       152        O      tau( 152) = (   0.6216040   0.0890503   0.4482339  )
       153        O      tau( 153) = (   0.6227974   0.6437575   0.4462371  )
       154        O      tau( 154) = (   0.8996875   0.4773239   0.4529018  )
       155        O      tau( 155) = (   0.6469079   0.0299071   0.1354334  )
       156        O      tau( 156) = (   0.8721173   0.9744163   0.1413141  )
       157        O      tau( 157) = (   1.1200851   0.9534950   1.9086669  )
       158        H      tau( 158) = (   1.0374101   0.8890842   1.9356829  )

     -------------------------------------------------
     Parameters for Dispersion (Grimme-D2) Correction:
     -------------------------------------------------
       atom      VdW radius       C_6     

        Ni         2.952        374.666
        Mn         2.952        374.666
        P          3.222        271.980
        O          2.536         24.284
        H          1.892          4.857

     number of k points=     1  Gaussian smearing, width (Ry)=  0.0100
                       cart. coord. in units 2pi/alat
        k(    1) = (   0.0000000   0.0000000   0.0000000), wk =   1.0000000

     Dense  grid:  1938023 G-vectors     FFT dimensions: ( 125, 144, 450)

     Smooth grid:   490328 G-vectors     FFT dimensions: (  80,  90, 288)

     Estimated max dynamical RAM per process >     326.29 MB

     Estimated total dynamical RAM >      20.39 GB

     Check: negative core charge=   -0.000001
     Generating pointlists ...
     new r_m :   0.0812 (alat units)  1.4132 (a.u.) for type    1
     new r_m :   0.0905 (alat units)  1.5755 (a.u.) for type    2
     new r_m :   0.0681 (alat units)  1.1855 (a.u.) for type    3
     new r_m :   0.0446 (alat units)  0.7771 (a.u.) for type    4
     new r_m :   0.0446 (alat units)  0.7771 (a.u.) for type    5

     Initial potential from superposition of free atoms

     starting charge    1092.8893, renormalised to    1093.0000

     negative rho (up, down):  1.397E-03 4.541E-04
 
     Adding external electric field

     Computed dipole along edir(3) : 
        Dipole                1.6517 Ry au,          4.1983 Debye
        Dipole field          0.0010 Ry au, 
 
        Potential amp.       -0.1115 Ry
        Total length         55.1515 bohr
 
 
     Adding external electric field

     Computed dipole along edir(3) : 
        Dipole                1.6517 Ry au,          4.1983 Debye
        Dipole field          0.0010 Ry au, 
 
        Potential amp.       -0.1115 Ry
        Total length         55.1515 bohr
 
     Starting wfcs are  815 randomized atomic wfcs

     total cpu time spent up to now is        9.9 secs

     Self-consistent Calculation

     iteration #  1     ecut=    50.00 Ry     beta= 0.10
     Davidson diagonalization with overlap
     ethr =  1.00E-02,  avg # of iterations =  6.0

     negative rho (up, down):  3.796E-01 2.128E-06
 
     Adding external electric field

     Computed dipole along edir(3) : 
        Dipole               -3.7739 Ry au,         -9.5922 Debye
        Dipole field         -0.0023 Ry au, 
 
        Potential amp.        0.2548 Ry
        Total length         55.1515 bohr
 
 
     Adding external electric field

     Computed dipole along edir(3) : 
        Dipole               -3.7739 Ry au,         -9.5922 Debye
        Dipole field         -0.0023 Ry au, 
 
        Potential amp.        0.2548 Ry
        Total length         55.1515 bohr
 

     total cpu time spent up to now is       36.6 secs

     total energy              =   -7517.37808241 Ry
     estimated scf accuracy    <     797.46998116 Ry

     total magnetization       =   219.00 Bohr mag/cell
     absolute magnetization    =   307.75 Bohr mag/cell

     iteration #  2     ecut=    50.00 Ry     beta= 0.10
     Davidson diagonalization with overlap
     ethr =  1.00E-02,  avg # of iterations =  2.0

     negative rho (up, down):  3.605E-01 1.317E-06
 
     Adding external electric field

     Computed dipole along edir(3) : 
        Dipole               -2.5084 Ry au,         -6.3758 Debye
        Dipole field         -0.0015 Ry au, 
 
        Potential amp.        0.1694 Ry
        Total length         55.1515 bohr
 
 
     Adding external electric field

     Computed dipole along edir(3) : 
        Dipole               -2.5084 Ry au,         -6.3758 Debye
        Dipole field         -0.0015 Ry au, 
 
        Potential amp.        0.1694 Ry
        Total length         55.1515 bohr
 

     total cpu time spent up to now is       51.4 secs

     total energy              =   -7600.13032438 Ry
     estimated scf accuracy    <     228.65421695 Ry

     total magnetization       =   159.65 Bohr mag/cell
     absolute magnetization    =   208.10 Bohr mag/cell

     iteration #  3     ecut=    50.00 Ry     beta= 0.10
     Davidson diagonalization with overlap
     ethr =  1.00E-02,  avg # of iterations =  1.5

     negative rho (up, down):  3.227E-01 1.347E-06
 
     Adding external electric field

     Computed dipole along edir(3) : 
        Dipole               -2.1657 Ry au,         -5.5046 Debye
        Dipole field         -0.0013 Ry au, 
 
        Potential amp.        0.1462 Ry
        Total length         55.1515 bohr
 
 
     Adding external electric field

     Computed dipole along edir(3) : 
        Dipole               -2.1657 Ry au,         -5.5046 Debye
        Dipole field         -0.0013 Ry au, 
 
        Potential amp.        0.1462 Ry
        Total length         55.1515 bohr
 

     total cpu time spent up to now is       63.2 secs

     total energy              =   -7629.37565942 Ry
     estimated scf accuracy    <     103.99018935 Ry

     total magnetization       =   135.91 Bohr mag/cell
     absolute magnetization    =   186.63 Bohr mag/cell

     iteration #  4     ecut=    50.00 Ry     beta= 0.10
     Davidson diagonalization with overlap
     ethr =  9.51E-03,  avg # of iterations =  1.5

     negative rho (up, down):  2.559E-01 7.089E-07
 
     Adding external electric field

     Computed dipole along edir(3) : 
        Dipole               -2.0092 Ry au,         -5.1068 Debye
        Dipole field         -0.0012 Ry au, 
 
        Potential amp.        0.1357 Ry
        Total length         55.1515 bohr
 
 
     Adding external electric field

     Computed dipole along edir(3) : 
        Dipole               -2.0092 Ry au,         -5.1068 Debye
        Dipole field         -0.0012 Ry au, 
 
        Potential amp.        0.1357 Ry
        Total length         55.1515 bohr
 

     total cpu time spent up to now is       75.7 secs

     total energy              =   -7661.46349702 Ry
     estimated scf accuracy    <      83.01547669 Ry

     total magnetization       =   120.07 Bohr mag/cell
     absolute magnetization    =   172.25 Bohr mag/cell

     iteration #  5     ecut=    50.00 Ry     beta= 0.10
     Davidson diagonalization with overlap
     ethr =  7.60E-03,  avg # of iterations =  1.0

     negative rho (up, down):  4.598E-02 7.609E-07
 
     Adding external electric field

     Computed dipole along edir(3) : 
        Dipole               -1.5994 Ry au,         -4.0654 Debye
        Dipole field         -0.0010 Ry au, 
 
        Potential amp.        0.1080 Ry
        Total length         55.1515 bohr
 
 
     Adding external electric field

     Computed dipole along edir(3) : 
        Dipole               -1.5994 Ry au,         -4.0654 Debye
        Dipole field         -0.0010 Ry au, 
 
        Potential amp.        0.1080 Ry
        Total length         55.1515 bohr
 

     total cpu time spent up to now is       87.6 secs

     total energy              =   -7720.04458074 Ry
     estimated scf accuracy    <      67.04508274 Ry

     total magnetization       =    97.82 Bohr mag/cell
     absolute magnetization    =   153.67 Bohr mag/cell

     iteration #  6     ecut=    50.00 Ry     beta= 0.10
     Davidson diagonalization with overlap
     ethr =  6.13E-03,  avg # of iterations =  1.0

     negative rho (up, down):  8.737E-04 1.300E-03
 
     Adding external electric field

     Computed dipole along edir(3) : 
        Dipole               -1.2074 Ry au,         -3.0690 Debye
        Dipole field         -0.0007 Ry au, 
 
        Potential amp.        0.0815 Ry
        Total length         55.1515 bohr
 
 
     Adding external electric field

     Computed dipole along edir(3) : 
        Dipole               -1.2074 Ry au,         -3.0690 Debye
        Dipole field         -0.0007 Ry au, 
 
        Potential amp.        0.0815 Ry
        Total length         55.1515 bohr
 

     total cpu time spent up to now is       98.4 secs

     total energy              =   -7735.65554040 Ry
     estimated scf accuracy    <      17.16672896 Ry

     total magnetization       =    91.00 Bohr mag/cell
     absolute magnetization    =   127.17 Bohr mag/cell

     iteration #  7     ecut=    50.00 Ry     beta= 0.10
     Davidson diagonalization with overlap
     ethr =  1.57E-03,  avg # of iterations =  6.0

     negative rho (up, down):  8.499E-04 1.274E-03
 
     Adding external electric field

     Computed dipole along edir(3) : 
        Dipole               -1.2089 Ry au,         -3.0728 Debye
        Dipole field         -0.0007 Ry au, 
 
        Potential amp.        0.0816 Ry
        Total length         55.1515 bohr
 
 
     Adding external electric field

     Computed dipole along edir(3) : 
        Dipole               -1.2089 Ry au,         -3.0728 Debye
        Dipole field         -0.0007 Ry au, 
 
        Potential amp.        0.0816 Ry
        Total length         55.1515 bohr
 

     total cpu time spent up to now is      117.6 secs

     total energy              =   -7738.21923537 Ry
     estimated scf accuracy    <      20.08101883 Ry

     total magnetization       =    70.50 Bohr mag/cell
     absolute magnetization    =    88.14 Bohr mag/cell

     iteration #  8     ecut=    50.00 Ry     beta= 0.10
     Davidson diagonalization with overlap
     ethr =  1.57E-03,  avg # of iterations =  1.0

     negative rho (up, down):  8.396E-04 1.248E-03
 
     Adding external electric field

     Computed dipole along edir(3) : 
        Dipole               -1.2115 Ry au,         -3.0794 Debye
        Dipole field         -0.0007 Ry au, 
 
        Potential amp.        0.0818 Ry
        Total length         55.1515 bohr
 
 
     Adding external electric field

     Computed dipole along edir(3) : 
        Dipole               -1.2115 Ry au,         -3.0794 Debye
        Dipole field         -0.0007 Ry au, 
 
        Potential amp.        0.0818 Ry
        Total length         55.1515 bohr
 

     total cpu time spent up to now is      128.9 secs

     total energy              =   -7738.28840375 Ry
     estimated scf accuracy    <      19.39383047 Ry

     total magnetization       =    70.77 Bohr mag/cell
     absolute magnetization    =    87.85 Bohr mag/cell

     iteration #  9     ecut=    50.00 Ry     beta= 0.10
     Davidson diagonalization with overlap
     ethr =  1.57E-03,  avg # of iterations =  1.0

     negative rho (up, down):  7.396E-04 1.165E-03
 
     Adding external electric field

     Computed dipole along edir(3) : 
        Dipole               -1.2387 Ry au,         -3.1484 Debye
        Dipole field         -0.0008 Ry au, 
 
        Potential amp.        0.0836 Ry
        Total length         55.1515 bohr
 
 
     Adding external electric field

     Computed dipole along edir(3) : 
        Dipole               -1.2387 Ry au,         -3.1484 Debye
        Dipole field         -0.0008 Ry au, 
 
        Potential amp.        0.0836 Ry
        Total length         55.1515 bohr
 

     total cpu time spent up to now is      139.9 secs

     total energy              =   -7738.28536355 Ry
     estimated scf accuracy    <      19.18248074 Ry

     total magnetization       =    70.84 Bohr mag/cell
     absolute magnetization    =    87.58 Bohr mag/cell

     iteration # 10     ecut=    50.00 Ry     beta= 0.10
     Davidson diagonalization with overlap
     ethr =  1.57E-03,  avg # of iterations =  1.0

     negative rho (up, down):  6.294E-04 1.115E-03
 
     Adding external electric field

     Computed dipole along edir(3) : 
        Dipole               -1.3808 Ry au,         -3.5096 Debye
        Dipole field         -0.0008 Ry au, 
 
        Potential amp.        0.0932 Ry
        Total length         55.1515 bohr
 
 
     Adding external electric field

     Computed dipole along edir(3) : 
        Dipole               -1.3808 Ry au,         -3.5096 Debye
        Dipole field         -0.0008 Ry au, 
 
        Potential amp.        0.0932 Ry
        Total length         55.1515 bohr
 

     total cpu time spent up to now is      150.3 secs

     total energy              =   -7738.05369845 Ry
     estimated scf accuracy    <      18.43023401 Ry

     total magnetization       =    70.96 Bohr mag/cell
     absolute magnetization    =    86.89 Bohr mag/cell

     iteration # 11     ecut=    50.00 Ry     beta= 0.10
     Davidson diagonalization with overlap
     ethr =  1.57E-03,  avg # of iterations =  1.0

     negative rho (up, down):  6.843E-04 1.138E-03
 
     Adding external electric field

     Computed dipole along edir(3) : 
        Dipole               -1.4911 Ry au,         -3.7900 Debye
        Dipole field         -0.0009 Ry au, 
 
        Potential amp.        0.1007 Ry
        Total length         55.1515 bohr
 
 
     Adding external electric field

     Computed dipole along edir(3) : 
        Dipole               -1.4911 Ry au,         -3.7900 Debye
        Dipole field         -0.0009 Ry au, 
 
        Potential amp.        0.1007 Ry
        Total length         55.1515 bohr
 

     total cpu time spent up to now is      160.8 secs

     total energy              =   -7737.97485296 Ry
     estimated scf accuracy    <      11.83537064 Ry

     total magnetization       =    74.33 Bohr mag/cell
     absolute magnetization    =    87.00 Bohr mag/cell

     iteration # 12     ecut=    50.00 Ry     beta= 0.10
     Davidson diagonalization with overlap
     ethr =  1.08E-03,  avg # of iterations =  1.0

     negative rho (up, down):  6.395E-04 1.130E-03
 
     Adding external electric field

     Computed dipole along edir(3) : 
        Dipole               -1.4840 Ry au,         -3.7720 Debye
        Dipole field         -0.0009 Ry au, 
 
        Potential amp.        0.1002 Ry
        Total length         55.1515 bohr
 
 
     Adding external electric field

     Computed dipole along edir(3) : 
        Dipole               -1.4840 Ry au,         -3.7720 Debye
        Dipole field         -0.0009 Ry au, 
 
        Potential amp.        0.1002 Ry
        Total length         55.1515 bohr
 

     total cpu time spent up to now is      171.1 secs

     total energy              =   -7738.05820514 Ry
     estimated scf accuracy    <       6.42801907 Ry

     total magnetization       =    81.40 Bohr mag/cell
     absolute magnetization    =    91.37 Bohr mag/cell

     iteration # 13     ecut=    50.00 Ry     beta= 0.10
     Davidson diagonalization with overlap
     ethr =  5.88E-04,  avg # of iterations =  1.5

     negative rho (up, down):  5.912E-04 1.393E-03
 
     Adding external electric field

     Computed dipole along edir(3) : 
        Dipole               -1.4906 Ry au,         -3.7888 Debye
        Dipole field         -0.0009 Ry au, 
 
        Potential amp.        0.1006 Ry
        Total length         55.1515 bohr
 
 
     Adding external electric field

     Computed dipole along edir(3) : 
        Dipole               -1.4906 Ry au,         -3.7888 Debye
        Dipole field         -0.0009 Ry au, 
 
        Potential amp.        0.1006 Ry
        Total length         55.1515 bohr
 

     total cpu time spent up to now is      182.3 secs

     total energy              =   -7738.00283293 Ry
     estimated scf accuracy    <       5.43762134 Ry

     total magnetization       =    82.11 Bohr mag/cell
     absolute magnetization    =    91.71 Bohr mag/cell

     iteration # 14     ecut=    50.00 Ry     beta= 0.10
     Davidson diagonalization with overlap
     ethr =  4.97E-04,  avg # of iterations =  1.5

     negative rho (up, down):  8.627E-04 2.372E-03
 
     Adding external electric field

     Computed dipole along edir(3) : 
        Dipole               -1.5311 Ry au,         -3.8916 Debye
        Dipole field         -0.0009 Ry au, 
 
        Potential amp.        0.1034 Ry
        Total length         55.1515 bohr
 
 
     Adding external electric field

     Computed dipole along edir(3) : 
        Dipole               -1.5311 Ry au,         -3.8916 Debye
        Dipole field         -0.0009 Ry au, 
 
        Potential amp.        0.1034 Ry
        Total length         55.1515 bohr
 

     total cpu time spent up to now is      193.7 secs

     total energy              =   -7738.18407252 Ry
     estimated scf accuracy    <       0.97670040 Ry

     total magnetization       =    89.14 Bohr mag/cell
     absolute magnetization    =    95.95 Bohr mag/cell

     iteration # 15     ecut=    50.00 Ry     beta= 0.10
     Davidson diagonalization with overlap
     ethr =  8.94E-05,  avg # of iterations = 10.5

     negative rho (up, down):  5.108E-04 1.318E-03
 
     Adding external electric field

     Computed dipole along edir(3) : 
        Dipole               -1.4712 Ry au,         -3.7394 Debye
        Dipole field         -0.0009 Ry au, 
 
        Potential amp.        0.0993 Ry
        Total length         55.1515 bohr
 
 
     Adding external electric field

     Computed dipole along edir(3) : 
        Dipole               -1.4712 Ry au,         -3.7394 Debye
        Dipole field         -0.0009 Ry au, 
 
        Potential amp.        0.0993 Ry
        Total length         55.1515 bohr
 

     total cpu time spent up to now is      211.7 secs

     total energy              =   -7738.22282315 Ry
     estimated scf accuracy    <       1.06145588 Ry

     total magnetization       =    89.76 Bohr mag/cell
     absolute magnetization    =    94.96 Bohr mag/cell

     iteration # 16     ecut=    50.00 Ry     beta= 0.10
     Davidson diagonalization with overlap
     ethr =  8.94E-05,  avg # of iterations =  1.5

     negative rho (up, down):  1.100E-03 2.215E-03
 
     Adding external electric field

     Computed dipole along edir(3) : 
        Dipole               -1.4535 Ry au,         -3.6943 Debye
        Dipole field         -0.0009 Ry au, 
 
        Potential amp.        0.0981 Ry
        Total length         55.1515 bohr
 
 
     Adding external electric field

     Computed dipole along edir(3) : 
        Dipole               -1.4535 Ry au,         -3.6943 Debye
        Dipole field         -0.0009 Ry au, 
 
        Potential amp.        0.0981 Ry
        Total length         55.1515 bohr
 

     total cpu time spent up to now is      223.1 secs

     total energy              =   -7738.35685488 Ry
     estimated scf accuracy    <       1.00938734 Ry

     total magnetization       =    88.73 Bohr mag/cell
     absolute magnetization    =    93.46 Bohr mag/cell

     iteration # 17     ecut=    50.00 Ry     beta= 0.10
     Davidson diagonalization with overlap
     ethr =  8.94E-05,  avg # of iterations =  1.5

     negative rho (up, down):  2.648E-04 5.491E-04
 
     Adding external electric field

     Computed dipole along edir(3) : 
        Dipole               -1.3228 Ry au,         -3.3621 Debye
        Dipole field         -0.0008 Ry au, 
 
        Potential amp.        0.0893 Ry
        Total length         55.1515 bohr
 
 
     Adding external electric field

     Computed dipole along edir(3) : 
        Dipole               -1.3228 Ry au,         -3.3621 Debye
        Dipole field         -0.0008 Ry au, 
 
        Potential amp.        0.0893 Ry
        Total length         55.1515 bohr
 

     total cpu time spent up to now is      235.0 secs

     total energy              =   -7738.35660754 Ry
     estimated scf accuracy    <       2.30418722 Ry

     total magnetization       =    86.86 Bohr mag/cell
     absolute magnetization    =    89.42 Bohr mag/cell

     iteration # 18     ecut=    50.00 Ry     beta= 0.10
     Davidson diagonalization with overlap
     ethr =  8.94E-05,  avg # of iterations =  1.5

     negative rho (up, down):  1.166E-04 3.748E-04
 
     Adding external electric field

     Computed dipole along edir(3) : 
        Dipole               -1.2557 Ry au,         -3.1918 Debye
        Dipole field         -0.0008 Ry au, 
 
        Potential amp.        0.0848 Ry
        Total length         55.1515 bohr
 
 
     Adding external electric field

     Computed dipole along edir(3) : 
        Dipole               -1.2557 Ry au,         -3.1918 Debye
        Dipole field         -0.0008 Ry au, 
 
        Potential amp.        0.0848 Ry
        Total length         55.1515 bohr
 

     total cpu time spent up to now is      246.3 secs

     total energy              =   -7738.34334874 Ry
     estimated scf accuracy    <       1.83838870 Ry

     total magnetization       =    86.84 Bohr mag/cell
     absolute magnetization    =    89.26 Bohr mag/cell

     iteration # 19     ecut=    50.00 Ry     beta= 0.10
     Davidson diagonalization with overlap
     ethr =  8.94E-05,  avg # of iterations =  1.5

     negative rho (up, down):  5.422E-05 3.309E-04
 
     Adding external electric field

     Computed dipole along edir(3) : 
        Dipole               -1.1769 Ry au,         -2.9913 Debye
        Dipole field         -0.0007 Ry au, 
 
        Potential amp.        0.0795 Ry
        Total length         55.1515 bohr
 
 
     Adding external electric field

     Computed dipole along edir(3) : 
        Dipole               -1.1769 Ry au,         -2.9913 Debye
        Dipole field         -0.0007 Ry au, 
 
        Potential amp.        0.0795 Ry
        Total length         55.1515 bohr
 

     total cpu time spent up to now is      258.1 secs

     total energy              =   -7738.27277417 Ry
     estimated scf accuracy    <       1.19244016 Ry

     total magnetization       =    87.32 Bohr mag/cell
     absolute magnetization    =    89.56 Bohr mag/cell

     iteration # 20     ecut=    50.00 Ry     beta= 0.10
     Davidson diagonalization with overlap
     ethr =  8.94E-05,  avg # of iterations =  1.5

     negative rho (up, down):  1.609E-05 1.349E-04
 
     Adding external electric field

     Computed dipole along edir(3) : 
        Dipole               -1.1451 Ry au,         -2.9105 Debye
        Dipole field         -0.0007 Ry au, 
 
        Potential amp.        0.0773 Ry
        Total length         55.1515 bohr
 
 
     Adding external electric field

     Computed dipole along edir(3) : 
        Dipole               -1.1451 Ry au,         -2.9105 Debye
        Dipole field         -0.0007 Ry au, 
 
        Potential amp.        0.0773 Ry
        Total length         55.1515 bohr
 

     total cpu time spent up to now is      269.3 secs

     total energy              =   -7738.19529120 Ry
     estimated scf accuracy    <       0.55687764 Ry

     total magnetization       =    88.42 Bohr mag/cell
     absolute magnetization    =    90.71 Bohr mag/cell

     iteration # 21     ecut=    50.00 Ry     beta= 0.10
     Davidson diagonalization with overlap
     ethr =  5.09E-05,  avg # of iterations =  2.0

     negative rho (up, down):  2.234E-05 1.294E-04
 
     Adding external electric field

     Computed dipole along edir(3) : 
        Dipole               -1.1534 Ry au,         -2.9316 Debye
        Dipole field         -0.0007 Ry au, 
 
        Potential amp.        0.0779 Ry
        Total length         55.1515 bohr
 
 
     Adding external electric field

     Computed dipole along edir(3) : 
        Dipole               -1.1534 Ry au,         -2.9316 Debye
        Dipole field         -0.0007 Ry au, 
 
        Potential amp.        0.0779 Ry
        Total length         55.1515 bohr
 

     total cpu time spent up to now is      281.9 secs

     total energy              =   -7738.22964003 Ry
     estimated scf accuracy    <       1.15522607 Ry

     total magnetization       =    86.82 Bohr mag/cell
     absolute magnetization    =    90.24 Bohr mag/cell

     iteration # 22     ecut=    50.00 Ry     beta= 0.10
     Davidson diagonalization with overlap
     ethr =  5.09E-05,  avg # of iterations =  1.0

     negative rho (up, down):  2.211E-05 9.147E-05
 
     Adding external electric field

     Computed dipole along edir(3) : 
        Dipole               -1.1293 Ry au,         -2.8704 Debye
        Dipole field         -0.0007 Ry au, 
 
        Potential amp.        0.0762 Ry
        Total length         55.1515 bohr
 
 
     Adding external electric field

     Computed dipole along edir(3) : 
        Dipole               -1.1293 Ry au,         -2.8704 Debye
        Dipole field         -0.0007 Ry au, 
 
        Potential amp.        0.0762 Ry
        Total length         55.1515 bohr
 

     total cpu time spent up to now is      292.5 secs

     total energy              =   -7738.25140925 Ry
     estimated scf accuracy    <       0.81644367 Ry

     total magnetization       =    87.20 Bohr mag/cell
     absolute magnetization    =    90.55 Bohr mag/cell

     iteration # 23     ecut=    50.00 Ry     beta= 0.10
     Davidson diagonalization with overlap
     ethr =  5.09E-05,  avg # of iterations =  1.5

     negative rho (up, down):  5.335E-06 6.311E-06
 
     Adding external electric field

     Computed dipole along edir(3) : 
        Dipole               -0.8598 Ry au,         -2.1854 Debye
        Dipole field         -0.0005 Ry au, 
 
        Potential amp.        0.0581 Ry
        Total length         55.1515 bohr
 
 
     Adding external electric field

     Computed dipole along edir(3) : 
        Dipole               -0.8598 Ry au,         -2.1854 Debye
        Dipole field         -0.0005 Ry au, 
 
        Potential amp.        0.0581 Ry
        Total length         55.1515 bohr
 

     total cpu time spent up to now is      304.2 secs

     total energy              =   -7738.30548474 Ry
     estimated scf accuracy    <       0.67814274 Ry

     total magnetization       =    87.24 Bohr mag/cell
     absolute magnetization    =    90.45 Bohr mag/cell

     iteration # 24     ecut=    50.00 Ry     beta= 0.10
     Davidson diagonalization with overlap
     ethr =  5.09E-05,  avg # of iterations =  2.0

     negative rho (up, down):  5.986E-06 7.818E-06
 
     Adding external electric field

     Computed dipole along edir(3) : 
        Dipole               -0.8265 Ry au,         -2.1007 Debye
        Dipole field         -0.0005 Ry au, 
 
        Potential amp.        0.0558 Ry
        Total length         55.1515 bohr
 
 
     Adding external electric field

     Computed dipole along edir(3) : 
        Dipole               -0.8265 Ry au,         -2.1007 Debye
        Dipole field         -0.0005 Ry au, 
 
        Potential amp.        0.0558 Ry
        Total length         55.1515 bohr
 

     total cpu time spent up to now is      316.8 secs

     total energy              =   -7738.32981857 Ry
     estimated scf accuracy    <       2.30435652 Ry

     total magnetization       =    83.73 Bohr mag/cell
     absolute magnetization    =    86.31 Bohr mag/cell

     iteration # 25     ecut=    50.00 Ry     beta= 0.10
     Davidson diagonalization with overlap
     ethr =  5.09E-05,  avg # of iterations =  1.5

     negative rho (up, down):  5.789E-06 7.751E-06
 
     Adding external electric field

     Computed dipole along edir(3) : 
        Dipole               -0.8543 Ry au,         -2.1714 Debye
        Dipole field         -0.0005 Ry au, 
 
        Potential amp.        0.0577 Ry
        Total length         55.1515 bohr
 
 
     Adding external electric field

     Computed dipole along edir(3) : 
        Dipole               -0.8543 Ry au,         -2.1714 Debye
        Dipole field         -0.0005 Ry au, 
 
        Potential amp.        0.0577 Ry
        Total length         55.1515 bohr
 

     total cpu time spent up to now is      328.4 secs

     total energy              =   -7738.33271132 Ry
     estimated scf accuracy    <       1.78483140 Ry

     total magnetization       =    84.79 Bohr mag/cell
     absolute magnetization    =    86.69 Bohr mag/cell

     iteration # 26     ecut=    50.00 Ry     beta= 0.10
     Davidson diagonalization with overlap
     ethr =  5.09E-05,  avg # of iterations =  1.0

     negative rho (up, down):  4.857E-06 5.919E-06
 
     Adding external electric field

     Computed dipole along edir(3) : 
        Dipole               -0.8128 Ry au,         -2.0659 Debye
        Dipole field         -0.0005 Ry au, 
 
        Potential amp.        0.0549 Ry
        Total length         55.1515 bohr
 
 
     Adding external electric field

     Computed dipole along edir(3) : 
        Dipole               -0.8128 Ry au,         -2.0659 Debye
        Dipole field         -0.0005 Ry au, 
 
        Potential amp.        0.0549 Ry
        Total length         55.1515 bohr
 

     total cpu time spent up to now is      339.6 secs

     total energy              =   -7738.33994422 Ry
     estimated scf accuracy    <       1.70838420 Ry

     total magnetization       =    84.94 Bohr mag/cell
     absolute magnetization    =    86.90 Bohr mag/cell

     iteration # 27     ecut=    50.00 Ry     beta= 0.10
     Davidson diagonalization with overlap
     ethr =  5.09E-05,  avg # of iterations =  1.5

     negative rho (up, down):  2.842E-05 1.070E-04
 
     Adding external electric field

     Computed dipole along edir(3) : 
        Dipole               -0.8030 Ry au,         -2.0411 Debye
        Dipole field         -0.0005 Ry au, 
 
        Potential amp.        0.0542 Ry
        Total length         55.1515 bohr
 
 
     Adding external electric field

     Computed dipole along edir(3) : 
        Dipole               -0.8030 Ry au,         -2.0411 Debye
        Dipole field         -0.0005 Ry au, 
 
        Potential amp.        0.0542 Ry
        Total length         55.1515 bohr
 

     total cpu time spent up to now is      352.0 secs

     total energy              =   -7738.27675953 Ry
     estimated scf accuracy    <       2.23959866 Ry

     total magnetization       =    83.76 Bohr mag/cell
     absolute magnetization    =    86.01 Bohr mag/cell

     iteration # 28     ecut=    50.00 Ry     beta= 0.10
     Davidson diagonalization with overlap
     ethr =  5.09E-05,  avg # of iterations =  9.5

     negative rho (up, down):  6.514E-05 2.830E-04
 
     Adding external electric field

     Computed dipole along edir(3) : 
        Dipole               -0.7928 Ry au,         -2.0150 Debye
        Dipole field         -0.0005 Ry au, 
 
        Potential amp.        0.0535 Ry
        Total length         55.1515 bohr
 
 
     Adding external electric field

     Computed dipole along edir(3) : 
        Dipole               -0.7928 Ry au,         -2.0150 Debye
        Dipole field         -0.0005 Ry au, 
 
        Potential amp.        0.0535 Ry
        Total length         55.1515 bohr
 

     total cpu time spent up to now is      367.6 secs

     total energy              =   -7738.29496610 Ry
     estimated scf accuracy    <       0.63893481 Ry

     total magnetization       =    87.46 Bohr mag/cell
     absolute magnetization    =    89.21 Bohr mag/cell

     iteration # 29     ecut=    50.00 Ry     beta= 0.10
     Davidson diagonalization with overlap
     ethr =  5.09E-05,  avg # of iterations =  1.0

     negative rho (up, down):  2.783E-05 9.905E-05
 
     Adding external electric field

     Computed dipole along edir(3) : 
        Dipole               -0.8106 Ry au,         -2.0603 Debye
        Dipole field         -0.0005 Ry au, 
 
        Potential amp.        0.0547 Ry
        Total length         55.1515 bohr
 
 
     Adding external electric field

     Computed dipole along edir(3) : 
        Dipole               -0.8106 Ry au,         -2.0603 Debye
        Dipole field         -0.0005 Ry au, 
 
        Potential amp.        0.0547 Ry
        Total length         55.1515 bohr
 

     total cpu time spent up to now is      379.5 secs

     total energy              =   -7738.30321160 Ry
     estimated scf accuracy    <       0.57094218 Ry

     total magnetization       =    87.13 Bohr mag/cell
     absolute magnetization    =    89.17 Bohr mag/cell

     iteration # 30     ecut=    50.00 Ry     beta= 0.10
     Davidson diagonalization with overlap
     ethr =  5.09E-05,  avg # of iterations =  1.5

     negative rho (up, down):  4.085E-06 1.268E-05
 
     Adding external electric field

     Computed dipole along edir(3) : 
        Dipole               -0.6904 Ry au,         -1.7549 Debye
        Dipole field         -0.0004 Ry au, 
 
        Potential amp.        0.0466 Ry
        Total length         55.1515 bohr
 
 
     Adding external electric field

     Computed dipole along edir(3) : 
        Dipole               -0.6904 Ry au,         -1.7549 Debye
        Dipole field         -0.0004 Ry au, 
 
        Potential amp.        0.0466 Ry
        Total length         55.1515 bohr
 

     total cpu time spent up to now is      391.0 secs

     total energy              =   -7738.32095523 Ry
     estimated scf accuracy    <       0.46354994 Ry

     total magnetization       =    87.56 Bohr mag/cell
     absolute magnetization    =    89.60 Bohr mag/cell

     iteration # 31     ecut=    50.00 Ry     beta= 0.10
     Davidson diagonalization with overlap
     ethr =  4.24E-05,  avg # of iterations =  1.5

     negative rho (up, down):  6.499E-06 1.927E-05
 
     Adding external electric field

     Computed dipole along edir(3) : 
        Dipole               -0.6250 Ry au,         -1.5885 Debye
        Dipole field         -0.0004 Ry au, 
 
        Potential amp.        0.0422 Ry
        Total length         55.1515 bohr
 
 
     Adding external electric field

     Computed dipole along edir(3) : 
        Dipole               -0.6250 Ry au,         -1.5885 Debye
        Dipole field         -0.0004 Ry au, 
 
        Potential amp.        0.0422 Ry
        Total length         55.1515 bohr
 

     total cpu time spent up to now is      403.0 secs

     total energy              =   -7738.33008817 Ry
     estimated scf accuracy    <       0.47749108 Ry

     total magnetization       =    87.89 Bohr mag/cell
     absolute magnetization    =    89.68 Bohr mag/cell

     iteration # 32     ecut=    50.00 Ry     beta= 0.10
     Davidson diagonalization with overlap
     ethr =  4.24E-05,  avg # of iterations =  1.5

     negative rho (up, down):  3.964E-05 6.615E-05
 
     Adding external electric field

     Computed dipole along edir(3) : 
        Dipole               -0.5056 Ry au,         -1.2850 Debye
        Dipole field         -0.0003 Ry au, 
 
        Potential amp.        0.0341 Ry
        Total length         55.1515 bohr
 
 
     Adding external electric field

     Computed dipole along edir(3) : 
        Dipole               -0.5056 Ry au,         -1.2850 Debye
        Dipole field         -0.0003 Ry au, 
 
        Potential amp.        0.0341 Ry
        Total length         55.1515 bohr
 

     total cpu time spent up to now is      415.0 secs

     total energy              =   -7738.33651987 Ry
     estimated scf accuracy    <       0.48085630 Ry

     total magnetization       =    88.12 Bohr mag/cell
     absolute magnetization    =    89.89 Bohr mag/cell

     iteration # 33     ecut=    50.00 Ry     beta= 0.10
     Davidson diagonalization with overlap
     ethr =  4.24E-05,  avg # of iterations =  1.5

     negative rho (up, down):  4.712E-04 6.065E-04
 
     Adding external electric field

     Computed dipole along edir(3) : 
        Dipole               -0.3809 Ry au,         -0.9682 Debye
        Dipole field         -0.0002 Ry au, 
 
        Potential amp.        0.0257 Ry
        Total length         55.1515 bohr
 
 
     Adding external electric field

     Computed dipole along edir(3) : 
        Dipole               -0.3809 Ry au,         -0.9682 Debye
        Dipole field         -0.0002 Ry au, 
 
        Potential amp.        0.0257 Ry
        Total length         55.1515 bohr
 

     total cpu time spent up to now is      426.6 secs

     total energy              =   -7738.33876760 Ry
     estimated scf accuracy    <       0.48729284 Ry

     total magnetization       =    88.40 Bohr mag/cell
     absolute magnetization    =    90.27 Bohr mag/cell

     iteration # 34     ecut=    50.00 Ry     beta= 0.10
     Davidson diagonalization with overlap
     ethr =  4.24E-05,  avg # of iterations =  1.5

     negative rho (up, down):  1.776E-04 3.326E-04
 
     Adding external electric field

     Computed dipole along edir(3) : 
        Dipole               -0.4019 Ry au,         -1.0215 Debye
        Dipole field         -0.0002 Ry au, 
 
        Potential amp.        0.0271 Ry
        Total length         55.1515 bohr
 
 
     Adding external electric field

     Computed dipole along edir(3) : 
        Dipole               -0.4019 Ry au,         -1.0215 Debye
        Dipole field         -0.0002 Ry au, 
 
        Potential amp.        0.0271 Ry
        Total length         55.1515 bohr
 

     total cpu time spent up to now is      438.5 secs

     total energy              =   -7738.32878196 Ry
     estimated scf accuracy    <       0.48631050 Ry

     total magnetization       =    88.50 Bohr mag/cell
     absolute magnetization    =    90.40 Bohr mag/cell

     iteration # 35     ecut=    50.00 Ry     beta= 0.10
     Davidson diagonalization with overlap
     ethr =  4.24E-05,  avg # of iterations =  1.5

     negative rho (up, down):  5.712E-04 7.840E-04
 
     Adding external electric field

     Computed dipole along edir(3) : 
        Dipole               -0.3471 Ry au,         -0.8824 Debye
        Dipole field         -0.0002 Ry au, 
 
        Potential amp.        0.0234 Ry
        Total length         55.1515 bohr
 
 
     Adding external electric field

     Computed dipole along edir(3) : 
        Dipole               -0.3471 Ry au,         -0.8824 Debye
        Dipole field         -0.0002 Ry au, 
 
        Potential amp.        0.0234 Ry
        Total length         55.1515 bohr
 

     total cpu time spent up to now is      450.6 secs

     total energy              =   -7738.30334138 Ry
     estimated scf accuracy    <       0.44874649 Ry

     total magnetization       =    88.35 Bohr mag/cell
     absolute magnetization    =    90.33 Bohr mag/cell

     iteration # 36     ecut=    50.00 Ry     beta= 0.10
     Davidson diagonalization with overlap
     ethr =  4.11E-05,  avg # of iterations =  1.0

     negative rho (up, down):  8.307E-05 1.681E-04
 
     Adding external electric field

     Computed dipole along edir(3) : 
        Dipole               -0.4901 Ry au,         -1.2457 Debye
        Dipole field         -0.0003 Ry au, 
 
        Potential amp.        0.0331 Ry
        Total length         55.1515 bohr
 
 
     Adding external electric field

     Computed dipole along edir(3) : 
        Dipole               -0.4901 Ry au,         -1.2457 Debye
        Dipole field         -0.0003 Ry au, 
 
        Potential amp.        0.0331 Ry
        Total length         55.1515 bohr
 

     total cpu time spent up to now is      462.3 secs

     total energy              =   -7738.29095951 Ry
     estimated scf accuracy    <       0.36359901 Ry

     total magnetization       =    88.66 Bohr mag/cell
     absolute magnetization    =    91.19 Bohr mag/cell

     iteration # 37     ecut=    50.00 Ry     beta= 0.10
     Davidson diagonalization with overlap
     ethr =  3.33E-05,  avg # of iterations =  1.5

     negative rho (up, down):  3.291E-05 1.318E-04
 
     Adding external electric field

     Computed dipole along edir(3) : 
        Dipole               -0.5416 Ry au,         -1.3767 Debye
        Dipole field         -0.0003 Ry au, 
 
        Potential amp.        0.0366 Ry
        Total length         55.1515 bohr
 
 
     Adding external electric field

     Computed dipole along edir(3) : 
        Dipole               -0.5416 Ry au,         -1.3767 Debye
        Dipole field         -0.0003 Ry au, 
 
        Potential amp.        0.0366 Ry
        Total length         55.1515 bohr
 

     total cpu time spent up to now is      474.1 secs

     total energy              =   -7738.30899739 Ry
     estimated scf accuracy    <       0.16868493 Ry

     total magnetization       =    88.11 Bohr mag/cell
     absolute magnetization    =    90.57 Bohr mag/cell

     iteration # 38     ecut=    50.00 Ry     beta= 0.10
     Davidson diagonalization with overlap
     ethr =  1.54E-05,  avg # of iterations =  2.0

     negative rho (up, down):  7.474E-05 2.362E-04
 
     Adding external electric field

     Computed dipole along edir(3) : 
        Dipole               -0.5587 Ry au,         -1.4201 Debye
        Dipole field         -0.0003 Ry au, 
 
        Potential amp.        0.0377 Ry
        Total length         55.1515 bohr
 
 
     Adding external electric field

     Computed dipole along edir(3) : 
        Dipole               -0.5587 Ry au,         -1.4201 Debye
        Dipole field         -0.0003 Ry au, 
 
        Potential amp.        0.0377 Ry
        Total length         55.1515 bohr
 

     total cpu time spent up to now is      486.9 secs

     total energy              =   -7738.31569780 Ry
     estimated scf accuracy    <       0.19680648 Ry

     total magnetization       =    88.95 Bohr mag/cell
     absolute magnetization    =    90.61 Bohr mag/cell

     iteration # 39     ecut=    50.00 Ry     beta= 0.10
     Davidson diagonalization with overlap
     ethr =  1.54E-05,  avg # of iterations =  1.5

     negative rho (up, down):  5.866E-05 1.630E-04
 
     Adding external electric field

     Computed dipole along edir(3) : 
        Dipole               -0.5615 Ry au,         -1.4273 Debye
        Dipole field         -0.0003 Ry au, 
 
        Potential amp.        0.0379 Ry
        Total length         55.1515 bohr
 
 
     Adding external electric field

     Computed dipole along edir(3) : 
        Dipole               -0.5615 Ry au,         -1.4273 Debye
        Dipole field         -0.0003 Ry au, 
 
        Potential amp.        0.0379 Ry
        Total length         55.1515 bohr
 

     total cpu time spent up to now is      498.7 secs

     total energy              =   -7738.31778274 Ry
     estimated scf accuracy    <       0.14295342 Ry

     total magnetization       =    88.95 Bohr mag/cell
     absolute magnetization    =    90.48 Bohr mag/cell

     iteration # 40     ecut=    50.00 Ry     beta= 0.10
     Davidson diagonalization with overlap
     ethr =  1.31E-05,  avg # of iterations =  2.0

     negative rho (up, down):  1.388E-05 2.192E-05
 
     Adding external electric field

     Computed dipole along edir(3) : 
        Dipole               -0.5506 Ry au,         -1.3995 Debye
        Dipole field         -0.0003 Ry au, 
 
        Potential amp.        0.0372 Ry
        Total length         55.1515 bohr
 
 
     Adding external electric field

     Computed dipole along edir(3) : 
        Dipole               -0.5506 Ry au,         -1.3995 Debye
        Dipole field         -0.0003 Ry au, 
 
        Potential amp.        0.0372 Ry
        Total length         55.1515 bohr
 

     total cpu time spent up to now is      511.2 secs

     total energy              =   -7738.31911393 Ry
     estimated scf accuracy    <       0.10308429 Ry

     total magnetization       =    88.84 Bohr mag/cell
     absolute magnetization    =    90.26 Bohr mag/cell

     iteration # 41     ecut=    50.00 Ry     beta= 0.10
     Davidson diagonalization with overlap
     ethr =  9.43E-06,  avg # of iterations =  2.0

     negative rho (up, down):  2.861E-05 4.132E-05
 
     Adding external electric field

     Computed dipole along edir(3) : 
        Dipole               -0.5112 Ry au,         -1.2994 Debye
        Dipole field         -0.0003 Ry au, 
 
        Potential amp.        0.0345 Ry
        Total length         55.1515 bohr
 
 
     Adding external electric field

     Computed dipole along edir(3) : 
        Dipole               -0.5112 Ry au,         -1.2994 Debye
        Dipole field         -0.0003 Ry au, 
 
        Potential amp.        0.0345 Ry
        Total length         55.1515 bohr
 

     total cpu time spent up to now is      523.6 secs

     total energy              =   -7738.31803065 Ry
     estimated scf accuracy    <       0.08811589 Ry

     total magnetization       =    88.74 Bohr mag/cell
     absolute magnetization    =    90.06 Bohr mag/cell

     iteration # 42     ecut=    50.00 Ry     beta= 0.10
     Davidson diagonalization with overlap
     c_bands:  2 eigenvalues not converged
     ethr =  8.06E-06,  avg # of iterations = 21.0

     negative rho (up, down):  5.976E-05 4.490E-05
 
     Adding external electric field

     Computed dipole along edir(3) : 
        Dipole               -0.3968 Ry au,         -1.0085 Debye
        Dipole field         -0.0002 Ry au, 
 
        Potential amp.        0.0268 Ry
        Total length         55.1515 bohr
 
 
     Adding external electric field

     Computed dipole along edir(3) : 
        Dipole               -0.3968 Ry au,         -1.0085 Debye
        Dipole field         -0.0002 Ry au, 
 
        Potential amp.        0.0268 Ry
        Total length         55.1515 bohr
 

     total cpu time spent up to now is      551.7 secs

     total energy              =   -7738.31608748 Ry
     estimated scf accuracy    <       0.04269881 Ry

     total magnetization       =    88.69 Bohr mag/cell
     absolute magnetization    =    89.93 Bohr mag/cell

     iteration # 43     ecut=    50.00 Ry     beta= 0.10
     Davidson diagonalization with overlap
     c_bands:  2 eigenvalues not converged
     ethr =  3.91E-06,  avg # of iterations = 28.5

     negative rho (up, down):  1.183E-04 9.249E-05
 
     Adding external electric field

     Computed dipole along edir(3) : 
        Dipole               -0.3609 Ry au,         -0.9172 Debye
        Dipole field         -0.0002 Ry au, 
 
        Potential amp.        0.0244 Ry
        Total length         55.1515 bohr
 
 
     Adding external electric field

     Computed dipole along edir(3) : 
        Dipole               -0.3609 Ry au,         -0.9172 Debye
        Dipole field         -0.0002 Ry au, 
 
        Potential amp.        0.0244 Ry
        Total length         55.1515 bohr
 

     total cpu time spent up to now is      582.6 secs

     total energy              =   -7738.31609376 Ry
     estimated scf accuracy    <       0.03318178 Ry

     total magnetization       =    88.76 Bohr mag/cell
     absolute magnetization    =    89.92 Bohr mag/cell

     iteration # 44     ecut=    50.00 Ry     beta= 0.10
     Davidson diagonalization with overlap
     ethr =  3.04E-06,  avg # of iterations =  2.0

     negative rho (up, down):  2.308E-04 2.121E-04
 
     Adding external electric field

     Computed dipole along edir(3) : 
        Dipole               -0.3146 Ry au,         -0.7997 Debye
        Dipole field         -0.0002 Ry au, 
 
        Potential amp.        0.0212 Ry
        Total length         55.1515 bohr
 
 
     Adding external electric field

     Computed dipole along edir(3) : 
        Dipole               -0.3146 Ry au,         -0.7997 Debye
        Dipole field         -0.0002 Ry au, 
 
        Potential amp.        0.0212 Ry
        Total length         55.1515 bohr
 

     total cpu time spent up to now is      595.3 secs

     total energy              =   -7738.31665956 Ry
     estimated scf accuracy    <       0.02487281 Ry

     total magnetization       =    88.39 Bohr mag/cell
     absolute magnetization    =    89.55 Bohr mag/cell

     iteration # 45     ecut=    50.00 Ry     beta= 0.10
     Davidson diagonalization with overlap
     ethr =  2.28E-06,  avg # of iterations =  2.0

     negative rho (up, down):  1.716E-04 1.614E-04
 
     Adding external electric field

     Computed dipole along edir(3) : 
        Dipole               -0.3351 Ry au,         -0.8517 Debye
        Dipole field         -0.0002 Ry au, 
 
        Potential amp.        0.0226 Ry
        Total length         55.1515 bohr
 
 
     Adding external electric field

     Computed dipole along edir(3) : 
        Dipole               -0.3351 Ry au,         -0.8517 Debye
        Dipole field         -0.0002 Ry au, 
 
        Potential amp.        0.0226 Ry
        Total length         55.1515 bohr
 

     total cpu time spent up to now is      607.7 secs

     total energy              =   -7738.31680540 Ry
     estimated scf accuracy    <       0.02297989 Ry

     total magnetization       =    88.56 Bohr mag/cell
     absolute magnetization    =    89.71 Bohr mag/cell

     iteration # 46     ecut=    50.00 Ry     beta= 0.10
     Davidson diagonalization with overlap
     ethr =  2.10E-06,  avg # of iterations =  1.5

     negative rho (up, down):  9.583E-04 7.611E-04
 
     Adding external electric field

     Computed dipole along edir(3) : 
        Dipole               -0.2187 Ry au,         -0.5559 Debye
        Dipole field         -0.0001 Ry au, 
 
        Potential amp.        0.0148 Ry
        Total length         55.1515 bohr
 
 
     Adding external electric field

     Computed dipole along edir(3) : 
        Dipole               -0.2187 Ry au,         -0.5559 Debye
        Dipole field         -0.0001 Ry au, 
 
        Potential amp.        0.0148 Ry
        Total length         55.1515 bohr
 

     total cpu time spent up to now is      618.4 secs

     total energy              =   -7738.31710160 Ry
     estimated scf accuracy    <       0.02377771 Ry

     total magnetization       =    88.53 Bohr mag/cell
     absolute magnetization    =    89.67 Bohr mag/cell

     iteration # 47     ecut=    50.00 Ry     beta= 0.10
     Davidson diagonalization with overlap
     ethr =  2.10E-06,  avg # of iterations =  3.5

     negative rho (up, down):  9.606E-04 7.464E-04
 
     Adding external electric field

     Computed dipole along edir(3) : 
        Dipole               -0.2179 Ry au,         -0.5539 Debye
        Dipole field         -0.0001 Ry au, 
 
        Potential amp.        0.0147 Ry
        Total length         55.1515 bohr
 
 
     Adding external electric field

     Computed dipole along edir(3) : 
        Dipole               -0.2179 Ry au,         -0.5539 Debye
        Dipole field         -0.0001 Ry au, 
 
        Potential amp.        0.0147 Ry
        Total length         55.1515 bohr
 

     total cpu time spent up to now is      632.0 secs

     total energy              =   -7738.31812736 Ry
     estimated scf accuracy    <       0.01924237 Ry

     total magnetization       =    88.61 Bohr mag/cell
     absolute magnetization    =    89.99 Bohr mag/cell

     iteration # 48     ecut=    50.00 Ry     beta= 0.10
     Davidson diagonalization with overlap
     ethr =  1.76E-06,  avg # of iterations =  1.0

     negative rho (up, down):  1.151E-04 1.173E-04
 
     Adding external electric field

     Computed dipole along edir(3) : 
        Dipole               -0.2729 Ry au,         -0.6937 Debye
        Dipole field         -0.0002 Ry au, 
 
        Potential amp.        0.0184 Ry
        Total length         55.1515 bohr
 
 
     Adding external electric field

     Computed dipole along edir(3) : 
        Dipole               -0.2729 Ry au,         -0.6937 Debye
        Dipole field         -0.0002 Ry au, 
 
        Potential amp.        0.0184 Ry
        Total length         55.1515 bohr
 

     total cpu time spent up to now is      642.7 secs

     total energy              =   -7738.31787165 Ry
     estimated scf accuracy    <       0.02036233 Ry

     total magnetization       =    88.64 Bohr mag/cell
     absolute magnetization    =    90.03 Bohr mag/cell

     iteration # 49     ecut=    50.00 Ry     beta= 0.10
     Davidson diagonalization with overlap
     ethr =  1.76E-06,  avg # of iterations =  2.0

     negative rho (up, down):  1.012E-04 1.296E-04
 
     Adding external electric field

     Computed dipole along edir(3) : 
        Dipole               -0.2555 Ry au,         -0.6495 Debye
        Dipole field         -0.0002 Ry au, 
 
        Potential amp.        0.0173 Ry
        Total length         55.1515 bohr
 
 
     Adding external electric field

     Computed dipole along edir(3) : 
        Dipole               -0.2555 Ry au,         -0.6495 Debye
        Dipole field         -0.0002 Ry au, 
 
        Potential amp.        0.0173 Ry
        Total length         55.1515 bohr
 

     total cpu time spent up to now is      655.6 secs

     total energy              =   -7738.31803662 Ry
     estimated scf accuracy    <       0.00969954 Ry

     total magnetization       =    88.49 Bohr mag/cell
     absolute magnetization    =    89.89 Bohr mag/cell

     iteration # 50     ecut=    50.00 Ry     beta= 0.10
     Davidson diagonalization with overlap
     ethr =  8.87E-07,  avg # of iterations =  1.5

     negative rho (up, down):  7.804E-04 1.088E-03
 
     Adding external electric field

     Computed dipole along edir(3) : 
        Dipole               -0.2216 Ry au,         -0.5633 Debye
        Dipole field         -0.0001 Ry au, 
 
        Potential amp.        0.0150 Ry
        Total length         55.1515 bohr
 
 
     Adding external electric field

     Computed dipole along edir(3) : 
        Dipole               -0.2216 Ry au,         -0.5633 Debye
        Dipole field         -0.0001 Ry au, 
 
        Potential amp.        0.0150 Ry
        Total length         55.1515 bohr
 

     total cpu time spent up to now is      667.2 secs

     total energy              =   -7738.31773235 Ry
     estimated scf accuracy    <       0.00709336 Ry

     total magnetization       =    88.45 Bohr mag/cell
     absolute magnetization    =    89.90 Bohr mag/cell

     iteration # 51     ecut=    50.00 Ry     beta= 0.10
     Davidson diagonalization with overlap
     ethr =  6.49E-07,  avg # of iterations =  2.0

     negative rho (up, down):  2.873E-04 4.239E-04
 
     Adding external electric field

     Computed dipole along edir(3) : 
        Dipole               -0.2765 Ry au,         -0.7028 Debye
        Dipole field         -0.0002 Ry au, 
 
        Potential amp.        0.0187 Ry
        Total length         55.1515 bohr
 
 
     Adding external electric field

     Computed dipole along edir(3) : 
        Dipole               -0.2765 Ry au,         -0.7028 Debye
        Dipole field         -0.0002 Ry au, 
 
        Potential amp.        0.0187 Ry
        Total length         55.1515 bohr
 

     total cpu time spent up to now is      679.8 secs

     total energy              =   -7738.31761320 Ry
     estimated scf accuracy    <       0.00445730 Ry

     total magnetization       =    88.42 Bohr mag/cell
     absolute magnetization    =    89.91 Bohr mag/cell

     iteration # 52     ecut=    50.00 Ry     beta= 0.10
     Davidson diagonalization with overlap
     c_bands:  4 eigenvalues not converged
     ethr =  4.08E-07,  avg # of iterations = 11.0

     negative rho (up, down):  1.791E-05 1.658E-05
 
     Adding external electric field

     Computed dipole along edir(3) : 
        Dipole               -0.3095 Ry au,         -0.7866 Debye
        Dipole field         -0.0002 Ry au, 
 
        Potential amp.        0.0209 Ry
        Total length         55.1515 bohr
 
 
     Adding external electric field

     Computed dipole along edir(3) : 
        Dipole               -0.3095 Ry au,         -0.7866 Debye
        Dipole field         -0.0002 Ry au, 
 
        Potential amp.        0.0209 Ry
        Total length         55.1515 bohr
 

     total cpu time spent up to now is      698.0 secs

     total energy              =   -7738.31777995 Ry
     estimated scf accuracy    <       0.00189117 Ry

     total magnetization       =    88.48 Bohr mag/cell
     absolute magnetization    =    89.92 Bohr mag/cell

     iteration # 53     ecut=    50.00 Ry     beta= 0.10
     Davidson diagonalization with overlap
     ethr =  1.73E-07,  avg # of iterations =  5.0

     negative rho (up, down):  1.164E-05 1.029E-05
 
     Adding external electric field

     Computed dipole along edir(3) : 
        Dipole               -0.3370 Ry au,         -0.8565 Debye
        Dipole field         -0.0002 Ry au, 
 
        Potential amp.        0.0228 Ry
        Total length         55.1515 bohr
 
 
     Adding external electric field

     Computed dipole along edir(3) : 
        Dipole               -0.3370 Ry au,         -0.8565 Debye
        Dipole field         -0.0002 Ry au, 
 
        Potential amp.        0.0228 Ry
        Total length         55.1515 bohr
 

     total cpu time spent up to now is      711.7 secs

     total energy              =   -7738.31782496 Ry
     estimated scf accuracy    <       0.00109934 Ry

     total magnetization       =    88.49 Bohr mag/cell
     absolute magnetization    =    89.93 Bohr mag/cell

     iteration # 54     ecut=    50.00 Ry     beta= 0.10
     Davidson diagonalization with overlap
     ethr =  1.01E-07,  avg # of iterations =  2.0

     negative rho (up, down):  1.126E-05 9.343E-06
 
     Adding external electric field

     Computed dipole along edir(3) : 
        Dipole               -0.3513 Ry au,         -0.8928 Debye
        Dipole field         -0.0002 Ry au, 
 
        Potential amp.        0.0237 Ry
        Total length         55.1515 bohr
 
 
     Adding external electric field

     Computed dipole along edir(3) : 
        Dipole               -0.3513 Ry au,         -0.8928 Debye
        Dipole field         -0.0002 Ry au, 
 
        Potential amp.        0.0237 Ry
        Total length         55.1515 bohr
 

     total cpu time spent up to now is      724.3 secs

     total energy              =   -7738.31786626 Ry
     estimated scf accuracy    <       0.00083410 Ry

     total magnetization       =    88.49 Bohr mag/cell
     absolute magnetization    =    89.91 Bohr mag/cell

     iteration # 55     ecut=    50.00 Ry     beta= 0.10
     Davidson diagonalization with overlap
     ethr =  7.63E-08,  avg # of iterations =  4.5

     negative rho (up, down):  1.418E-05 8.762E-06
 
     Adding external electric field

     Computed dipole along edir(3) : 
        Dipole               -0.3652 Ry au,         -0.9281 Debye
        Dipole field         -0.0002 Ry au, 
 
        Potential amp.        0.0247 Ry
        Total length         55.1515 bohr
 
 
     Adding external electric field

     Computed dipole along edir(3) : 
        Dipole               -0.3652 Ry au,         -0.9281 Debye
        Dipole field         -0.0002 Ry au, 
 
        Potential amp.        0.0247 Ry
        Total length         55.1515 bohr
 

     total cpu time spent up to now is      737.5 secs

     total energy              =   -7738.31790322 Ry
     estimated scf accuracy    <       0.00070510 Ry

     total magnetization       =    88.49 Bohr mag/cell
     absolute magnetization    =    89.91 Bohr mag/cell

     iteration # 56     ecut=    50.00 Ry     beta= 0.10
     Davidson diagonalization with overlap
     ethr =  6.45E-08,  avg # of iterations =  2.0

     negative rho (up, down):  7.904E-06 1.475E-06
 
     Adding external electric field

     Computed dipole along edir(3) : 
        Dipole               -0.3671 Ry au,         -0.9330 Debye
        Dipole field         -0.0002 Ry au, 
 
        Potential amp.        0.0248 Ry
        Total length         55.1515 bohr
 
 
     Adding external electric field

     Computed dipole along edir(3) : 
        Dipole               -0.3671 Ry au,         -0.9330 Debye
        Dipole field         -0.0002 Ry au, 
 
        Potential amp.        0.0248 Ry
        Total length         55.1515 bohr
 

     total cpu time spent up to now is      748.5 secs

     total energy              =   -7738.31791437 Ry
     estimated scf accuracy    <       0.00051179 Ry

     total magnetization       =    88.49 Bohr mag/cell
     absolute magnetization    =    89.90 Bohr mag/cell

     iteration # 57     ecut=    50.00 Ry     beta= 0.10
     Davidson diagonalization with overlap
     ethr =  4.68E-08,  avg # of iterations =  2.0

     negative rho (up, down):  1.636E-05 2.094E-06
 
     Adding external electric field

     Computed dipole along edir(3) : 
        Dipole               -0.3654 Ry au,         -0.9288 Debye
        Dipole field         -0.0002 Ry au, 
 
        Potential amp.        0.0247 Ry
        Total length         55.1515 bohr
 
 
     Adding external electric field

     Computed dipole along edir(3) : 
        Dipole               -0.3654 Ry au,         -0.9288 Debye
        Dipole field         -0.0002 Ry au, 
 
        Potential amp.        0.0247 Ry
        Total length         55.1515 bohr
 

     total cpu time spent up to now is      760.2 secs

     total energy              =   -7738.31795044 Ry
     estimated scf accuracy    <       0.00031822 Ry

     total magnetization       =    88.50 Bohr mag/cell
     absolute magnetization    =    89.90 Bohr mag/cell

     iteration # 58     ecut=    50.00 Ry     beta= 0.10
     Davidson diagonalization with overlap
     ethr =  2.91E-08,  avg # of iterations =  2.0

     negative rho (up, down):  6.067E-05 7.935E-06
 
     Adding external electric field

     Computed dipole along edir(3) : 
        Dipole               -0.3530 Ry au,         -0.8972 Debye
        Dipole field         -0.0002 Ry au, 
 
[...]
    -5.9796  -5.9635  -5.9150  -5.9073  -5.8858  -5.8759  -5.8750  -5.8427
    -5.8217  -5.8002  -5.7485  -5.7369  -5.7216  -5.6875  -5.6773  -5.6435
    -5.6389  -5.6275  -5.5911  -5.5729  -5.5651  -5.5569  -5.5544  -5.5313
    -5.5143  -5.5029  -5.4788  -5.4416  -5.3999  -5.3533  -5.3289  -5.3141
    -5.2924  -5.2624  -5.2331  -5.1627  -5.1485  -5.1441  -5.1294  -5.1012
    -5.0507  -5.0086  -4.9721  -4.9461  -4.8972  -4.8871  -4.8576  -4.8569
    -4.8116  -4.7920  -4.7793  -4.7398  -4.7076  -4.6882  -4.6475  -4.6013
    -4.5506  -4.4736  -4.4442  -4.4238  -4.4172  -4.4012  -4.3611  -4.3501
    -4.3037  -4.2834  -4.2537  -4.2318  -4.2005  -4.1734  -4.1161  -4.1051
    -4.0849  -4.0470  -4.0434  -4.0164  -3.9560  -3.9308  -3.9174  -3.8774
    -3.8698  -3.8245  -3.8101  -3.7973  -3.7850  -3.7444  -3.7227  -3.6996
    -3.6893  -3.6617  -3.6460  -3.5961  -3.5833  -3.5749  -3.5722  -3.5457
    -3.5422  -3.5179  -3.5023  -3.4769  -3.4564  -3.4409  -3.4265  -3.4141
    -3.4127  -3.3688  -3.3581  -3.3523  -3.3402  -3.3038  -3.2772  -3.2565
    -3.2514  -3.2098  -3.1947  -3.1835  -3.1467  -3.1135  -3.1043  -3.0800
    -3.0711  -3.0663  -3.0468  -3.0345  -3.0196  -3.0021  -2.9802  -2.9650
    -2.9290  -2.9167  -2.8935  -2.8857  -2.8661  -2.8489  -2.8074  -2.7941
    -2.7840  -2.7567  -2.7507  -2.7413  -2.7248  -2.7131  -2.7001  -2.6863
    -2.6819  -2.6748  -2.6589  -2.6414  -2.6369  -2.6055  -2.6002  -2.5911
    -2.5724  -2.5675  -2.5398  -2.5249  -2.5124  -2.4826  -2.4695  -2.4549
    -2.4377  -2.4187  -2.4038  -2.3769  -2.3544  -2.3520  -2.3202  -2.2851
    -2.2751  -2.2659  -2.2292  -2.2058  -2.1912  -2.1799  -2.1440  -2.1411
    -2.1124  -2.0881  -2.0665  -2.0619  -2.0556  -2.0382  -2.0284  -2.0195
    -1.9955  -1.9778  -1.9376  -1.9147  -1.9096  -1.9085  -1.8725  -1.8549
    -1.8382  -1.8343  -1.8239  -1.8082  -1.7897  -1.7149  -1.7091  -1.6911
    -1.6696  -1.6559  -1.6343  -1.6261  -1.6169  -1.6132  -1.5903  -1.5708
    -1.5486  -1.5377  -1.5163  -1.4858  -1.4858  -1.4535  -1.4342  -1.4258
    -1.4027  -1.3964  -1.3820  -1.3741  -1.3559  -1.3497  -1.3043  -1.2669
    -1.2318  -1.2187  -1.1731  -1.1467  -1.1345  -1.1294  -1.0923  -1.0566
    -1.0463  -0.9929  -0.9266  -0.8486  -0.7405  -0.7267  -0.6206  -0.5576
    -0.5207  -0.5071  -0.3546  -0.2234   0.1797   0.2199   0.2425   0.2485
     0.3003   0.3122   0.3181   0.3225   0.3313   0.3502   0.3625   0.3684
     0.3764   0.3906   0.3986   0.4039   0.4069   0.4144   0.4201   0.4262
     0.4337   0.4424   0.4625   0.4673   0.4766   0.4846   0.4921   0.4931
     0.4977   0.5038   0.5108   0.5169   0.5269   0.5335   0.5379   0.5442
     0.5464   0.5644   0.5683   0.5754   0.5857   0.5997   0.6039   0.6188
     0.6249   0.6256   0.6444   0.6496   0.6550   0.6626   0.6669   0.6793
     0.6847   0.6925   0.7022   0.7085   0.7144   0.7310   0.7338   0.7443
     0.7494   0.7610   0.7686   0.7705   0.7763   0.7941   0.8026   0.8123
     0.8147   0.8252   0.8391   0.8575   0.8664   0.8687   0.8702   0.8736
     0.8847   0.8892   0.9066   0.9109   0.9199   0.9547   0.9878   0.9959
     1.0194   1.0490   1.0911   1.1141   1.1249   1.6781   1.7372   1.7497
     1.7711   1.7905   1.8019   1.8178   1.8290   1.8447   1.9065   1.9218
     1.9405   1.9705   1.9905   2.0107   2.0446   2.0473   2.0964   2.1078
     2.1340   2.1459   2.1476   2.1829   2.1920   2.1996   2.2070   2.2347
     2.2701   2.2785   2.2968   2.3062   2.3153   2.3249   2.3330   2.3523
     2.3742   2.3802   2.3944   2.3965   2.4182   2.4215   2.4337   2.4981
     2.5056   2.5328   2.5375   2.5423   2.5526   2.5688   2.5909   2.5996
     2.6252   2.6824   2.7078   2.7220   2.7513   2.8039   2.8089   2.8687
     2.8781   2.9556   3.6747   3.7101   3.7236   3.7602   3.7860   3.8004
     3.8660   3.9078   3.9346   3.9618   3.9719   3.9849   4.0035   4.0164
     4.0560   4.0617   4.1468   4.1500   4.1606   4.1823   4.6595   4.6901
     4.7922   4.8295   4.8645   4.9046   4.9225   4.9642   5.0425   5.0982
     5.1189   5.1487   5.4304   6.2448   6.3762   6.6133   6.6615   6.7572
     6.8503   6.8647   6.8914   6.9675   6.9897   7.0693   7.1183   7.1340
     7.2667   7.3507   7.3535   7.4213   7.4824   7.5435   7.5736   7.6299
     7.6613   7.6692   7.7429   7.7695   7.7967   7.8599   7.8946   7.9648
     8.0012   8.0467   8.0539   8.0920   8.1096   8.1602   8.1746   8.2117
     8.2467   8.2870   8.3039   8.3338   8.4041   8.4283   8.4291   8.4539
     8.4639   8.4803   8.4962   8.5388   8.5549   8.5735   8.5987   8.6245
     8.6732   8.7103   8.7263   8.7576   8.7678   8.7804   8.8371   8.8602

     the Fermi energy is     1.6621 ev

!    total energy              =   -7738.31802756 Ry
     estimated scf accuracy    <       0.00000086 Ry
     smearing contrib. (-TS)   =      -0.02308884 Ry
     internal energy E=F+TS    =   -7738.29493872 Ry

     The total energy is F=E-TS. E is the sum of the following terms:
     one-electron contribution =  -94759.86126373 Ry
     hartree contribution      =   47997.12437358 Ry
     xc contribution           =   -2218.69795614 Ry
     ewald contribution        =   41244.94721263 Ry
     Dispersion Correction     =      -1.80736616 Ry
     electric field correction =       0.00006110 Ry

     total magnetization       =    88.48 Bohr mag/cell
     absolute magnetization    =    89.86 Bohr mag/cell

     convergence has been achieved in  70 iterations

     negative rho (up, down):  1.052E-03 5.888E-04

     Forces acting on atoms (cartesian axes, Ry/au):

     atom    1 type  1   force =     0.00047570    0.00023407   -0.00011838
     atom    2 type  2   force =     0.00006199   -0.00022942    0.00012348
     atom    3 type  1   force =    -0.00034941    0.00044417   -0.00038528
     atom    4 type  1   force =     0.00006042    0.00034433   -0.00032241
     atom    5 type  1   force =     0.00007876    0.00012610   -0.00055740
     atom    6 type  1   force =     0.00058723    0.00013106   -0.00038411
     atom    7 type  3   force =    -0.00019021    0.00023075    0.00003487
     atom    8 type  3   force =    -0.00010848   -0.00011540   -0.00008328
     atom    9 type  3   force =     0.00038033   -0.00000224   -0.00010329
     atom   10 type  3   force =     0.00007375    0.00018187    0.00018587
     atom   11 type  4   force =     0.00068156   -0.00017497    0.00027330
     atom   12 type  4   force =    -0.00053201   -0.00023189    0.00007874
     atom   13 type  4   force =    -0.00008868    0.00012570   -0.00039812
     atom   14 type  4   force =    -0.00058863   -0.00025094    0.00009358
     atom   15 type  4   force =     0.00025132   -0.00025427    0.00000337
     atom   16 type  4   force =    -0.00037241   -0.00019376    0.00022464
     atom   17 type  4   force =    -0.00049168   -0.00004444    0.00048801
     atom   18 type  4   force =     0.00005359    0.00005301    0.00045024
     atom   19 type  4   force =     0.00004419    0.00026190    0.00007084
     atom   20 type  4   force =    -0.00032458   -0.00014149   -0.00000048
     atom   21 type  4   force =     0.00032236    0.00012257    0.00003132
     atom   22 type  4   force =     0.00006494    0.00012674   -0.00051602
     atom   23 type  4   force =    -0.00016458   -0.00002581   -0.00000454
     atom   24 type  4   force =     0.00038044    0.00021861    0.00006200
     atom   25 type  4   force =    -0.00016511    0.00039776   -0.00003279
     atom   26 type  4   force =    -0.00042261    0.00005366   -0.00005507
     atom   27 type  1   force =    -0.00653365   -0.00688440   -0.00184741
     atom   28 type  2   force =    -0.01234381    0.00010738   -0.00149940
     atom   29 type  1   force =     0.00352643   -0.00414532   -0.00031405
     atom   30 type  1   force =     0.00241122    0.00387499   -0.00147740
     atom   31 type  1   force =     0.00151306   -0.00507687   -0.00012466
     atom   32 type  1   force =    -0.00099784    0.00155203    0.00205361
     atom   33 type  3   force =    -0.00697096   -0.00095913    0.00009426
     atom   34 type  3   force =    -0.00715937    0.00450769   -0.00249785
     atom   35 type  3   force =     0.00391586   -0.00258035   -0.00365459
     atom   36 type  3   force =     0.00122333   -0.00123995    0.00298273
     atom   37 type  4   force =     0.00864192    0.00540928   -0.00795227
     atom   38 type  4   force =     0.00452653   -0.00230434    0.01988153
     atom   39 type  4   force =    -0.00120008    0.00397487    0.01050184
     atom   40 type  4   force =    -0.00167251   -0.00232829   -0.00893191
     atom   41 type  4   force =     0.00204736    0.00845758    0.00643627
     atom   42 type  4   force =    -0.00570735   -0.00287870   -0.01994935
     atom   43 type  4   force =     0.01040995    0.00688909   -0.00681581
     atom   44 type  4   force =     0.00724792   -0.00305563    0.00603322
     atom   45 type  4   force =     0.00217279    0.00580936   -0.00061736
     atom   46 type  4   force =     0.00349970    0.00205538    0.00460418
     atom   47 type  4   force =    -0.01318475    0.00017304    0.00329287
     atom   48 type  4   force =    -0.01458485    0.00271393   -0.00308911
     atom   49 type  4   force =     0.01243033    0.00250216   -0.00466276
     atom   50 type  4   force =    -0.00382324   -0.00420910    0.00001243
     atom   51 type  4   force =    -0.00443125    0.00267352   -0.00064725
     atom   52 type  4   force =     0.01622830   -0.00325016    0.00408449
     atom   53 type  1   force =    -0.00749631   -0.00721217   -0.00843807
     atom   54 type  2   force =     0.01575552    0.01737641   -0.00992345
     atom   55 type  1   force =     0.00581479   -0.00475259   -0.00599219
     atom   56 type  1   force =    -0.02053499    0.01913779    0.01979716
     atom   57 type  1   force =     0.00447679   -0.00782983   -0.00169085
     atom   58 type  1   force =    -0.00392244   -0.00512062   -0.00102195
     atom   59 type  3   force =    -0.03898978   -0.03830974   -0.05609732
     atom   60 type  3   force =    -0.00478275   -0.00133766   -0.00109637
     atom   61 type  3   force =     0.00272369   -0.00093640   -0.01012204
     atom   62 type  3   force =     0.02910382   -0.04951453   -0.06058143
     atom   63 type  4   force =     0.00631853    0.00351040    0.02097345
     atom   64 type  4   force =     0.00442606    0.00238398    0.01471397
     atom   65 type  4   force =    -0.00069085    0.00289006    0.01276506
     atom   66 type  4   force =     0.00014974    0.00215025    0.01617886
     atom   67 type  4   force =     0.00108697   -0.00058314    0.03930200
     atom   68 type  4   force =    -0.00569406   -0.00393010   -0.01732124
     atom   69 type  4   force =     0.00781909    0.00447082   -0.00258786
     atom   70 type  4   force =     0.00174322   -0.00734005    0.03546186
     atom   71 type  4   force =    -0.00913297    0.03912764    0.00096963
     atom   72 type  4   force =     0.00225731   -0.00052224    0.00794425
     atom   73 type  4   force =    -0.03006407    0.00088061    0.00765437
     atom   74 type  4   force =    -0.01347881    0.00139308   -0.00042119
     atom   75 type  4   force =     0.01194764    0.00354971   -0.00250641
     atom   76 type  4   force =    -0.00238504   -0.00282671    0.00255924
     atom   77 type  4   force =     0.00922506    0.02567867   -0.00253937
     atom   78 type  4   force =     0.03340210   -0.00641253    0.00621945
     atom   79 type  1   force =    -0.00038157    0.00078149   -0.00014784
     atom   80 type  2   force =    -0.00016264   -0.00013170   -0.00053522
     atom   81 type  1   force =     0.00000316    0.00027426   -0.00071293
     atom   82 type  1   force =    -0.00017243   -0.00000254   -0.00029892
     atom   83 type  1   force =    -0.00072862    0.00015623   -0.00036192
     atom   84 type  1   force =    -0.00002695    0.00005943    0.00027612
     atom   85 type  3   force =    -0.00022858    0.00055482    0.00031993
     atom   86 type  3   force =    -0.00001714   -0.00018010   -0.00037390
     atom   87 type  3   force =    -0.00005498    0.00011247   -0.00010600
     atom   88 type  3   force =     0.00010670    0.00045568    0.00013656
     atom   89 type  4   force =    -0.00006110   -0.00047960   -0.00004866
     atom   90 type  4   force =     0.00003643    0.00061257    0.00038806
     atom   91 type  4   force =     0.00027184    0.00006157   -0.00017990
     atom   92 type  4   force =    -0.00059456    0.00000639   -0.00001159
     atom   93 type  4   force =     0.00039799   -0.00024897    0.00029466
     atom   94 type  4   force =     0.00016447    0.00004714    0.00106472
     atom   95 type  4   force =    -0.00022622    0.00008296   -0.00002872
     atom   96 type  4   force =    -0.00008687    0.00005419    0.00013664
     atom   97 type  4   force =    -0.00017243    0.00042537   -0.00017677
     atom   98 type  4   force =     0.00006184   -0.00029087    0.00002277
     atom   99 type  4   force =     0.00002326   -0.00007088   -0.00043952
     atom  100 type  4   force =     0.00029275    0.00055260   -0.00038417
     atom  101 type  4   force =     0.00023947   -0.00010751   -0.00020845
     atom  102 type  4   force =     0.00029281    0.00014795    0.00031451
     atom  103 type  4   force =    -0.00034747    0.00031568   -0.00049799
     atom  104 type  4   force =    -0.00048797    0.00053403    0.00009029
     atom  105 type  1   force =    -0.00641646   -0.00836387   -0.00300004
     atom  106 type  2   force =    -0.01194337    0.00032090   -0.00175981
     atom  107 type  1   force =     0.00319832   -0.00433309   -0.00046584
     atom  108 type  1   force =     0.00232241    0.00386645   -0.00157433
     atom  109 type  1   force =     0.00201726   -0.00510001   -0.00034415
     atom  110 type  1   force =    -0.00123928    0.00138372    0.00196786
     atom  111 type  3   force =    -0.00715773   -0.00083287   -0.00041281
     atom  112 type  3   force =    -0.00604347    0.00388135   -0.00143537
     atom  113 type  3   force =     0.00354179   -0.00104926   -0.00514562
     atom  114 type  3   force =     0.00106836   -0.00120937    0.00295027
     atom  115 type  4   force =     0.00881806    0.00509184   -0.00765706
     atom  116 type  4   force =     0.00358680   -0.00123655    0.02029887
     atom  117 type  4   force =    -0.00121144    0.00372694    0.01090431
     atom  118 type  4   force =    -0.00153056   -0.00239384   -0.00898069
     atom  119 type  4   force =     0.00220997    0.00854298    0.00645880
     atom  120 type  4   force =    -0.00548175   -0.00235814   -0.01754919
     atom  121 type  4   force =     0.01111004    0.00643665   -0.00736676
     atom  122 type  4   force =     0.00709937   -0.00306896    0.00601638
     atom  123 type  4   force =     0.00215399    0.00584012   -0.00060022
     atom  124 type  4   force =     0.00300719    0.00114272    0.00554512
     atom  125 type  4   force =    -0.01316409    0.00022009    0.00334671
     atom  126 type  4   force =    -0.01406898    0.00240413   -0.00303182
     atom  127 type  4   force =     0.01303937    0.00282005   -0.00484041
     atom  128 type  4   force =    -0.00413059   -0.00429535    0.00001551
     atom  129 type  4   force =    -0.00428264    0.00262762   -0.00054335
     atom  130 type  4   force =     0.01636158   -0.00324525    0.00423594
     atom  131 type  1   force =    -0.00756159   -0.00714140   -0.00846263
     atom  132 type  2   force =     0.01572927    0.01735162   -0.00989743
     atom  133 type  1   force =     0.00580500   -0.00476767   -0.00597670
     atom  134 type  1   force =    -0.02053192    0.01913085    0.01979805
     atom  135 type  1   force =     0.00445198   -0.00784772   -0.00170203
     atom  136 type  1   force =    -0.00387049   -0.00510420   -0.00100527
     atom  137 type  3   force =    -0.03902520   -0.03835583   -0.05604862
     atom  138 type  3   force =    -0.00494369   -0.00126688   -0.00115226
     atom  139 type  3   force =     0.00273439   -0.00102262   -0.01012141
     atom  140 type  3   force =     0.02911234   -0.04951557   -0.06057626
     atom  141 type  4   force =     0.00624278    0.00355437    0.02099169
     atom  142 type  4   force =     0.00448776    0.00227307    0.01466536
     atom  143 type  4   force =    -0.00060176    0.00280780    0.01279274
     atom  144 type  4   force =     0.00018766    0.00223134    0.01638288
     atom  145 type  4   force =     0.00124671   -0.00058368    0.03926134
     atom  146 type  4   force =    -0.00539494   -0.00396917   -0.01725058
     atom  147 type  4   force =     0.00781611    0.00453574   -0.00273815
     atom  148 type  4   force =     0.00163550   -0.00738058    0.03550648
     atom  149 type  4   force =    -0.00933894    0.03913497    0.00096956
     atom  150 type  4   force =     0.00206084   -0.00044061    0.00793646
     atom  151 type  4   force =    -0.02993796    0.00088089    0.00765329
     atom  152 type  4   force =    -0.01359607    0.00141563   -0.00042747
     atom  153 type  4   force =     0.01201073    0.00362423   -0.00253073
     atom  154 type  4   force =    -0.00240581   -0.00273154    0.00248773
     atom  155 type  4   force =     0.00912040    0.02573028   -0.00259990
     atom  156 type  4   force =     0.03338964   -0.00622671    0.00604312
     atom  157 type  4   force =    -0.00680767   -0.00604437    0.00274633
     atom  158 type  5   force =     0.00699812    0.00608928   -0.00156454

     Total force =     0.237309     Total SCF correction =     0.003889
 
     init_run     :      7.04s CPU      7.71s WALL (       1 calls)
     electrons    :    862.16s CPU    903.54s WALL (       1 calls)
     forces       :      3.38s CPU      3.69s WALL (       1 calls)
     force_london :      0.08s CPU      0.08s WALL (       1 calls)

     Called by init_run:
     wfcinit      :      4.04s CPU      4.20s WALL (       1 calls)
     potinit      :      0.51s CPU      0.69s WALL (       1 calls)
     hinit0       :      1.39s CPU      1.49s WALL (       1 calls)

     Called by electrons:
     c_bands      :    674.68s CPU    696.95s WALL (      70 calls)
     sum_band     :    116.30s CPU    126.46s WALL (      70 calls)
     v_of_rho     :     17.11s CPU     18.09s WALL (      71 calls)
     newd         :     35.48s CPU     43.41s WALL (      71 calls)
     mix_rho      :     17.93s CPU     18.00s WALL (      70 calls)
     energy_londo :      0.07s CPU      0.07s WALL (       1 calls)

     Called by c_bands:
     init_us_2    :      1.85s CPU      1.89s WALL (     284 calls)
     init_us_2:cp :      1.85s CPU      1.89s WALL (     284 calls)
     regterg      :    660.67s CPU    682.76s WALL (     142 calls)

     Called by *egterg:
     rdiaghg      :    186.54s CPU    197.75s WALL (     554 calls)
     h_psi        :    256.19s CPU    261.17s WALL (     556 calls)
     s_psi        :     44.34s CPU     44.37s WALL (     556 calls)
     g_psi        :      0.32s CPU      0.33s WALL (     412 calls)

     Called by h_psi:
     h_psi:calbec :     67.61s CPU     71.91s WALL (     556 calls)
     vloc_psi     :    141.98s CPU    142.57s WALL (     556 calls)
     add_vuspsi   :     46.02s CPU     46.11s WALL (     556 calls)

     General routines
     calbec       :    100.19s CPU    106.55s WALL (     704 calls)
     fft          :     21.31s CPU     23.05s WALL (    1291 calls)
     ffts         :     11.30s CPU     11.32s WALL (    8699 calls)
     fftw         :    161.88s CPU    162.51s WALL (  239240 calls)
     interpolate  :      1.18s CPU      1.46s WALL (     142 calls)
 
     Parallel routines
 
     PWSCF        :  14m34.67s CPU  15m17.34s WALL

 
   This run was terminated on:   1:25:46  18Nov2025            

=------------------------------------------------------------------------------=
   JOB DONE.
=------------------------------------------------------------------------------=
