
     Program PWSCF v.7.2 starts on 18Nov2025 at  0:42:52 

     This program is part of the open-source Quantum ESPRESSO suite
     for quantum simulation of materials; please cite
         "P. Giannozzi et al., J. Phys.:Condens. Matter 21 395502 (2009);
         "P. Giannozzi et al., J. Phys.:Condens. Matter 29 465901 (2017);
         "P. Giannozzi et al., J. Chem. Phys. 152 154105 (2020);
          URL http://www.quantum-espresso.org", 
     in publications or presentations arising from this work. More details at
     http://www.quantum-espresso.org/quote

     Parallel version (MPI), running on    64 processors

     MPI processes distributed on     4 nodes
     448670 MiB available memory on the printing compute node when the environment starts
 
     Reading input from PWINPUT_atm158_xm

     Current dimensions of program PWSCF are:
     Max number of different atomic species (ntypx) = 10
     Max number of k-points (npk) =  40000
     Max angular momentum in pseudopotentials (lmaxx) =  4
     Presently no symmetry can be used with electric field

     file Ni.pbe-n-rrkjus_psl.1.0.0.UPF: wavefunction(s)  3D renormalized
     file Mn.pbe-spn-rrkjus_psl.0.3.1.UPF: wavefunction(s)  3D renormalized
     file O.pbe-rrkjus.UPF: wavefunction(s)  2S renormalized
     file H.pbe-rrkjus.UPF: wavefunction(s)  1S renormalized

     gamma-point specific algorithms are used
 
     R & G space division:  proc/nbgrp/npool/nimage =      64
     Subspace diagonalization in iterative solution of the eigenvalue problem:
     one sub-group per band group will be used
     custom distributed-memory algorithm (size of sub-group:  7*  7 procs)

 
     Parallelization info
     --------------------
     sticks:   dense  smooth     PW     G-vecs:    dense   smooth      PW
     Min         207      82     20                60552    15302    1896
     Max         210      84     22                60574    15336    1950
     Sum       13325    5345   1333              3876045   980655  122653
 
     Using Slab Decomposition
 


     bravais-lattice index     =            0
     lattice parameter (alat)  =      17.4067  a.u.
     unit-cell volume          =   20529.8182 (a.u.)^3
     number of atoms/cell      =          158
     number of atomic types    =            5
     number of electrons       =      1093.00
     number of Kohn-Sham states=          656
     kinetic-energy cutoff     =      50.0000  Ry
     charge density cutoff     =     500.0000  Ry
     scf convergence threshold =      1.0E-06
     mixing beta               =       0.1000
     number of iterations used =            8  local-TF  mixing
     Exchange-correlation=  SLA  PW   PBE  PBE
                           (   1   4   3   4   0   0   0)

     celldm(1)=  17.406729  celldm(2)=   0.000000  celldm(3)=   0.000000
     celldm(4)=   0.000000  celldm(5)=   0.000000  celldm(6)=   0.000000

     crystal axes: (cart. coord. in units of alat)
               a(1) = (   1.000000   0.000000   0.000000 )  
               a(2) = (  -0.001404   1.105696   0.000000 )  
               a(3) = (   0.000000   0.000000   3.520448 )  

     reciprocal axes: (cart. coord. in units 2 pi/alat)
               b(1) = (  1.000000  0.001270  0.000000 )  
               b(2) = (  0.000000  0.904408  0.000000 )  
               b(3) = (  0.000000  0.000000  0.284055 )  


     PseudoPot. # 1 for Ni read from file:
     ~/PSEUDO/Ni.pbe-n-rrkjus_psl.1.0.0.UPF
     MD5 check sum: Not computed, couldn't open file
     Pseudo is Ultrasoft + core correction, Zval = 10.0
     Generated using "atomic" code by A. Dal Corso  v.5.1.2
     Using radial grid of 1195 points,  6 beta functions with: 
                l(1) =   0
                l(2) =   0
                l(3) =   1
                l(4) =   1
                l(5) =   2
                l(6) =   2
     Q(r) pseudized with 0 coefficients 


     PseudoPot. # 2 for Mn read from file:
     ~/PSEUDO/Mn.pbe-spn-rrkjus_psl.0.3.1.UPF
     MD5 check sum: Not computed, couldn't open file
     Pseudo is Ultrasoft + core correction, Zval = 15.0
     Generated using &quot;atomic&quot; code by A. Dal Corso  v.6.2.2
     Using radial grid of 1187 points,  6 beta functions with: 
                l(1) =   0
                l(2) =   0
                l(3) =   1
                l(4) =   1
                l(5) =   2
                l(6) =   2
     Q(r) pseudized with 0 coefficients 


     PseudoPot. # 3 for P  read from file:
     ~/PSEUDO/P.pbe-n-rrkjus_psl.1.0.0.UPF
     MD5 check sum: Not computed, couldn't open file
     Pseudo is Ultrasoft + core correction, Zval =  5.0
     Generated using "atomic" code by A. Dal Corso  v.5.1
     Using radial grid of 1147 points,  6 beta functions with: 
                l(1) =   0
                l(2) =   0
                l(3) =   1
                l(4) =   1
                l(5) =   2
                l(6) =   2
     Q(r) pseudized with 0 coefficients 


     PseudoPot. # 4 for O  read from file:
     ~/PSEUDO/O.pbe-rrkjus.UPF
     MD5 check sum: Not computed, couldn't open file
     Pseudo is Ultrasoft, Zval =  6.0
     Generated by new atomic code, or converted to UPF format
     Using radial grid of 1269 points,  4 beta functions with: 
                l(1) =   0
                l(2) =   0
                l(3) =   1
                l(4) =   1
     Q(r) pseudized with 0 coefficients 


     PseudoPot. # 5 for H  read from file:
     ~/PSEUDO/H.pbe-rrkjus.UPF
     MD5 check sum: Not computed, couldn't open file
     Pseudo is Ultrasoft, Zval =  1.0
     Generated by new atomic code, or converted to UPF format
     Using radial grid of 1061 points,  2 beta functions with: 
                l(1) =   0
                l(2) =   0
     Q(r) pseudized with 0 coefficients 


     atomic species   valence    mass     pseudopotential
     Ni               10.00    58.69300     Ni( 1.00)
     Mn               15.00    54.93800     Mn( 1.00)
     P                 5.00    30.97300     P ( 1.00)
     O                 6.00    15.99900     O ( 1.00)
     H                 1.00     1.00790     H ( 1.00)

     Starting magnetic structure 
     atomic species   magnetization
     Ni              1.000
     Mn              1.000
     P               1.000
     O               1.000
     H               0.000

     No symmetry found



   Cartesian axes

     site n.     atom                  positions (alat units)
         1        Ni     tau(   1) = (   0.2407247   0.8678666   1.7788468  )
         2        Mn     tau(   2) = (   0.4849050   0.7928704   1.4298720  )
         3        Ni     tau(   3) = (  -0.0015463   0.3040756   1.7427651  )
         4        Ni     tau(   4) = (   0.2576988   0.2438884   1.4304882  )
         5        Ni     tau(   5) = (   0.4960089   1.1079636   1.5969794  )
         6        Ni     tau(   6) = (   0.2509439   0.5529914   1.6014984  )
         7        P      tau(   7) = (   0.2089048   1.0013970   1.4343524  )
         8        P      tau(   8) = (   0.4624796   0.6667191   1.7615344  )
         9        P      tau(   9) = (   0.2870509   0.1160398   1.7607833  )
        10        P      tau(  10) = (   0.0409376   0.4429602   1.4308127  )
        11        O      tau(  11) = (   0.1352892   0.9270454   1.5724618  )
        12        O      tau(  12) = (   0.3840209   0.7294626   1.6169117  )
        13        O      tau(  13) = (   0.3651818   0.1791486   1.6110775  )
        14        O      tau(  14) = (   0.1191348   0.3726454   1.5703673  )
        15        O      tau(  15) = (   0.1507888   0.9120623   1.3039965  )
        16        O      tau(  16) = (   0.4052423   0.7648049   1.8817709  )
        17        O      tau(  17) = (   0.3458822   0.2189915   1.8759922  )
        18        O      tau(  18) = (   0.1009621   0.3550841   1.3013183  )
        19        O      tau(  19) = (   0.0995916   0.6017289   1.4364553  )
        20        O      tau(  20) = (   0.3468601   1.0635796   1.7571918  )
        21        O      tau(  21) = (   0.3739296   0.4396566   1.4433176  )
        22        O      tau(  22) = (   0.1199364   0.1204540   1.7432983  )
        23        O      tau(  23) = (   0.1279675   0.6643683   1.7537820  )
        24        O      tau(  24) = (   0.4072413   0.5052188   1.7593813  )
        25        O      tau(  25) = (   0.1493697   0.0531357   1.4376636  )
        26        O      tau(  26) = (   0.3761102   0.9942916   1.4433476  )
        27        Ni     tau(  27) = (   0.2413539   0.8509941   1.1121345  )
        28        Mn     tau(  28) = (   0.4917018   0.7787406   0.7768134  )
        29        Ni     tau(  29) = (   0.0044877   0.2932623   1.1138982  )
        30        Ni     tau(  30) = (   0.2563139   0.2275682   0.7805625  )
        31        Ni     tau(  31) = (   0.4969120   1.0949007   0.9459116  )
        32        Ni     tau(  32) = (   0.2488318   0.5341111   0.9469721  )
        33        P      tau(  33) = (   0.2076029   0.9882917   0.7835381  )
        34        P      tau(  34) = (   0.4577012   0.6460068   1.1076436  )
        35        P      tau(  35) = (   0.2881931   0.0932770   1.1104179  )
        36        P      tau(  36) = (   0.0392916   0.4238898   0.7837243  )
        37        O      tau(  37) = (   0.1306755   0.9148866   0.9233554  )
        38        O      tau(  38) = (   0.3789780   0.7172835   0.9680652  )
        39        O      tau(  39) = (   0.3654852   0.1662865   0.9702638  )
        40        O      tau(  40) = (   0.1163776   0.3546954   0.9254186  )
        41        O      tau(  41) = (   0.1502901   0.8969129   0.6541592  )
        42        O      tau(  42) = (   0.3974525   0.7354243   1.2370031  )
        43        O      tau(  43) = (   0.3483097   0.1789497   1.2412670  )
        44        O      tau(  44) = (   0.0974932   0.3376387   0.6529083  )
        45        O      tau(  45) = (   0.0984699   0.5818903   0.7881021  )
        46        O      tau(  46) = (   0.3459978   1.0405493   1.1018526  )
        47        O      tau(  47) = (   0.3731719   0.4204123   0.7945555  )
        48        O      tau(  48) = (   0.1223503   0.0989699   1.1000566  )
        49        O      tau(  49) = (   0.1235438   0.6536772   1.0980598  )
        50        O      tau(  50) = (   0.4004339   0.4872435   1.1047245  )
        51        O      tau(  51) = (   0.1476543   0.0398268   0.7872561  )
        52        O      tau(  52) = (   0.3728637   0.9843360   0.7931368  )
        53        Ni     tau(  53) = (   0.2406075   0.8410745   0.4603118  )
        54        Mn     tau(  54) = (   0.4909555   0.7688210   0.1249907  )
        55        Ni     tau(  55) = (   0.0037414   0.2833427   0.4620755  )
        56        Ni     tau(  56) = (   0.2555676   0.2176485   0.1287398  )
        57        Ni     tau(  57) = (   0.4961657   1.0849810   0.2940889  )
        58        Ni     tau(  58) = (   0.2480854   0.5241915   0.2951494  )
        59        P      tau(  59) = (   0.2068565   0.9783721   0.1317154  )
        60        P      tau(  60) = (   0.4569549   0.6360871   0.4558210  )
        61        P      tau(  61) = (   0.2874467   0.0833574   0.4585952  )
        62        P      tau(  62) = (   0.0385452   0.4139702   0.1319017  )
        63        O      tau(  63) = (   0.1299291   0.9049669   0.2715327  )
        64        O      tau(  64) = (   0.3782317   0.7073639   0.3162425  )
        65        O      tau(  65) = (   0.3647389   0.1563669   0.3184411  )
        66        O      tau(  66) = (   0.1156313   0.3447757   0.2735959  )
        67        O      tau(  67) = (   0.1495437   0.8869933   0.0023366  )
        68        O      tau(  68) = (   0.3967062   0.7255047   0.5851804  )
        69        O      tau(  69) = (   0.3475634   0.1690300   0.5894443  )
        70        O      tau(  70) = (   0.0967469   0.3277190   0.0010856  )
        71        O      tau(  71) = (   0.0977236   0.5719706   0.1362794  )
        72        O      tau(  72) = (   0.3452514   1.0306297   0.4500300  )
        73        O      tau(  73) = (   0.3724256   0.4104926   0.1427328  )
        74        O      tau(  74) = (   0.1216040   0.0890503   0.4482339  )
        75        O      tau(  75) = (   0.1227974   0.6437575   0.4462371  )
        76        O      tau(  76) = (   0.3996875   0.4773239   0.4529018  )
        77        O      tau(  77) = (   0.1469079   0.0299071   0.1354334  )
        78        O      tau(  78) = (   0.3721173   0.9744163   0.1413141  )
        79        Ni     tau(  79) = (   0.7503448   0.8592094   1.7463632  )
        80        Mn     tau(  80) = (   0.9872971   0.7933476   1.4295363  )
        81        Ni     tau(  81) = (   0.4979646   0.3082874   1.7425819  )
        82        Ni     tau(  82) = (   0.7578558   0.2432444   1.4303909  )
        83        Ni     tau(  83) = (   0.9978877   1.1049697   1.6005729  )
        84        Ni     tau(  84) = (   0.7517688   0.5502669   1.5982123  )
        85        P      tau(  85) = (   0.7086164   1.0024684   1.4323347  )
        86        P      tau(  86) = (   0.9608587   0.6587254   1.7669171  )
        87        P      tau(  87) = (   0.7853186   0.1123438   1.7615591  )
        88        P      tau(  88) = (   0.5402593   0.4436461   1.4299959  )
        89        O      tau(  89) = (   0.6336250   0.9299726   1.5717212  )
        90        O      tau(  90) = (   0.8855214   0.7268460   1.6205628  )
        91        O      tau(  91) = (   0.8638479   0.1737568   1.6123671  )
        92        O      tau(  92) = (   0.6187851   0.3726638   1.5694972  )
        93        O      tau(  93) = (   0.6499804   0.9114421   1.3038010  )
        94        O      tau(  94) = (   0.8956097   0.7537924   1.8860885  )
        95        O      tau(  95) = (   0.8474504   0.2119799   1.8776314  )
        96        O      tau(  96) = (   0.6006963   0.3549684   1.3012062  )
        97        O      tau(  97) = (   0.6002576   0.6021520   1.4346509  )
        98        O      tau(  98) = (   0.8385044   1.0568597   1.7610063  )
        99        O      tau(  99) = (   0.8744145   0.4373900   1.4436920  )
       100        O      tau( 100) = (   0.6180356   0.1193672   1.7459243  )
       101        O      tau( 101) = (   0.6301005   0.6707638   1.7450210  )
       102        O      tau( 102) = (   0.9037180   0.4985801   1.7585357  )
       103        O      tau( 103) = (   0.6488284   0.0538192   1.4351739  )
       104        O      tau( 104) = (   0.8752493   0.9934614   1.4449032  )
       105        Ni     tau( 105) = (   0.7413539   0.8509941   1.1121345  )
       106        Mn     tau( 106) = (   0.9917018   0.7787406   0.7768134  )
       107        Ni     tau( 107) = (   0.5044877   0.2932623   1.1138982  )
       108        Ni     tau( 108) = (   0.7563139   0.2275682   0.7805625  )
       109        Ni     tau( 109) = (   0.9969120   1.0949007   0.9459116  )
       110        Ni     tau( 110) = (   0.7488318   0.5341111   0.9469721  )
       111        P      tau( 111) = (   0.7076029   0.9882917   0.7835381  )
       112        P      tau( 112) = (   0.9577012   0.6460068   1.1076436  )
       113        P      tau( 113) = (   0.7881931   0.0932770   1.1104179  )
       114        P      tau( 114) = (   0.5392916   0.4238898   0.7837243  )
       115        O      tau( 115) = (   0.6306755   0.9148866   0.9233554  )
       116        O      tau( 116) = (   0.8789780   0.7172835   0.9680652  )
       117        O      tau( 117) = (   0.8654852   0.1662865   0.9702638  )
       118        O      tau( 118) = (   0.6163776   0.3546954   0.9254186  )
       119        O      tau( 119) = (   0.6502901   0.8969129   0.6541592  )
       120        O      tau( 120) = (   0.8974525   0.7354243   1.2370031  )
       121        O      tau( 121) = (   0.8483097   0.1789497   1.2412670  )
       122        O      tau( 122) = (   0.5974932   0.3376387   0.6529083  )
       123        O      tau( 123) = (   0.5984699   0.5818903   0.7881021  )
       124        O      tau( 124) = (   0.8459978   1.0405493   1.1018526  )
       125        O      tau( 125) = (   0.8731719   0.4204123   0.7945555  )
       126        O      tau( 126) = (   0.6223503   0.0989699   1.1000566  )
       127        O      tau( 127) = (   0.6235438   0.6536772   1.0980598  )
       128        O      tau( 128) = (   0.9004339   0.4872435   1.1047245  )
       129        O      tau( 129) = (   0.6476543   0.0398268   0.7872561  )
       130        O      tau( 130) = (   0.8728637   0.9843360   0.7931368  )
       131        Ni     tau( 131) = (   0.7406075   0.8410745   0.4603118  )
       132        Mn     tau( 132) = (   0.9909555   0.7688210   0.1249907  )
       133        Ni     tau( 133) = (   0.5037414   0.2833427   0.4620755  )
       134        Ni     tau( 134) = (   0.7555676   0.2176485   0.1287398  )
       135        Ni     tau( 135) = (   0.9961657   1.0849810   0.2940889  )
       136        Ni     tau( 136) = (   0.7480854   0.5241915   0.2951494  )
       137        P      tau( 137) = (   0.7068565   0.9783721   0.1317154  )
       138        P      tau( 138) = (   0.9569549   0.6360871   0.4558210  )
       139        P      tau( 139) = (   0.7874467   0.0833574   0.4585952  )
       140        P      tau( 140) = (   0.5385452   0.4139702   0.1319017  )
       141        O      tau( 141) = (   0.6299291   0.9049669   0.2715327  )
       142        O      tau( 142) = (   0.8782317   0.7073639   0.3162425  )
       143        O      tau( 143) = (   0.8647389   0.1563669   0.3184411  )
       144        O      tau( 144) = (   0.6156313   0.3447757   0.2735959  )
       145        O      tau( 145) = (   0.6495437   0.8869933   0.0023366  )
       146        O      tau( 146) = (   0.8967062   0.7255047   0.5851804  )
       147        O      tau( 147) = (   0.8475634   0.1690300   0.5894443  )
       148        O      tau( 148) = (   0.5967469   0.3277190   0.0010856  )
       149        O      tau( 149) = (   0.5977236   0.5719706   0.1362794  )
       150        O      tau( 150) = (   0.8452514   1.0306297   0.4500300  )
       151        O      tau( 151) = (   0.8724256   0.4104926   0.1427328  )
       152        O      tau( 152) = (   0.6216040   0.0890503   0.4482339  )
       153        O      tau( 153) = (   0.6227974   0.6437575   0.4462371  )
       154        O      tau( 154) = (   0.8996875   0.4773239   0.4529018  )
       155        O      tau( 155) = (   0.6469079   0.0299071   0.1354334  )
       156        O      tau( 156) = (   0.8721173   0.9744163   0.1413141  )
       157        O      tau( 157) = (   1.1200851   0.9534950   1.9086669  )
       158        H      tau( 158) = (   1.0363245   0.8901699   1.9356829  )

     -------------------------------------------------
     Parameters for Dispersion (Grimme-D2) Correction:
     -------------------------------------------------
       atom      VdW radius       C_6     

        Ni         2.952        374.666
        Mn         2.952        374.666
        P          3.222        271.980
        O          2.536         24.284
        H          1.892          4.857

     number of k points=     1  Gaussian smearing, width (Ry)=  0.0100
                       cart. coord. in units 2pi/alat
        k(    1) = (   0.0000000   0.0000000   0.0000000), wk =   1.0000000

     Dense  grid:  1938023 G-vectors     FFT dimensions: ( 125, 144, 450)

     Smooth grid:   490328 G-vectors     FFT dimensions: (  80,  90, 288)

     Estimated max dynamical RAM per process >     326.29 MB

     Estimated total dynamical RAM >      20.39 GB

     Check: negative core charge=   -0.000001
     Generating pointlists ...
     new r_m :   0.0812 (alat units)  1.4132 (a.u.) for type    1
     new r_m :   0.0905 (alat units)  1.5755 (a.u.) for type    2
     new r_m :   0.0681 (alat units)  1.1855 (a.u.) for type    3
     new r_m :   0.0447 (alat units)  0.7785 (a.u.) for type    4
     new r_m :   0.0447 (alat units)  0.7785 (a.u.) for type    5

     Initial potential from superposition of free atoms

     starting charge    1092.8893, renormalised to    1093.0000

     negative rho (up, down):  1.397E-03 4.560E-04
 
     Adding external electric field

     Computed dipole along edir(3) : 
        Dipole                1.6517 Ry au,          4.1983 Debye
        Dipole field          0.0010 Ry au, 
 
        Potential amp.       -0.1115 Ry
        Total length         55.1515 bohr
 
 
     Adding external electric field

     Computed dipole along edir(3) : 
        Dipole                1.6517 Ry au,          4.1983 Debye
        Dipole field          0.0010 Ry au, 
 
        Potential amp.       -0.1115 Ry
        Total length         55.1515 bohr
 
     Starting wfcs are  815 randomized atomic wfcs

     total cpu time spent up to now is       10.8 secs

     Self-consistent Calculation

     iteration #  1     ecut=    50.00 Ry     beta= 0.10
     Davidson diagonalization with overlap
     ethr =  1.00E-02,  avg # of iterations =  6.0

     negative rho (up, down):  3.833E-01 3.290E-06
 
     Adding external electric field

     Computed dipole along edir(3) : 
        Dipole               -3.7086 Ry au,         -9.4263 Debye
        Dipole field         -0.0023 Ry au, 
 
        Potential amp.        0.2504 Ry
        Total length         55.1515 bohr
 
 
     Adding external electric field

     Computed dipole along edir(3) : 
        Dipole               -3.7086 Ry au,         -9.4263 Debye
        Dipole field         -0.0023 Ry au, 
 
        Potential amp.        0.2504 Ry
        Total length         55.1515 bohr
 

     total cpu time spent up to now is       39.0 secs

     total energy              =   -7518.05319378 Ry
     estimated scf accuracy    <     797.81297003 Ry

     total magnetization       =   219.00 Bohr mag/cell
     absolute magnetization    =   307.74 Bohr mag/cell

     iteration #  2     ecut=    50.00 Ry     beta= 0.10
     Davidson diagonalization with overlap
     ethr =  1.00E-02,  avg # of iterations =  2.0

     negative rho (up, down):  3.624E-01 2.098E-06
 
     Adding external electric field

     Computed dipole along edir(3) : 
        Dipole               -2.4860 Ry au,         -6.3188 Debye
        Dipole field         -0.0015 Ry au, 
 
        Potential amp.        0.1678 Ry
        Total length         55.1515 bohr
 
 
     Adding external electric field

     Computed dipole along edir(3) : 
        Dipole               -2.4860 Ry au,         -6.3188 Debye
        Dipole field         -0.0015 Ry au, 
 
        Potential amp.        0.1678 Ry
        Total length         55.1515 bohr
 

     total cpu time spent up to now is       56.5 secs

     total energy              =   -7600.62319025 Ry
     estimated scf accuracy    <     216.26329452 Ry

     total magnetization       =   158.39 Bohr mag/cell
     absolute magnetization    =   207.12 Bohr mag/cell

     iteration #  3     ecut=    50.00 Ry     beta= 0.10
     Davidson diagonalization with overlap
     ethr =  1.00E-02,  avg # of iterations =  1.5

     negative rho (up, down):  3.228E-01 2.276E-06
 
     Adding external electric field

     Computed dipole along edir(3) : 
        Dipole               -2.1281 Ry au,         -5.4090 Debye
        Dipole field         -0.0013 Ry au, 
 
        Potential amp.        0.1437 Ry
        Total length         55.1515 bohr
 
 
     Adding external electric field

     Computed dipole along edir(3) : 
        Dipole               -2.1281 Ry au,         -5.4090 Debye
        Dipole field         -0.0013 Ry au, 
 
        Potential amp.        0.1437 Ry
        Total length         55.1515 bohr
 

     total cpu time spent up to now is       69.9 secs

     total energy              =   -7630.62583705 Ry
     estimated scf accuracy    <     103.65245942 Ry

     total magnetization       =   134.86 Bohr mag/cell
     absolute magnetization    =   185.79 Bohr mag/cell

     iteration #  4     ecut=    50.00 Ry     beta= 0.10
     Davidson diagonalization with overlap
     ethr =  9.48E-03,  avg # of iterations =  1.5

     negative rho (up, down):  2.546E-01 1.096E-06
 
     Adding external electric field

     Computed dipole along edir(3) : 
        Dipole               -1.9903 Ry au,         -5.0588 Debye
        Dipole field         -0.0012 Ry au, 
 
        Potential amp.        0.1344 Ry
        Total length         55.1515 bohr
 
 
     Adding external electric field

     Computed dipole along edir(3) : 
        Dipole               -1.9903 Ry au,         -5.0588 Debye
        Dipole field         -0.0012 Ry au, 
 
        Potential amp.        0.1344 Ry
        Total length         55.1515 bohr
 

     total cpu time spent up to now is       83.1 secs

     total energy              =   -7662.59245190 Ry
     estimated scf accuracy    <      82.16715050 Ry

     total magnetization       =   119.17 Bohr mag/cell
     absolute magnetization    =   171.45 Bohr mag/cell

     iteration #  5     ecut=    50.00 Ry     beta= 0.10
     Davidson diagonalization with overlap
     ethr =  7.52E-03,  avg # of iterations =  1.0

     negative rho (up, down):  4.043E-02 3.709E-07
 
     Adding external electric field

     Computed dipole along edir(3) : 
        Dipole               -1.5922 Ry au,         -4.0469 Debye
        Dipole field         -0.0010 Ry au, 
 
        Potential amp.        0.1075 Ry
        Total length         55.1515 bohr
 
 
     Adding external electric field

     Computed dipole along edir(3) : 
        Dipole               -1.5922 Ry au,         -4.0469 Debye
        Dipole field         -0.0010 Ry au, 
 
        Potential amp.        0.1075 Ry
        Total length         55.1515 bohr
 

     total cpu time spent up to now is       95.2 secs

     total energy              =   -7721.25700508 Ry
     estimated scf accuracy    <      66.16535756 Ry

     total magnetization       =    97.46 Bohr mag/cell
     absolute magnetization    =   153.06 Bohr mag/cell

     iteration #  6     ecut=    50.00 Ry     beta= 0.10
     Davidson diagonalization with overlap
     ethr =  6.05E-03,  avg # of iterations =  1.0

     negative rho (up, down):  8.164E-04 1.232E-03
 
     Adding external electric field

     Computed dipole along edir(3) : 
        Dipole               -1.2071 Ry au,         -3.0681 Debye
        Dipole field         -0.0007 Ry au, 
 
        Potential amp.        0.0815 Ry
        Total length         55.1515 bohr
 
 
     Adding external electric field

     Computed dipole along edir(3) : 
        Dipole               -1.2071 Ry au,         -3.0681 Debye
        Dipole field         -0.0007 Ry au, 
 
        Potential amp.        0.0815 Ry
        Total length         55.1515 bohr
 

     total cpu time spent up to now is      107.3 secs

     total energy              =   -7735.76956270 Ry
     estimated scf accuracy    <      15.97105263 Ry

     total magnetization       =    91.00 Bohr mag/cell
     absolute magnetization    =   126.26 Bohr mag/cell

     iteration #  7     ecut=    50.00 Ry     beta= 0.10
     Davidson diagonalization with overlap
     ethr =  1.46E-03,  avg # of iterations =  6.0

     negative rho (up, down):  7.888E-04 1.212E-03
 
     Adding external electric field

     Computed dipole along edir(3) : 
        Dipole               -1.2137 Ry au,         -3.0849 Debye
        Dipole field         -0.0007 Ry au, 
 
        Potential amp.        0.0819 Ry
        Total length         55.1515 bohr
 
 
     Adding external electric field

     Computed dipole along edir(3) : 
        Dipole               -1.2137 Ry au,         -3.0849 Debye
        Dipole field         -0.0007 Ry au, 
 
        Potential amp.        0.0819 Ry
        Total length         55.1515 bohr
 

     total cpu time spent up to now is      128.1 secs

     total energy              =   -7738.20945392 Ry
     estimated scf accuracy    <      19.45122866 Ry

     total magnetization       =    70.82 Bohr mag/cell
     absolute magnetization    =    88.37 Bohr mag/cell

     iteration #  8     ecut=    50.00 Ry     beta= 0.10
     Davidson diagonalization with overlap
     ethr =  1.46E-03,  avg # of iterations =  1.0

     negative rho (up, down):  7.774E-04 1.184E-03
 
     Adding external electric field

     Computed dipole along edir(3) : 
        Dipole               -1.2204 Ry au,         -3.1021 Debye
        Dipole field         -0.0007 Ry au, 
 
        Potential amp.        0.0824 Ry
        Total length         55.1515 bohr
 
 
     Adding external electric field

     Computed dipole along edir(3) : 
        Dipole               -1.2204 Ry au,         -3.1021 Debye
        Dipole field         -0.0007 Ry au, 
 
        Potential amp.        0.0824 Ry
        Total length         55.1515 bohr
 

     total cpu time spent up to now is      140.3 secs

     total energy              =   -7738.24492889 Ry
     estimated scf accuracy    <      18.94002003 Ry

     total magnetization       =    70.93 Bohr mag/cell
     absolute magnetization    =    87.97 Bohr mag/cell

     iteration #  9     ecut=    50.00 Ry     beta= 0.10
     Davidson diagonalization with overlap
     ethr =  1.46E-03,  avg # of iterations =  1.0

     negative rho (up, down):  7.593E-04 1.176E-03
 
     Adding external electric field

     Computed dipole along edir(3) : 
        Dipole               -1.3005 Ry au,         -3.3055 Debye
        Dipole field         -0.0008 Ry au, 
 
        Potential amp.        0.0878 Ry
        Total length         55.1515 bohr
 
 
     Adding external electric field

     Computed dipole along edir(3) : 
        Dipole               -1.3005 Ry au,         -3.3055 Debye
        Dipole field         -0.0008 Ry au, 
 
        Potential amp.        0.0878 Ry
        Total length         55.1515 bohr
 

     total cpu time spent up to now is      151.8 secs

     total energy              =   -7737.92457348 Ry
     estimated scf accuracy    <      18.53972908 Ry

     total magnetization       =    70.98 Bohr mag/cell
     absolute magnetization    =    87.65 Bohr mag/cell

     iteration # 10     ecut=    50.00 Ry     beta= 0.10
     Davidson diagonalization with overlap
     ethr =  1.46E-03,  avg # of iterations =  1.0

     negative rho (up, down):  9.415E-04 1.694E-03
 
     Adding external electric field

     Computed dipole along edir(3) : 
        Dipole               -1.3914 Ry au,         -3.5366 Debye
        Dipole field         -0.0009 Ry au, 
 
        Potential amp.        0.0939 Ry
        Total length         55.1515 bohr
 
 
     Adding external electric field

     Computed dipole along edir(3) : 
        Dipole               -1.3914 Ry au,         -3.5366 Debye
        Dipole field         -0.0009 Ry au, 
 
        Potential amp.        0.0939 Ry
        Total length         55.1515 bohr
 

     total cpu time spent up to now is      163.2 secs

     total energy              =   -7737.79384919 Ry
     estimated scf accuracy    <      12.35340793 Ry

     total magnetization       =    73.67 Bohr mag/cell
     absolute magnetization    =    88.48 Bohr mag/cell

     iteration # 11     ecut=    50.00 Ry     beta= 0.10
     Davidson diagonalization with overlap
     ethr =  1.13E-03,  avg # of iterations =  1.5

     negative rho (up, down):  9.212E-04 2.268E-03
 
     Adding external electric field

     Computed dipole along edir(3) : 
        Dipole               -1.3962 Ry au,         -3.5488 Debye
        Dipole field         -0.0009 Ry au, 
 
        Potential amp.        0.0943 Ry
        Total length         55.1515 bohr
 
 
     Adding external electric field

     Computed dipole along edir(3) : 
        Dipole               -1.3962 Ry au,         -3.5488 Debye
        Dipole field         -0.0009 Ry au, 
 
        Potential amp.        0.0943 Ry
        Total length         55.1515 bohr
 

     total cpu time spent up to now is      176.0 secs

     total energy              =   -7737.85263831 Ry
     estimated scf accuracy    <       3.78873974 Ry

     total magnetization       =    81.27 Bohr mag/cell
     absolute magnetization    =    93.61 Bohr mag/cell

     iteration # 12     ecut=    50.00 Ry     beta= 0.10
     Davidson diagonalization with overlap
     ethr =  3.47E-04,  avg # of iterations =  1.5

     negative rho (up, down):  5.239E-04 1.963E-03
 
     Adding external electric field

     Computed dipole along edir(3) : 
        Dipole               -1.3388 Ry au,         -3.4028 Debye
        Dipole field         -0.0008 Ry au, 
 
        Potential amp.        0.0904 Ry
        Total length         55.1515 bohr
 
 
     Adding external electric field

     Computed dipole along edir(3) : 
        Dipole               -1.3388 Ry au,         -3.4028 Debye
        Dipole field         -0.0008 Ry au, 
 
        Potential amp.        0.0904 Ry
        Total length         55.1515 bohr
 

     total cpu time spent up to now is      188.7 secs

     total energy              =   -7737.92985510 Ry
     estimated scf accuracy    <       0.82110765 Ry

     total magnetization       =    86.66 Bohr mag/cell
     absolute magnetization    =    96.78 Bohr mag/cell

     iteration # 13     ecut=    50.00 Ry     beta= 0.10
     Davidson diagonalization with overlap
     ethr =  7.51E-05,  avg # of iterations = 10.0

     negative rho (up, down):  2.341E-04 1.316E-03
 
     Adding external electric field

     Computed dipole along edir(3) : 
        Dipole               -1.2989 Ry au,         -3.3014 Debye
        Dipole field         -0.0008 Ry au, 
 
        Potential amp.        0.0877 Ry
        Total length         55.1515 bohr
 
 
     Adding external electric field

     Computed dipole along edir(3) : 
        Dipole               -1.2989 Ry au,         -3.3014 Debye
        Dipole field         -0.0008 Ry au, 
 
        Potential amp.        0.0877 Ry
        Total length         55.1515 bohr
 

     total cpu time spent up to now is      208.8 secs

     total energy              =   -7738.02451179 Ry
     estimated scf accuracy    <       1.78044036 Ry

     total magnetization       =    83.36 Bohr mag/cell
     absolute magnetization    =    93.01 Bohr mag/cell

     iteration # 14     ecut=    50.00 Ry     beta= 0.10
     Davidson diagonalization with overlap
     ethr =  7.51E-05,  avg # of iterations =  1.5

     negative rho (up, down):  9.942E-05 9.006E-04
 
     Adding external electric field

     Computed dipole along edir(3) : 
        Dipole               -1.2571 Ry au,         -3.1951 Debye
        Dipole field         -0.0008 Ry au, 
 
        Potential amp.        0.0849 Ry
        Total length         55.1515 bohr
 
 
     Adding external electric field

     Computed dipole along edir(3) : 
        Dipole               -1.2571 Ry au,         -3.1951 Debye
        Dipole field         -0.0008 Ry au, 
 
        Potential amp.        0.0849 Ry
        Total length         55.1515 bohr
 

     total cpu time spent up to now is      220.5 secs

     total energy              =   -7738.09076516 Ry
     estimated scf accuracy    <       0.75293584 Ry

     total magnetization       =    87.60 Bohr mag/cell
     absolute magnetization    =    94.99 Bohr mag/cell

     iteration # 15     ecut=    50.00 Ry     beta= 0.10
     Davidson diagonalization with overlap
     ethr =  6.89E-05,  avg # of iterations =  1.5

     negative rho (up, down):  1.774E-05 1.607E-04
 
     Adding external electric field

     Computed dipole along edir(3) : 
        Dipole               -1.1987 Ry au,         -3.0467 Debye
        Dipole field         -0.0007 Ry au, 
 
        Potential amp.        0.0809 Ry
        Total length         55.1515 bohr
 
 
     Adding external electric field

     Computed dipole along edir(3) : 
        Dipole               -1.1987 Ry au,         -3.0467 Debye
        Dipole field         -0.0007 Ry au, 
 
        Potential amp.        0.0809 Ry
        Total length         55.1515 bohr
 

     total cpu time spent up to now is      232.3 secs

     total energy              =   -7738.23059507 Ry
     estimated scf accuracy    <       1.41708888 Ry

     total magnetization       =    84.78 Bohr mag/cell
     absolute magnetization    =    91.77 Bohr mag/cell

     iteration # 16     ecut=    50.00 Ry     beta= 0.10
     Davidson diagonalization with overlap
     ethr =  6.89E-05,  avg # of iterations =  1.5

     negative rho (up, down):  3.553E-05 1.353E-04
 
     Adding external electric field

     Computed dipole along edir(3) : 
        Dipole               -1.1245 Ry au,         -2.8582 Debye
        Dipole field         -0.0007 Ry au, 
 
        Potential amp.        0.0759 Ry
        Total length         55.1515 bohr
 
 
     Adding external electric field

     Computed dipole along edir(3) : 
        Dipole               -1.1245 Ry au,         -2.8582 Debye
        Dipole field         -0.0007 Ry au, 
 
        Potential amp.        0.0759 Ry
        Total length         55.1515 bohr
 

     total cpu time spent up to now is      244.3 secs

     total energy              =   -7738.28077517 Ry
     estimated scf accuracy    <       1.06212432 Ry

     total magnetization       =    84.55 Bohr mag/cell
     absolute magnetization    =    89.73 Bohr mag/cell

     iteration # 17     ecut=    50.00 Ry     beta= 0.10
     Davidson diagonalization with overlap
     ethr =  6.89E-05,  avg # of iterations =  1.5

     negative rho (up, down):  2.992E-04 3.849E-04
 
     Adding external electric field

     Computed dipole along edir(3) : 
        Dipole               -1.0896 Ry au,         -2.7694 Debye
        Dipole field         -0.0007 Ry au, 
 
        Potential amp.        0.0736 Ry
        Total length         55.1515 bohr
 
 
     Adding external electric field

     Computed dipole along edir(3) : 
        Dipole               -1.0896 Ry au,         -2.7694 Debye
        Dipole field         -0.0007 Ry au, 
 
        Potential amp.        0.0736 Ry
        Total length         55.1515 bohr
 

     total cpu time spent up to now is      256.2 secs

     total energy              =   -7738.31824972 Ry
     estimated scf accuracy    <       0.44913961 Ry

     total magnetization       =    87.47 Bohr mag/cell
     absolute magnetization    =    90.12 Bohr mag/cell

     iteration # 18     ecut=    50.00 Ry     beta= 0.10
     Davidson diagonalization with overlap
     ethr =  4.11E-05,  avg # of iterations =  1.5

     negative rho (up, down):  3.542E-04 3.924E-04
 
     Adding external electric field

     Computed dipole along edir(3) : 
        Dipole               -1.0766 Ry au,         -2.7365 Debye
        Dipole field         -0.0007 Ry au, 
 
        Potential amp.        0.0727 Ry
        Total length         55.1515 bohr
 
 
     Adding external electric field

     Computed dipole along edir(3) : 
        Dipole               -1.0766 Ry au,         -2.7365 Debye
        Dipole field         -0.0007 Ry au, 
 
        Potential amp.        0.0727 Ry
        Total length         55.1515 bohr
 

     total cpu time spent up to now is      268.8 secs

     total energy              =   -7738.32155417 Ry
     estimated scf accuracy    <       0.28279356 Ry

     total magnetization       =    87.75 Bohr mag/cell
     absolute magnetization    =    89.61 Bohr mag/cell

     iteration # 19     ecut=    50.00 Ry     beta= 0.10
     Davidson diagonalization with overlap
     ethr =  2.59E-05,  avg # of iterations = 12.0

     negative rho (up, down):  1.323E-04 6.001E-05
 
     Adding external electric field

     Computed dipole along edir(3) : 
        Dipole               -1.0483 Ry au,         -2.6646 Debye
        Dipole field         -0.0006 Ry au, 
 
        Potential amp.        0.0708 Ry
        Total length         55.1515 bohr
 
 
     Adding external electric field

     Computed dipole along edir(3) : 
        Dipole               -1.0483 Ry au,         -2.6646 Debye
        Dipole field         -0.0006 Ry au, 
 
        Potential amp.        0.0708 Ry
        Total length         55.1515 bohr
 

     total cpu time spent up to now is      292.3 secs

     total energy              =   -7738.32008532 Ry
     estimated scf accuracy    <       0.18506236 Ry

     total magnetization       =    88.45 Bohr mag/cell
     absolute magnetization    =    89.98 Bohr mag/cell

     iteration # 20     ecut=    50.00 Ry     beta= 0.10
     Davidson diagonalization with overlap
     c_bands:  5 eigenvalues not converged
     ethr =  1.69E-05,  avg # of iterations = 11.0

     negative rho (up, down):  1.224E-04 3.302E-06
 
     Adding external electric field

     Computed dipole along edir(3) : 
        Dipole               -0.9728 Ry au,         -2.4726 Debye
        Dipole field         -0.0006 Ry au, 
 
        Potential amp.        0.0657 Ry
        Total length         55.1515 bohr
 
 
     Adding external electric field

     Computed dipole along edir(3) : 
        Dipole               -0.9728 Ry au,         -2.4726 Debye
        Dipole field         -0.0006 Ry au, 
 
        Potential amp.        0.0657 Ry
        Total length         55.1515 bohr
 

     total cpu time spent up to now is      310.9 secs

     total energy              =   -7738.31356723 Ry
     estimated scf accuracy    <       0.08496463 Ry

     total magnetization       =    88.78 Bohr mag/cell
     absolute magnetization    =    90.20 Bohr mag/cell

     iteration # 21     ecut=    50.00 Ry     beta= 0.10
     Davidson diagonalization with overlap
     c_bands:  2 eigenvalues not converged
     ethr =  7.77E-06,  avg # of iterations = 11.0

     negative rho (up, down):  1.278E-04 5.826E-06
 
     Adding external electric field

     Computed dipole along edir(3) : 
        Dipole               -0.9857 Ry au,         -2.5054 Debye
        Dipole field         -0.0006 Ry au, 
 
        Potential amp.        0.0666 Ry
        Total length         55.1515 bohr
 
 
     Adding external electric field

     Computed dipole along edir(3) : 
        Dipole               -0.9857 Ry au,         -2.5054 Debye
        Dipole field         -0.0006 Ry au, 
 
        Potential amp.        0.0666 Ry
        Total length         55.1515 bohr
 

     total cpu time spent up to now is      331.2 secs

     total energy              =   -7738.31648719 Ry
     estimated scf accuracy    <       0.05984864 Ry

     total magnetization       =    88.79 Bohr mag/cell
     absolute magnetization    =    90.20 Bohr mag/cell

     iteration # 22     ecut=    50.00 Ry     beta= 0.10
     Davidson diagonalization with overlap
     c_bands:  4 eigenvalues not converged
     ethr =  5.48E-06,  avg # of iterations = 11.0

     negative rho (up, down):  1.168E-04 5.547E-06
 
     Adding external electric field

     Computed dipole along edir(3) : 
        Dipole               -0.9916 Ry au,         -2.5203 Debye
        Dipole field         -0.0006 Ry au, 
 
        Potential amp.        0.0669 Ry
        Total length         55.1515 bohr
 
 
     Adding external electric field

     Computed dipole along edir(3) : 
        Dipole               -0.9916 Ry au,         -2.5203 Debye
        Dipole field         -0.0006 Ry au, 
 
        Potential amp.        0.0669 Ry
        Total length         55.1515 bohr
 

     total cpu time spent up to now is      348.9 secs

     total energy              =   -7738.31741332 Ry
     estimated scf accuracy    <       0.05483609 Ry

     total magnetization       =    88.79 Bohr mag/cell
     absolute magnetization    =    90.20 Bohr mag/cell

     iteration # 23     ecut=    50.00 Ry     beta= 0.10
     Davidson diagonalization with overlap
     c_bands:  1 eigenvalues not converged
     ethr =  5.02E-06,  avg # of iterations = 10.5

     negative rho (up, down):  1.875E-04 3.758E-05
 
     Adding external electric field

     Computed dipole along edir(3) : 
        Dipole               -0.9578 Ry au,         -2.4345 Debye
        Dipole field         -0.0006 Ry au, 
 
        Potential amp.        0.0647 Ry
        Total length         55.1515 bohr
 
 
     Adding external electric field

     Computed dipole along edir(3) : 
        Dipole               -0.9578 Ry au,         -2.4345 Debye
        Dipole field         -0.0006 Ry au, 
 
        Potential amp.        0.0647 Ry
        Total length         55.1515 bohr
 

     total cpu time spent up to now is      366.1 secs

     total energy              =   -7738.31798153 Ry
     estimated scf accuracy    <       0.05777350 Ry

     total magnetization       =    88.78 Bohr mag/cell
     absolute magnetization    =    90.18 Bohr mag/cell

     iteration # 24     ecut=    50.00 Ry     beta= 0.10
     Davidson diagonalization with overlap
     ethr =  5.02E-06,  avg # of iterations =  1.5

     negative rho (up, down):  3.044E-04 2.450E-04
 
     Adding external electric field

     Computed dipole along edir(3) : 
        Dipole               -0.8196 Ry au,         -2.0832 Debye
        Dipole field         -0.0005 Ry au, 
 
        Potential amp.        0.0553 Ry
        Total length         55.1515 bohr
 
 
     Adding external electric field

     Computed dipole along edir(3) : 
        Dipole               -0.8196 Ry au,         -2.0832 Debye
        Dipole field         -0.0005 Ry au, 
 
        Potential amp.        0.0553 Ry
        Total length         55.1515 bohr
 

     total cpu time spent up to now is      378.6 secs

     total energy              =   -7738.31889279 Ry
     estimated scf accuracy    <       0.03526227 Ry

     total magnetization       =    88.69 Bohr mag/cell
     absolute magnetization    =    90.19 Bohr mag/cell

     iteration # 25     ecut=    50.00 Ry     beta= 0.10
     Davidson diagonalization with overlap
     c_bands:  1 eigenvalues not converged
     ethr =  3.23E-06,  avg # of iterations = 11.0

     negative rho (up, down):  3.437E-04 3.060E-04
 
     Adding external electric field

     Computed dipole along edir(3) : 
        Dipole               -0.8127 Ry au,         -2.0656 Debye
        Dipole field         -0.0005 Ry au, 
 
        Potential amp.        0.0549 Ry
        Total length         55.1515 bohr
 
 
     Adding external electric field

     Computed dipole along edir(3) : 
        Dipole               -0.8127 Ry au,         -2.0656 Debye
        Dipole field         -0.0005 Ry au, 
 
        Potential amp.        0.0549 Ry
        Total length         55.1515 bohr
 

     total cpu time spent up to now is      396.3 secs

     total energy              =   -7738.32051878 Ry
     estimated scf accuracy    <       0.04203587 Ry

     total magnetization       =    88.42 Bohr mag/cell
     absolute magnetization    =    89.96 Bohr mag/cell

     iteration # 26     ecut=    50.00 Ry     beta= 0.10
     Davidson diagonalization with overlap
     ethr =  3.23E-06,  avg # of iterations =  1.5

     negative rho (up, down):  6.094E-04 6.585E-04
 
     Adding external electric field

     Computed dipole along edir(3) : 
        Dipole               -0.7565 Ry au,         -1.9227 Debye
        Dipole field         -0.0005 Ry au, 
 
        Potential amp.        0.0511 Ry
        Total length         55.1515 bohr
 
 
     Adding external electric field

     Computed dipole along edir(3) : 
        Dipole               -0.7565 Ry au,         -1.9227 Debye
        Dipole field         -0.0005 Ry au, 
 
        Potential amp.        0.0511 Ry
        Total length         55.1515 bohr
 

     total cpu time spent up to now is      408.6 secs

     total energy              =   -7738.32063051 Ry
     estimated scf accuracy    <       0.03904611 Ry

     total magnetization       =    88.49 Bohr mag/cell
     absolute magnetization    =    90.01 Bohr mag/cell

     iteration # 27     ecut=    50.00 Ry     beta= 0.10
     Davidson diagonalization with overlap
     ethr =  3.23E-06,  avg # of iterations =  2.0

     negative rho (up, down):  5.936E-04 6.381E-04
 
     Adding external electric field

     Computed dipole along edir(3) : 
        Dipole               -0.7320 Ry au,         -1.8605 Debye
        Dipole field         -0.0004 Ry au, 
 
        Potential amp.        0.0494 Ry
        Total length         55.1515 bohr
 
 
     Adding external electric field

     Computed dipole along edir(3) : 
        Dipole               -0.7320 Ry au,         -1.8605 Debye
        Dipole field         -0.0004 Ry au, 
 
        Potential amp.        0.0494 Ry
        Total length         55.1515 bohr
 

     total cpu time spent up to now is      421.8 secs

     total energy              =   -7738.32028869 Ry
     estimated scf accuracy    <       0.03502165 Ry

     total magnetization       =    88.49 Bohr mag/cell
     absolute magnetization    =    90.02 Bohr mag/cell

     iteration # 28     ecut=    50.00 Ry     beta= 0.10
     Davidson diagonalization with overlap
     ethr =  3.20E-06,  avg # of iterations =  1.5

     negative rho (up, down):  6.175E-04 6.515E-04
 
     Adding external electric field

     Computed dipole along edir(3) : 
        Dipole               -0.7279 Ry au,         -1.8502 Debye
        Dipole field         -0.0004 Ry au, 
 
        Potential amp.        0.0491 Ry
        Total length         55.1515 bohr
 
 
     Adding external electric field

     Computed dipole along edir(3) : 
        Dipole               -0.7279 Ry au,         -1.8502 Debye
        Dipole field         -0.0004 Ry au, 
 
        Potential amp.        0.0491 Ry
        Total length         55.1515 bohr
 

     total cpu time spent up to now is      433.8 secs

     total energy              =   -7738.32020112 Ry
     estimated scf accuracy    <       0.04093757 Ry

     total magnetization       =    88.48 Bohr mag/cell
     absolute magnetization    =    90.03 Bohr mag/cell

     iteration # 29     ecut=    50.00 Ry     beta= 0.10
     Davidson diagonalization with overlap
     ethr =  3.20E-06,  avg # of iterations =  1.5

     negative rho (up, down):  3.766E-04 3.324E-04
 
     Adding external electric field

     Computed dipole along edir(3) : 
        Dipole               -0.7637 Ry au,         -1.9412 Debye
        Dipole field         -0.0005 Ry au, 
 
        Potential amp.        0.0516 Ry
        Total length         55.1515 bohr
 
 
     Adding external electric field

     Computed dipole along edir(3) : 
        Dipole               -0.7637 Ry au,         -1.9412 Debye
        Dipole field         -0.0005 Ry au, 
 
        Potential amp.        0.0516 Ry
        Total length         55.1515 bohr
 

     total cpu time spent up to now is      446.7 secs

     total energy              =   -7738.32023928 Ry
     estimated scf accuracy    <       0.04049050 Ry

     total magnetization       =    88.48 Bohr mag/cell
     absolute magnetization    =    90.03 Bohr mag/cell

     iteration # 30     ecut=    50.00 Ry     beta= 0.10
     Davidson diagonalization with overlap
     ethr =  3.20E-06,  avg # of iterations =  1.5

     negative rho (up, down):  5.726E-04 5.160E-04
 
     Adding external electric field

     Computed dipole along edir(3) : 
        Dipole               -0.7563 Ry au,         -1.9224 Debye
        Dipole field         -0.0005 Ry au, 
 
        Potential amp.        0.0511 Ry
        Total length         55.1515 bohr
 
 
     Adding external electric field

     Computed dipole along edir(3) : 
        Dipole               -0.7563 Ry au,         -1.9224 Debye
        Dipole field         -0.0005 Ry au, 
 
        Potential amp.        0.0511 Ry
        Total length         55.1515 bohr
 

     total cpu time spent up to now is      459.2 secs

     total energy              =   -7738.32023296 Ry
     estimated scf accuracy    <       0.03549479 Ry

     total magnetization       =    88.54 Bohr mag/cell
     absolute magnetization    =    90.06 Bohr mag/cell

     iteration # 31     ecut=    50.00 Ry     beta= 0.10
     Davidson diagonalization with overlap
     ethr =  3.20E-06,  avg # of iterations =  1.5

     negative rho (up, down):  6.887E-04 6.856E-04
 
     Adding external electric field

     Computed dipole along edir(3) : 
        Dipole               -0.6314 Ry au,         -1.6048 Debye
        Dipole field         -0.0004 Ry au, 
 
        Potential amp.        0.0426 Ry
        Total length         55.1515 bohr
 
 
     Adding external electric field

     Computed dipole along edir(3) : 
        Dipole               -0.6314 Ry au,         -1.6048 Debye
        Dipole field         -0.0004 Ry au, 
 
        Potential amp.        0.0426 Ry
        Total length         55.1515 bohr
 

     total cpu time spent up to now is      471.5 secs

     total energy              =   -7738.31859620 Ry
     estimated scf accuracy    <       0.03897970 Ry

     total magnetization       =    88.53 Bohr mag/cell
     absolute magnetization    =    90.07 Bohr mag/cell

     iteration # 32     ecut=    50.00 Ry     beta= 0.10
     Davidson diagonalization with overlap
     ethr =  3.20E-06,  avg # of iterations =  3.0

     negative rho (up, down):  1.355E-03 1.347E-03
 
     Adding external electric field

     Computed dipole along edir(3) : 
        Dipole               -0.5547 Ry au,         -1.4099 Debye
        Dipole field         -0.0003 Ry au, 
 
        Potential amp.        0.0375 Ry
        Total length         55.1515 bohr
 
 
     Adding external electric field

     Computed dipole along edir(3) : 
        Dipole               -0.5547 Ry au,         -1.4099 Debye
        Dipole field         -0.0003 Ry au, 
 
        Potential amp.        0.0375 Ry
        Total length         55.1515 bohr
 

     total cpu time spent up to now is      485.0 secs

     total energy              =   -7738.31863279 Ry
     estimated scf accuracy    <       0.02868329 Ry

     total magnetization       =    88.48 Bohr mag/cell
     absolute magnetization    =    89.96 Bohr mag/cell

     iteration # 33     ecut=    50.00 Ry     beta= 0.10
     Davidson diagonalization with overlap
     ethr =  2.62E-06,  avg # of iterations = 12.5

     negative rho (up, down):  1.969E-03 1.841E-03
 
     Adding external electric field

     Computed dipole along edir(3) : 
        Dipole               -0.5018 Ry au,         -1.2754 Debye
        Dipole field         -0.0003 Ry au, 
 
        Potential amp.        0.0339 Ry
        Total length         55.1515 bohr
 
 
     Adding external electric field

     Computed dipole along edir(3) : 
        Dipole               -0.5018 Ry au,         -1.2754 Debye
        Dipole field         -0.0003 Ry au, 
 
        Potential amp.        0.0339 Ry
        Total length         55.1515 bohr
 

     total cpu time spent up to now is      509.1 secs

     total energy              =   -7738.31854646 Ry
     estimated scf accuracy    <       0.02400124 Ry

     total magnetization       =    88.52 Bohr mag/cell
     absolute magnetization    =    90.00 Bohr mag/cell

     iteration # 34     ecut=    50.00 Ry     beta= 0.10
     Davidson diagonalization with overlap
     ethr =  2.20E-06,  avg # of iterations = 10.5

     negative rho (up, down):  1.567E-03 1.334E-03
 
     Adding external electric field

     Computed dipole along edir(3) : 
        Dipole               -0.4762 Ry au,         -1.2103 Debye
        Dipole field         -0.0003 Ry au, 
 
        Potential amp.        0.0321 Ry
        Total length         55.1515 bohr
 
 
     Adding external electric field

     Computed dipole along edir(3) : 
        Dipole               -0.4762 Ry au,         -1.2103 Debye
        Dipole field         -0.0003 Ry au, 
 
        Potential amp.        0.0321 Ry
        Total length         55.1515 bohr
 

     total cpu time spent up to now is      526.3 secs

     total energy              =   -7738.31816872 Ry
     estimated scf accuracy    <       0.01977450 Ry

     total magnetization       =    88.55 Bohr mag/cell
     absolute magnetization    =    90.02 Bohr mag/cell

     iteration # 35     ecut=    50.00 Ry     beta= 0.10
     Davidson diagonalization with overlap
     ethr =  1.81E-06,  avg # of iterations =  2.0

     negative rho (up, down):  8.919E-04 7.238E-04
 
     Adding external electric field

     Computed dipole along edir(3) : 
        Dipole               -0.5014 Ry au,         -1.2746 Debye
        Dipole field         -0.0003 Ry au, 
 
        Potential amp.        0.0339 Ry
        Total length         55.1515 bohr
 
 
     Adding external electric field

     Computed dipole along edir(3) : 
        Dipole               -0.5014 Ry au,         -1.2746 Debye
        Dipole field         -0.0003 Ry au, 
 
        Potential amp.        0.0339 Ry
        Total length         55.1515 bohr
 

     total cpu time spent up to now is      539.6 secs

     total energy              =   -7738.31767472 Ry
     estimated scf accuracy    <       0.01347430 Ry

     total magnetization       =    88.56 Bohr mag/cell
     absolute magnetization    =    89.97 Bohr mag/cell

     iteration # 36     ecut=    50.00 Ry     beta= 0.10
     Davidson diagonalization with overlap
     ethr =  1.23E-06,  avg # of iterations =  2.0

     negative rho (up, down):  2.766E-03 2.323E-03
 
     Adding external electric field

     Computed dipole along edir(3) : 
        Dipole               -0.3709 Ry au,         -0.9428 Debye
        Dipole field         -0.0002 Ry au, 
 
        Potential amp.        0.0250 Ry
        Total length         55.1515 bohr
 
 
     Adding external electric field

     Computed dipole along edir(3) : 
        Dipole               -0.3709 Ry au,         -0.9428 Debye
        Dipole field         -0.0002 Ry au, 
 
        Potential amp.        0.0250 Ry
        Total length         55.1515 bohr
 

     total cpu time spent up to now is      552.4 secs

     total energy              =   -7738.31658791 Ry
     estimated scf accuracy    <       0.01022144 Ry

     total magnetization       =    88.55 Bohr mag/cell
     absolute magnetization    =    89.89 Bohr mag/cell

     iteration # 37     ecut=    50.00 Ry     beta= 0.10
     Davidson diagonalization with overlap
     c_bands:  4 eigenvalues not converged
     ethr =  9.35E-07,  avg # of iterations = 14.5

     negative rho (up, down):  1.775E-03 1.423E-03
 
     Adding external electric field

     Computed dipole along edir(3) : 
        Dipole               -0.3659 Ry au,         -0.9301 Debye
        Dipole field         -0.0002 Ry au, 
 
        Potential amp.        0.0247 Ry
        Total length         55.1515 bohr
 
 
     Adding external electric field

     Computed dipole along edir(3) : 
        Dipole               -0.3659 Ry au,         -0.9301 Debye
        Dipole field         -0.0002 Ry au, 
 
        Potential amp.        0.0247 Ry
        Total length         55.1515 bohr
 

     total cpu time spent up to now is      574.4 secs

     total energy              =   -7738.31693100 Ry
     estimated scf accuracy    <       0.00604819 Ry

     total magnetization       =    88.51 Bohr mag/cell
     absolute magnetization    =    89.81 Bohr mag/cell

     iteration # 38     ecut=    50.00 Ry     beta= 0.10
     Davidson diagonalization with overlap
     ethr =  5.53E-07,  avg # of iterations =  3.0

     negative rho (up, down):  7.614E-04 7.799E-04
 
     Adding external electric field

     Computed dipole along edir(3) : 
        Dipole               -0.3153 Ry au,         -0.8015 Debye
        Dipole field         -0.0002 Ry au, 
 
        Potential amp.        0.0213 Ry
        Total length         55.1515 bohr
 
 
     Adding external electric field

     Computed dipole along edir(3) : 
        Dipole               -0.3153 Ry au,         -0.8015 Debye
        Dipole field         -0.0002 Ry au, 
 
        Potential amp.        0.0213 Ry
        Total length         55.1515 bohr
 

     total cpu time spent up to now is      587.7 secs

     total energy              =   -7738.31768314 Ry
     estimated scf accuracy    <       0.00438144 Ry

     total magnetization       =    88.53 Bohr mag/cell
     absolute magnetization    =    89.85 Bohr mag/cell

     iteration # 39     ecut=    50.00 Ry     beta= 0.10
     Davidson diagonalization with overlap
     ethr =  4.01E-07,  avg # of iterations =  3.0

     negative rho (up, down):  1.583E-04 2.096E-04
 
     Adding external electric field

     Computed dipole along edir(3) : 
        Dipole               -0.3443 Ry au,         -0.8751 Debye
        Dipole field         -0.0002 Ry au, 
 
        Potential amp.        0.0232 Ry
        Total length         55.1515 bohr
 
 
     Adding external electric field

     Computed dipole along edir(3) : 
        Dipole               -0.3443 Ry au,         -0.8751 Debye
        Dipole field         -0.0002 Ry au, 
 
        Potential amp.        0.0232 Ry
        Total length         55.1515 bohr
 

     total cpu time spent up to now is      601.3 secs

     total energy              =   -7738.31763720 Ry
     estimated scf accuracy    <       0.00219290 Ry

     total magnetization       =    88.47 Bohr mag/cell
     absolute magnetization    =    89.83 Bohr mag/cell

     iteration # 40     ecut=    50.00 Ry     beta= 0.10
     Davidson diagonalization with overlap
     ethr =  2.01E-07,  avg # of iterations =  2.0

     negative rho (up, down):  9.040E-05 1.108E-04
 
     Adding external electric field

     Computed dipole along edir(3) : 
        Dipole               -0.3509 Ry au,         -0.8920 Debye
        Dipole field         -0.0002 Ry au, 
 
        Potential amp.        0.0237 Ry
        Total length         55.1515 bohr
 
 
     Adding external electric field

     Computed dipole along edir(3) : 
        Dipole               -0.3509 Ry au,         -0.8920 Debye
        Dipole field         -0.0002 Ry au, 
 
        Potential amp.        0.0237 Ry
        Total length         55.1515 bohr
 

     total cpu time spent up to now is      614.4 secs

     total energy              =   -7738.31767717 Ry
     estimated scf accuracy    <       0.00144668 Ry

     total magnetization       =    88.48 Bohr mag/cell
     absolute magnetization    =    89.85 Bohr mag/cell

     iteration # 41     ecut=    50.00 Ry     beta= 0.10
     Davidson diagonalization with overlap
     ethr =  1.32E-07,  avg # of iterations =  2.0

     negative rho (up, down):  5.808E-06 3.568E-06
 
     Adding external electric field

     Computed dipole along edir(3) : 
        Dipole               -0.3842 Ry au,         -0.9766 Debye
        Dipole field         -0.0002 Ry au, 
 
        Potential amp.        0.0259 Ry
        Total length         55.1515 bohr
 
 
     Adding external electric field

     Computed dipole along edir(3) : 
        Dipole               -0.3842 Ry au,         -0.9766 Debye
        Dipole field         -0.0002 Ry au, 
 
        Potential amp.        0.0259 Ry
        Total length         55.1515 bohr
 

     total cpu time spent up to now is      627.3 secs

     total energy              =   -7738.31766014 Ry
     estimated scf accuracy    <       0.00118230 Ry

     total magnetization       =    88.49 Bohr mag/cell
     absolute magnetization    =    89.84 Bohr mag/cell

     iteration # 42     ecut=    50.00 Ry     beta= 0.10
     Davidson diagonalization with overlap
     ethr =  1.08E-07,  avg # of iterations =  2.0

     negative rho (up, down):  1.506E-05 9.074E-06
 
     Adding external electric field

     Computed dipole along edir(3) : 
        Dipole               -0.3881 Ry au,         -0.9866 Debye
        Dipole field         -0.0002 Ry au, 
 
        Potential amp.        0.0262 Ry
        Total length         55.1515 bohr
 
 
     Adding external electric field

     Computed dipole along edir(3) : 
        Dipole               -0.3881 Ry au,         -0.9866 Debye
        Dipole field         -0.0002 Ry au, 
 
        Potential amp.        0.0262 Ry
        Total length         55.1515 bohr
 

     total cpu time spent up to now is      640.1 secs

     total energy              =   -7738.31770472 Ry
     estimated scf accuracy    <       0.00080613 Ry

     total magnetization       =    88.49 Bohr mag/cell
     absolute magnetization    =    89.84 Bohr mag/cell

     iteration # 43     ecut=    50.00 Ry     beta= 0.10
     Davidson diagonalization with overlap
     ethr =  7.38E-08,  avg # of iterations =  2.0

     negative rho (up, down):  4.514E-06 1.201E-06
 
     Adding external electric field

     Computed dipole along edir(3) : 
        Dipole               -0.3968 Ry au,         -1.0086 Debye
        Dipole field         -0.0002 Ry au, 
 
        Potential amp.        0.0268 Ry
        Total length         55.1515 bohr
 
 
     Adding external electric field

     Computed dipole along edir(3) : 
        Dipole               -0.3968 Ry au,         -1.0086 Debye
        Dipole field         -0.0002 Ry au, 
 
        Potential amp.        0.0268 Ry
        Total length         55.1515 bohr
 

     total cpu time spent up to now is      653.4 secs

     total energy              =   -7738.31776736 Ry
     estimated scf accuracy    <       0.00068979 Ry

     total magnetization       =    88.49 Bohr mag/cell
     absolute magnetization    =    89.84 Bohr mag/cell

     iteration # 44     ecut=    50.00 Ry     beta= 0.10
     Davidson diagonalization with overlap
     ethr =  6.31E-08,  avg # of iterations =  2.0

     negative rho (up, down):  2.777E-05 1.117E-05
 
     Adding external electric field

     Computed dipole along edir(3) : 
        Dipole               -0.3779 Ry au,         -0.9605 Debye
        Dipole field         -0.0002 Ry au, 
 
        Potential amp.        0.0255 Ry
        Total length         55.1515 bohr
 
 
     Adding external electric field

     Computed dipole along edir(3) : 
        Dipole               -0.3779 Ry au,         -0.9605 Debye
        Dipole field         -0.0002 Ry au, 
 
        Potential amp.        0.0255 Ry
        Total length         55.1515 bohr
 

     total cpu time spent up to now is      666.1 secs

     total energy              =   -7738.31785657 Ry
     estimated scf accuracy    <       0.00038715 Ry

     total magnetization       =    88.47 Bohr mag/cell
     absolute magnetization    =    89.85 Bohr mag/cell

     iteration # 45     ecut=    50.00 Ry     beta= 0.10
     Davidson diagonalization with overlap
     ethr =  3.54E-08,  avg # of iterations =  2.0

     negative rho (up, down):  1.721E-04 9.236E-05
 
     Adding external electric field

     Computed dipole along edir(3) : 
        Dipole               -0.3566 Ry au,         -0.9065 Debye
        Dipole field         -0.0002 Ry au, 
 
        Potential amp.        0.0241 Ry
        Total length         55.1515 bohr
 
 
     Adding external electric field

     Computed dipole along edir(3) : 
        Dipole               -0.3566 Ry au,         -0.9065 Debye
        Dipole field         -0.0002 Ry au, 
 
        Potential amp.        0.0241 Ry
        Total length         55.1515 bohr
 

     total cpu time spent up to now is      679.2 secs

     total energy              =   -7738.31792044 Ry
     estimated scf accuracy    <       0.00030082 Ry

     total magnetization       =    88.47 Bohr mag/cell
     absolute magnetization    =    89.85 Bohr mag/cell

     iteration # 46     ecut=    50.00 Ry     beta= 0.10
     Davidson diagonalization with overlap
     ethr =  2.75E-08,  avg # of iterations =  5.0

     negative rho (up, down):  1.562E-04 7.123E-05
 
     Adding external electric field

     Computed dipole along edir(3) : 
        Dipole               -0.3541 Ry au,         -0.8999 Debye
        Dipole field         -0.0002 Ry au, 
 
        Potential amp.        0.0239 Ry
        Total length         55.1515 bohr
 
 
     Adding external electric field

     Computed dipole along edir(3) : 
        Dipole               -0.3541 Ry au,         -0.8999 Debye
        Dipole field         -0.0002 Ry au, 
 
        Potential amp.        0.0239 Ry
        Total length         55.1515 bohr
 

     total cpu time spent up to now is      694.2 secs

     total energy              =   -7738.31792906 Ry
     estimated scf accuracy    <       0.00025125 Ry

     total magnetization       =    88.48 Bohr mag/cell
     absolute magnetization    =    89.87 Bohr mag/cell

     iteration # 47     ecut=    50.00 Ry     beta= 0.10
     Davidson diagonalization with overlap
     ethr =  2.30E-08,  avg # of iterations =  2.0

     negative rho (up, down):  2.061E-04 9.174E-05
 
     Adding external electric field

     Computed dipole along edir(3) : 
        Dipole               -0.3461 Ry au,         -0.8796 Debye
        Dipole field         -0.0002 Ry au, 
 
        Potential amp.        0.0234 Ry
        Total length         55.1515 bohr
 
 
     Adding external electric field

     Computed dipole along edir(3) : 
        Dipole               -0.3461 Ry au,         -0.8796 Debye
        Dipole field         -0.0002 Ry au, 
 
        Potential amp.        0.0234 Ry
        Total length         55.1515 bohr
 

     total cpu time spent up to now is      706.9 secs

     total energy              =   -7738.31794859 Ry
     estimated scf accuracy    <       0.00021418 Ry

     total magnetization       =    88.48 Bohr mag/cell
     absolute magnetization    =    89.88 Bohr mag/cell

     iteration # 48     ecut=    50.00 Ry     beta= 0.10
     Davidson diagonalization with overlap
     c_bands:  2 eigenvalues not converged
     ethr =  1.96E-08,  avg # of iterations = 11.0

     negative rho (up, down):  6.646E-04 3.163E-04
 
     Adding external electric field

     Computed dipole along edir(3) : 
        Dipole               -0.3294 Ry au,         -0.8373 Debye
        Dipole field         -0.0002 Ry au, 
 
        Potential amp.        0.0222 Ry
        Total length         55.1515 bohr
 
 
     Adding external electric field

     Computed dipole along edir(3) : 
        Dipole               -0.3294 Ry au,         -0.8373 Debye
        Dipole field         -0.0002 Ry au, 
 
        Potential amp.        0.0222 Ry
        Total length         55.1515 bohr
 

     total cpu time spent up to now is      724.4 secs

     total energy              =   -7738.31797446 Ry
     estimated scf accuracy    <       0.00012741 Ry

     total magnetization       =    88.49 Bohr mag/cell
     absolute magnetization    =    89.88 Bohr mag/cell

     iteration # 49     ecut=    50.00 Ry     beta= 0.10
     Davidson diagonalization with overlap
     ethr =  1.17E-08,  avg # of iterations =  2.0

     negative rho (up, down):  1.192E-03 7.797E-04
 
     Adding external electric field

     Computed dipole along edir(3) : 
        Dipole               -0.3207 Ry au,         -0.8151 Debye
        Dipole field         -0.0002 Ry au, 
 
        Potential amp.        0.0217 Ry
        Total length         55.1515 bohr
 
 
     Adding external electric field

     Computed dipole along edir(3) : 
        Dipole               -0.3207 Ry au,         -0.8151 Debye
        Dipole field         -0.0002 Ry au, 
 
        Potential amp.        0.0217 Ry
        Total length         55.1515 bohr
 

     total cpu time spent up to now is      736.9 secs

     total energy              =   -7738.31798066 Ry
     estimated scf accuracy    <       0.00005349 Ry

     total magnetization       =    88.48 Bohr mag/cell
     absolute magnetization    =    89.87 Bohr mag/cell

     iteration # 50     ecut=    50.00 Ry     beta= 0.10
     Davidson diagonalization with overlap
     ethr =  4.89E-09,  avg # of iterations =  2.0

     negative rho (up, down):  1.349E-03 9.258E-04
 
     Adding external electric field

     Computed dipole along edir(3) : 
        Dipole               -0.3162 Ry au,         -0.8036 Debye
        Dipole field         -0.0002 Ry au, 
 
        Potential amp.        0.0213 Ry
        Total length         55.1515 bohr
 
 
     Adding external electric field

     Computed dipole along edir(3) : 
        Dipole               -0.3162 Ry au,         -0.8036 Debye
        Dipole field         -0.0002 Ry au, 
 
        Potential amp.        0.0213 Ry
        Total length         55.1515 bohr
 

     total cpu time spent up to now is      749.2 secs

     total energy              =   -7738.31798568 Ry
     estimated scf accuracy    <       0.00002306 Ry

     total magnetization       =    88.48 Bohr mag/cell
     absolute magnetization    =    89.86 Bohr mag/cell

     iteration # 51     ecut=    50.00 Ry     beta= 0.10
     Davidson diagonalization with overlap
     ethr =  2.11E-09,  avg # of iterations =  2.0

     negative rho (up, down):  1.566E-03 1.157E-03
 
     Adding external electric field

     Computed dipole along edir(3) : 
        Dipole               -0.3093 Ry au,         -0.7861 Debye
        Dipole field         -0.0002 Ry au, 
 
        Potential amp.        0.0209 Ry
        Total length         55.1515 bohr
 
 
     Adding external electric field

     Computed dipole along edir(3) : 
        Dipole               -0.3093 Ry au,         -0.7861 Debye
        Dipole field         -0.0002 Ry au, 
 
        Potential amp.        0.0209 Ry
        Total length         55.1515 bohr
 

     total cpu time spent up to now is      762.7 secs

     total energy              =   -7738.31798887 Ry
     estimated scf accuracy    <       0.00001549 Ry

     total magnetization       =    88.48 Bohr mag/cell
     absolute magnetization    =    89.86 Bohr mag/cell

     iteration # 52     ecut=    50.00 Ry     beta= 0.10
     Davidson diagonalization with overlap
     ethr =  1.42E-09,  avg # of iterations =  2.0

     negative rho (up, down):  1.357E-03 9.190E-04
 
     Adding external electric field

     Computed dipole along edir(3) : 
        Dipole               -0.3092 Ry au,         -0.7858 Debye
        Dipole field         -0.0002 Ry au, 
 
        Potential amp.        0.0209 Ry
        Total length         55.1515 bohr
 
 
     Adding external electric field

     Computed dipole along edir(3) : 
        Dipole               -0.3092 Ry au,         -0.7858 Debye
        Dipole field         -0.0002 Ry au, 
 
        Potential amp.        0.0209 Ry
        Total length         55.1515 bohr
 

     total cpu time spent up to now is      775.5 secs

     total energy              =   -7738.31798903 Ry
     estimated scf accuracy    <       0.00000870 Ry

     total magnetization       =    88.48 Bohr mag/cell
     absolute magnetization    =    89.85 Bohr mag/cell

     iteration # 53     ecut=    50.00 Ry     beta= 0.10
     Davidson diagonalization with overlap
     ethr =  7.96E-10,  avg # of iterations =  2.0

     negative rho (up, down):  1.248E-03 7.900E-04
 
     Adding external electric field

     Computed dipole along edir(3) : 
        Dipole               -0.3081 Ry au,         -0.7830 Debye
        Dipole field         -0.0002 Ry au, 
 
        Potential amp.        0.0208 Ry
        Total length         55.1515 bohr
 
 
     Adding external electric field

     Computed dipole along edir(3) : 
        Dipole               -0.3081 Ry au,         -0.7830 Debye
        Dipole field         -0.0002 Ry au, 
 
        Potential amp.        0.0208 Ry
        Total length         55.1515 bohr
 

     total cpu time spent up to now is      788.5 secs

     total energy              =   -7738.31798882 Ry
     estimated scf accuracy    <       0.00000526 Ry

     total magnetization       =    88.48 Bohr mag/cell
     absolute magnetization    =    89.85 Bohr mag/cell

     iteration # 54     ecut=    50.00 Ry     beta= 0.10
     Davidson diagonalization with overlap
     ethr =  4.81E-10,  avg # of iterations =  2.0

     negative rho (up, down):  1.240E-03 7.828E-04
 
     Adding external electric field

     Computed dipole along edir(3) : 
        Dipole               -0.3068 Ry au,         -0.7797 Debye
        Dipole field         -0.0002 Ry au, 
 
        Potential amp.        0.0207 Ry
        Total length         55.1515 bohr
 
 
     Adding external electric field

     Computed dipole along edir(3) : 
        Dipole               -0.3068 Ry au,         -0.7797 Debye
        Dipole field         -0.0002 Ry au, 
 
        Potential amp.        0.0207 Ry
        Total length         55.1515 bohr
 

     total cpu time spent up to now is      801.8 secs

     total energy              =   -7738.31798892 Ry
     estimated scf accuracy    <       0.00000254 Ry

     total magnetization       =    88.48 Bohr mag/cell
     absolute magnetization    =    89.86 Bohr mag/cell

     iteration # 55     ecut=    50.00 Ry     beta= 0.10
     Davidson diagonalization with overlap
     ethr =  2.33E-10,  avg # of iterations =  3.0

     negative rho (up, down):  1.147E-03 6.903E-04
 
     Adding external electric field

     Computed dipole along edir(3) : 
        Dipole               -0.3068 Ry au,         -0.7798 Debye
        Dipole field         -0.0002 Ry au, 
 
        Potential amp.        0.0207 Ry
        Total length         55.1515 bohr
 
 
     Adding external electric field

     Computed dipole along edir(3) : 
        Dipole               -0.3068 Ry au,         -0.7798 Debye
        Dipole field         -0.0002 Ry au, 
 
        Potential amp.        0.0207 Ry
        Total length         55.1515 bohr
 

     total cpu time spent up to now is      815.5 secs

     total energy              =   -7738.31798819 Ry
     estimated scf accuracy    <       0.00000142 Ry

     total magnetization       =    88.48 Bohr mag/cell
     absolute magnetization    =    89.86 Bohr mag/cell

     iteration # 56     ecut=    50.00 Ry     beta= 0.10
     Davidson diagonalization with overlap
     ethr =  1.30E-10,  avg # of iterations =  2.0

     negative rho (up, down):  1.052E-03 5.888E-04
 
     Adding external electric field

     Computed dipole along edir(3) : 
        Dipole               -0.3065 Ry au,         -0.7792 Debye
        Dipole field         -0.0002 Ry au, 
 
        Potential amp.        0.0207 Ry
        Total length         55.1515 bohr
 
 
     Adding external electric field

     Computed dipole along edir(3) : 
        Dipole               -0.3065 Ry au,         -0.7792 Debye
        Dipole field         -0.0002 Ry au, 
 
        Potential amp.        0.0207 Ry
        Total length         55.1515 bohr
 
 
     Magnetic moment per site  (integrated on atomic sphere of radius R)
     atom   1 (R=0.081)  charge=  7.0758  magn=  1.6316
     atom   2 (R=0.091)  charge= 12.1362  magn=  3.8257
     atom   3 (R=0.081)  charge=  7.1246  magn=  1.4384
     atom   4 (R=0.081)  charge=  7.1092  magn=  1.5318
     atom   5 (R=0.081)  charge=  7.1253  magn=  1.4925
     atom   6 (R=0.081)  charge=  7.1231  magn=  1.4862
     atom   7 (R=0.068)  charge=  0.8209  magn=  0.0067
     atom   8 (R=0.068)  charge=  0.8179  magn=  0.0063
     atom   9 (R=0.068)  charge=  0.8160  magn=  0.0039
     atom  10 (R=0.068)  charge=  0.8192  magn=  0.0070
     atom  11 (R=0.045)  charge=  2.0184  magn=  0.0668
     atom  12 (R=0.045)  charge=  2.0216  magn=  0.0592
     atom  13 (R=0.045)  charge=  2.0140  magn=  0.1103
     atom  14 (R=0.045)  charge=  2.0183  magn=  0.0752
     atom  15 (R=0.045)  charge=  2.0261  magn=  0.0497
     atom  16 (R=0.045)  charge=  2.0163  magn=  0.0536
     atom  17 (R=0.045)  charge=  2.0139  magn=  0.0456
     atom  18 (R=0.045)  charge=  2.0235  magn=  0.0524
     atom  19 (R=0.045)  charge=  2.0276  magn=  0.0410
     atom  20 (R=0.045)  charge=  2.0225  magn=  0.0641
     atom  21 (R=0.045)  charge=  2.0242  magn=  0.0476
     atom  22 (R=0.045)  charge=  2.0249  magn=  0.0517
     atom  23 (R=0.045)  charge=  2.0207  magn=  0.0557
     atom  24 (R=0.045)  charge=  2.0183  magn=  0.0551
     atom  25 (R=0.045)  charge=  2.0216  magn=  0.0547
[...]
    -5.9802  -5.9641  -5.9155  -5.9078  -5.8863  -5.8764  -5.8755  -5.8433
    -5.8223  -5.8008  -5.7491  -5.7374  -5.7221  -5.6881  -5.6777  -5.6440
    -5.6394  -5.6279  -5.5915  -5.5735  -5.5657  -5.5575  -5.5549  -5.5320
    -5.5148  -5.5033  -5.4794  -5.4422  -5.4005  -5.3541  -5.3293  -5.3146
    -5.2930  -5.2629  -5.2338  -5.1630  -5.1491  -5.1447  -5.1300  -5.1018
    -5.0513  -5.0091  -4.9731  -4.9471  -4.8975  -4.8875  -4.8582  -4.8575
    -4.8123  -4.7925  -4.7800  -4.7401  -4.7086  -4.6888  -4.6481  -4.6018
    -4.5510  -4.4753  -4.4448  -4.4243  -4.4177  -4.4018  -4.3617  -4.3506
    -4.3051  -4.2839  -4.2542  -4.2322  -4.2011  -4.1740  -4.1168  -4.1057
    -4.0855  -4.0474  -4.0438  -4.0159  -3.9565  -3.9314  -3.9179  -3.8780
    -3.8704  -3.8251  -3.8106  -3.7978  -3.7857  -3.7449  -3.7230  -3.7002
    -3.6898  -3.6623  -3.6469  -3.5967  -3.5839  -3.5753  -3.5727  -3.5462
    -3.5428  -3.5185  -3.5029  -3.4777  -3.4570  -3.4414  -3.4271  -3.4151
    -3.4132  -3.3695  -3.3587  -3.3528  -3.3407  -3.3045  -3.2778  -3.2571
    -3.2520  -3.2108  -3.1953  -3.1841  -3.1473  -3.1141  -3.1049  -3.0806
    -3.0717  -3.0669  -3.0474  -3.0351  -3.0202  -3.0026  -2.9808  -2.9653
    -2.9296  -2.9173  -2.8940  -2.8864  -2.8665  -2.8495  -2.8080  -2.7946
    -2.7845  -2.7577  -2.7513  -2.7419  -2.7254  -2.7136  -2.7008  -2.6869
    -2.6825  -2.6753  -2.6596  -2.6421  -2.6376  -2.6060  -2.6007  -2.5917
    -2.5731  -2.5680  -2.5405  -2.5259  -2.5131  -2.4833  -2.4701  -2.4554
    -2.4385  -2.4194  -2.4042  -2.3776  -2.3550  -2.3525  -2.3210  -2.2857
    -2.2756  -2.2666  -2.2298  -2.2067  -2.1918  -2.1807  -2.1445  -2.1418
    -2.1131  -2.0886  -2.0671  -2.0623  -2.0563  -2.0388  -2.0291  -2.0202
    -1.9959  -1.9783  -1.9382  -1.9154  -1.9103  -1.9091  -1.8734  -1.8555
    -1.8388  -1.8349  -1.8246  -1.8091  -1.7905  -1.7154  -1.7097  -1.6915
    -1.6700  -1.6565  -1.6347  -1.6265  -1.6173  -1.6139  -1.5909  -1.5715
    -1.5492  -1.5382  -1.5169  -1.4864  -1.4863  -1.4541  -1.4350  -1.4264
    -1.4035  -1.3971  -1.3828  -1.3747  -1.3564  -1.3504  -1.3049  -1.2676
    -1.2324  -1.2189  -1.1733  -1.1470  -1.1348  -1.1299  -1.0931  -1.0570
    -1.0468  -0.9931  -0.9272  -0.8441  -0.7400  -0.7272  -0.6155  -0.5583
    -0.5212  -0.5072  -0.3547  -0.2235   0.1794   0.2195   0.2420   0.2482
     0.3000   0.3118   0.3178   0.3222   0.3309   0.3498   0.3620   0.3680
     0.3760   0.3902   0.3982   0.4035   0.4066   0.4140   0.4197   0.4258
     0.4334   0.4421   0.4621   0.4668   0.4762   0.4842   0.4918   0.4926
     0.4973   0.5035   0.5104   0.5164   0.5265   0.5331   0.5375   0.5438
     0.5459   0.5639   0.5678   0.5749   0.5852   0.5993   0.6036   0.6184
     0.6246   0.6252   0.6440   0.6492   0.6545   0.6623   0.6666   0.6789
     0.6843   0.6921   0.7018   0.7083   0.7140   0.7306   0.7334   0.7439
     0.7490   0.7606   0.7682   0.7701   0.7766   0.7937   0.8024   0.8118
     0.8142   0.8247   0.8391   0.8571   0.8663   0.8683   0.8698   0.8733
     0.8844   0.8888   0.9066   0.9106   0.9195   0.9543   0.9875   0.9958
     1.0187   1.0486   1.0917   1.1138   1.1246   1.6780   1.7368   1.7493
     1.7706   1.7900   1.8014   1.8173   1.8286   1.8442   1.9061   1.9214
     1.9400   1.9701   1.9900   2.0103   2.0442   2.0469   2.0958   2.1073
     2.1336   2.1454   2.1471   2.1823   2.1917   2.1990   2.2066   2.2342
     2.2696   2.2780   2.2962   2.3058   2.3148   2.3245   2.3325   2.3519
     2.3736   2.3797   2.3940   2.3960   2.4178   2.4209   2.4333   2.4976
     2.5051   2.5323   2.5370   2.5418   2.5520   2.5682   2.5901   2.5989
     2.6245   2.6819   2.7073   2.7214   2.7505   2.8036   2.8083   2.8682
     2.8777   2.9543   3.6742   3.7093   3.7227   3.7599   3.7851   3.7996
     3.8654   3.9071   3.9343   3.9611   3.9715   3.9841   4.0027   4.0160
     4.0552   4.0610   4.1461   4.1492   4.1598   4.1816   4.6590   4.6897
     4.7916   4.8290   4.8637   4.9041   4.9221   4.9636   5.0418   5.0974
     5.1181   5.1480   5.4299   6.2444   6.3760   6.6128   6.6612   6.7566
     6.8497   6.8643   6.8911   6.9670   6.9895   7.0688   7.1181   7.1335
     7.2664   7.3502   7.3530   7.4210   7.4820   7.5431   7.5733   7.6298
     7.6611   7.6689   7.7424   7.7690   7.7961   7.8597   7.8942   7.9644
     8.0007   8.0463   8.0535   8.0915   8.1092   8.1599   8.1742   8.2110
     8.2462   8.2866   8.3036   8.3332   8.4038   8.4280   8.4287   8.4535
     8.4634   8.4799   8.4961   8.5383   8.5546   8.5733   8.5985   8.6232
     8.6723   8.7077   8.7243   8.7569   8.7689   8.7805   8.8383   8.8418

     the Fermi energy is     1.6617 ev

!    total energy              =   -7738.31798745 Ry
     estimated scf accuracy    <       0.00000064 Ry
     smearing contrib. (-TS)   =      -0.02309027 Ry
     internal energy E=F+TS    =   -7738.29489718 Ry

     The total energy is F=E-TS. E is the sum of the following terms:
     one-electron contribution =  -94759.95989277 Ry
     hartree contribution      =   47997.24598741 Ry
     xc contribution           =   -2218.69937671 Ry
     ewald contribution        =   41244.92573460 Ry
     Dispersion Correction     =      -1.80740723 Ry
     electric field correction =       0.00005752 Ry

     total magnetization       =    88.48 Bohr mag/cell
     absolute magnetization    =    89.85 Bohr mag/cell

     convergence has been achieved in  56 iterations

     negative rho (up, down):  1.052E-03 5.888E-04

     Forces acting on atoms (cartesian axes, Ry/au):

     atom    1 type  1   force =    -0.00046216    0.00001390    0.00042111
     atom    2 type  2   force =    -0.00009760   -0.00033241    0.00036526
     atom    3 type  1   force =    -0.00026554    0.00050849   -0.00008177
     atom    4 type  1   force =     0.00001948    0.00037135   -0.00018085
     atom    5 type  1   force =    -0.00006213    0.00007581   -0.00023692
     atom    6 type  1   force =     0.00043753    0.00029360   -0.00013315
     atom    7 type  3   force =    -0.00018558    0.00023240   -0.00002137
     atom    8 type  3   force =    -0.00012455   -0.00011029   -0.00010601
     atom    9 type  3   force =     0.00038366   -0.00002488   -0.00012561
     atom   10 type  3   force =     0.00008257    0.00019493    0.00015967
     atom   11 type  4   force =     0.00070802   -0.00013024    0.00026130
     atom   12 type  4   force =    -0.00049068   -0.00023089    0.00008053
     atom   13 type  4   force =    -0.00009830    0.00013042   -0.00040068
     atom   14 type  4   force =    -0.00060473   -0.00024636    0.00010961
     atom   15 type  4   force =     0.00024556   -0.00025802    0.00002806
     atom   16 type  4   force =    -0.00035228   -0.00028004    0.00004226
     atom   17 type  4   force =    -0.00053828   -0.00013483    0.00030954
     atom   18 type  4   force =     0.00006188    0.00004249    0.00040652
     atom   19 type  4   force =     0.00002516    0.00025351    0.00008245
     atom   20 type  4   force =    -0.00037834   -0.00008306   -0.00001123
     atom   21 type  4   force =     0.00028932    0.00012971    0.00002813
     atom   22 type  4   force =     0.00012846    0.00013013   -0.00052611
     atom   23 type  4   force =    -0.00033435   -0.00002529   -0.00009011
     atom   24 type  4   force =     0.00040325    0.00026331    0.00004828
     atom   25 type  4   force =    -0.00018671    0.00040670   -0.00001561
     atom   26 type  4   force =    -0.00043957    0.00003833   -0.00003670
     atom   27 type  1   force =    -0.00662128   -0.00696736   -0.00153335
     atom   28 type  2   force =    -0.01233940   -0.00018103   -0.00132574
     atom   29 type  1   force =     0.00353006   -0.00403244   -0.00036537
     atom   30 type  1   force =     0.00240499    0.00411044   -0.00144954
     atom   31 type  1   force =     0.00151138   -0.00485627    0.00002339
     atom   32 type  1   force =    -0.00103426    0.00135342    0.00214334
     atom   33 type  3   force =    -0.00698049   -0.00096062    0.00006419
     atom   34 type  3   force =    -0.00715917    0.00451544   -0.00254028
     atom   35 type  3   force =     0.00391637   -0.00257471   -0.00369535
     atom   36 type  3   force =     0.00121679   -0.00123375    0.00294912
     atom   37 type  4   force =     0.00859289    0.00533893   -0.00783420
     atom   38 type  4   force =     0.00448052   -0.00225985    0.01980914
     atom   39 type  4   force =    -0.00117358    0.00405103    0.01042038
     atom   40 type  4   force =    -0.00165134   -0.00236421   -0.00889167
     atom   41 type  4   force =     0.00196536    0.00837606    0.00625707
     atom   42 type  4   force =    -0.00573248   -0.00285760   -0.01991425
     atom   43 type  4   force =     0.01043391    0.00693624   -0.00677014
     atom   44 type  4   force =     0.00728896   -0.00310133    0.00595327
     atom   45 type  4   force =     0.00222653    0.00587974   -0.00063485
     atom   46 type  4   force =     0.00353602    0.00196358    0.00461812
     atom   47 type  4   force =    -0.01326226    0.00015813    0.00327600
     atom   48 type  4   force =    -0.01465671    0.00272954   -0.00309085
     atom   49 type  4   force =     0.01247534    0.00250321   -0.00465520
     atom   50 type  4   force =    -0.00385335   -0.00427460    0.00000925
     atom   51 type  4   force =    -0.00450260    0.00283964   -0.00068803
     atom   52 type  4   force =     0.01640465   -0.00321755    0.00405355
     atom   53 type  1   force =    -0.00748708   -0.00723647   -0.00857888
     atom   54 type  2   force =     0.01577585    0.01711419   -0.01011157
     atom   55 type  1   force =     0.00583666   -0.00470544   -0.00597389
     atom   56 type  1   force =    -0.02057274    0.01938116    0.01967881
     atom   57 type  1   force =     0.00449990   -0.00768011   -0.00176538
     atom   58 type  1   force =    -0.00391210   -0.00534423   -0.00121861
     atom   59 type  3   force =    -0.03899262   -0.03829927   -0.05612248
     atom   60 type  3   force =    -0.00478359   -0.00133765   -0.00112074
     atom   61 type  3   force =     0.00271983   -0.00092834   -0.01014787
     atom   62 type  3   force =     0.02909159   -0.04951450   -0.06061379
     atom   63 type  4   force =     0.00625052    0.00343186    0.02105328
     atom   64 type  4   force =     0.00438061    0.00244138    0.01456695
     atom   65 type  4   force =    -0.00064385    0.00296317    0.01265263
     atom   66 type  4   force =     0.00017878    0.00211800    0.01622663
     atom   67 type  4   force =     0.00106938   -0.00064520    0.03912022
     atom   68 type  4   force =    -0.00577486   -0.00386597   -0.01720484
     atom   69 type  4   force =     0.00786422    0.00454502   -0.00251390
     atom   70 type  4   force =     0.00176140   -0.00737829    0.03534691
     atom   71 type  4   force =    -0.00909325    0.03918918    0.00092199
     atom   72 type  4   force =     0.00234232   -0.00065777    0.00793257
     atom   73 type  4   force =    -0.03013332    0.00089819    0.00761560
     atom   74 type  4   force =    -0.01361510    0.00140510   -0.00043050
     atom   75 type  4   force =     0.01210405    0.00352424   -0.00251665
     atom   76 type  4   force =    -0.00243495   -0.00294073    0.00255749
     atom   77 type  4   force =     0.00914554    0.02580946   -0.00259505
     atom   78 type  4   force =     0.03354673   -0.00639816    0.00616249
     atom   79 type  1   force =    -0.00018033    0.00063010    0.00014068
     atom   80 type  2   force =    -0.00001797   -0.00020785   -0.00020588
     atom   81 type  1   force =    -0.00002666    0.00033980   -0.00041395
     atom   82 type  1   force =    -0.00006906    0.00013338   -0.00017603
     atom   83 type  1   force =    -0.00053966    0.00001286   -0.00001250
     atom   84 type  1   force =     0.00016544    0.00020972    0.00053293
     atom   85 type  3   force =    -0.00024045    0.00054661    0.00027268
     atom   86 type  3   force =     0.00020682   -0.00005834   -0.00029941
     atom   87 type  3   force =    -0.00010892    0.00024218   -0.00020055
     atom   88 type  3   force =     0.00010233    0.00045656    0.00010750
     atom   89 type  4   force =    -0.00004779   -0.00048367   -0.00002772
     atom   90 type  4   force =     0.00006033    0.00060150    0.00044738
     atom   91 type  4   force =     0.00027327    0.00003428   -0.00014279
     atom   92 type  4   force =    -0.00058757    0.00000180    0.00002694
     atom   93 type  4   force =     0.00037568   -0.00027865    0.00026938
     atom   94 type  4   force =     0.00002783    0.00011011    0.00082164
     atom   95 type  4   force =    -0.00026294   -0.00004353   -0.00018749
     atom   96 type  4   force =    -0.00006428    0.00003530    0.00007169
     atom   97 type  4   force =    -0.00017103    0.00044650   -0.00017246
     atom   98 type  4   force =     0.00008605   -0.00028145    0.00008609
     atom   99 type  4   force =     0.00001440   -0.00006012   -0.00043377
     atom  100 type  4   force =     0.00036933    0.00053110   -0.00037035
     atom  101 type  4   force =     0.00018686   -0.00008714   -0.00021594
     atom  102 type  4   force =     0.00033354    0.00026947    0.00030426
     atom  103 type  4   force =    -0.00038855    0.00039375   -0.00050366
     atom  104 type  4   force =    -0.00047904    0.00052750    0.00012151
     atom  105 type  1   force =    -0.00627234   -0.00853192   -0.00281330
     atom  106 type  2   force =    -0.01195665   -0.00000366   -0.00151651
     atom  107 type  1   force =     0.00319119   -0.00425388   -0.00053655
     atom  108 type  1   force =     0.00234120    0.00409706   -0.00155571
     atom  109 type  1   force =     0.00205039   -0.00488878   -0.00015588
     atom  110 type  1   force =    -0.00118160    0.00117553    0.00204523
     atom  111 type  3   force =    -0.00716628   -0.00083503   -0.00044361
     atom  112 type  3   force =    -0.00604675    0.00388965   -0.00147338
     atom  113 type  3   force =     0.00354392   -0.00104567   -0.00518777
     atom  114 type  3   force =     0.00106331   -0.00120560    0.00291847
     atom  115 type  4   force =     0.00876337    0.00501847   -0.00754955
     atom  116 type  4   force =     0.00355446   -0.00120405    0.02023089
     atom  117 type  4   force =    -0.00118079    0.00380587    0.01082201
     atom  118 type  4   force =    -0.00150530   -0.00243116   -0.00894084
     atom  119 type  4   force =     0.00212623    0.00845978    0.00628246
     atom  120 type  4   force =    -0.00548073   -0.00235055   -0.01753630
     atom  121 type  4   force =     0.01115470    0.00648756   -0.00731924
     atom  122 type  4   force =     0.00714366   -0.00311548    0.00593183
     atom  123 type  4   force =     0.00220985    0.00591519   -0.00062169
     atom  124 type  4   force =     0.00306188    0.00105123    0.00555964
     atom  125 type  4   force =    -0.01323457    0.00020589    0.00333114
     atom  126 type  4   force =    -0.01416620    0.00242344   -0.00304026
     atom  127 type  4   force =     0.01311554    0.00281130   -0.00483620
     atom  128 type  4   force =    -0.00414523   -0.00434427    0.00000902
     atom  129 type  4   force =    -0.00435471    0.00279178   -0.00058629
     atom  130 type  4   force =     0.01653904   -0.00321175    0.00420458
     atom  131 type  1   force =    -0.00757967   -0.00715452   -0.00860253
     atom  132 type  2   force =     0.01572563    0.01708813   -0.01007733
     atom  133 type  1   force =     0.00584382   -0.00471101   -0.00597717
     atom  134 type  1   force =    -0.02058458    0.01937456    0.01968270
     atom  135 type  1   force =     0.00446344   -0.00767281   -0.00175251
     atom  136 type  1   force =    -0.00391077   -0.00533254   -0.00120919
     atom  137 type  3   force =    -0.03902324   -0.03834463   -0.05607259
     atom  138 type  3   force =    -0.00494991   -0.00126583   -0.00117789
     atom  139 type  3   force =     0.00273258   -0.00101393   -0.01014747
     atom  140 type  3   force =     0.02910166   -0.04951670   -0.06060977
     atom  141 type  4   force =     0.00617411    0.00347597    0.02106367
     atom  142 type  4   force =     0.00442712    0.00233351    0.01451937
     atom  143 type  4   force =    -0.00055593    0.00288266    0.01267920
     atom  144 type  4   force =     0.00021643    0.00220304    0.01642498
     atom  145 type  4   force =     0.00122091   -0.00064492    0.03909901
     atom  146 type  4   force =    -0.00548428   -0.00390358   -0.01713505
     atom  147 type  4   force =     0.00786120    0.00460932   -0.00266682
     atom  148 type  4   force =     0.00165245   -0.00741522    0.03539955
     atom  149 type  4   force =    -0.00931384    0.03918850    0.00092518
     atom  150 type  4   force =     0.00214125   -0.00057220    0.00792538
     atom  151 type  4   force =    -0.03001641    0.00089805    0.00761511
     atom  152 type  4   force =    -0.01372599    0.00142860   -0.00043868
     atom  153 type  4   force =     0.01216268    0.00360019   -0.00254385
     atom  154 type  4   force =    -0.00245828   -0.00284506    0.00248760
     atom  155 type  4   force =     0.00904425    0.02585355   -0.00265594
     atom  156 type  4   force =     0.03353943   -0.00620233    0.00598768
     atom  157 type  4   force =    -0.00927102   -0.00676151    0.00361349
     atom  158 type  5   force =     0.01007688    0.00669632   -0.00290454

     Total force =     0.237624     Total SCF correction =     0.003545
 
     init_run     :      7.56s CPU      8.29s WALL (       1 calls)
     electrons    :    777.82s CPU    817.43s WALL (       1 calls)
     forces       :      3.62s CPU      4.01s WALL (       1 calls)
     force_london :      0.10s CPU      0.10s WALL (       1 calls)

     Called by init_run:
     wfcinit      :      4.42s CPU      4.62s WALL (       1 calls)
     potinit      :      0.66s CPU      0.92s WALL (       1 calls)
     hinit0       :      1.20s CPU      1.29s WALL (       1 calls)

     Called by electrons:
     c_bands      :    620.01s CPU    641.71s WALL (      56 calls)
     sum_band     :     97.67s CPU    106.75s WALL (      56 calls)
     v_of_rho     :     14.32s CPU     15.96s WALL (      57 calls)
     newd         :     29.46s CPU     36.68s WALL (      57 calls)
     mix_rho      :     16.07s CPU     16.15s WALL (      56 calls)
     energy_londo :      0.08s CPU      0.08s WALL (       1 calls)

     Called by c_bands:
     init_us_2    :      1.75s CPU      1.81s WALL (     228 calls)
     init_us_2:cp :      1.75s CPU      1.81s WALL (     228 calls)
     regterg      :    607.79s CPU    629.31s WALL (     114 calls)

     Called by *egterg:
     rdiaghg      :    184.67s CPU    196.04s WALL (     549 calls)
     h_psi        :    227.50s CPU    231.92s WALL (     551 calls)
     s_psi        :     42.56s CPU     42.61s WALL (     551 calls)
     g_psi        :      0.30s CPU      0.31s WALL (     435 calls)

     Called by h_psi:
     h_psi:calbec :     58.83s CPU     62.24s WALL (     551 calls)
     vloc_psi     :    125.23s CPU    125.77s WALL (     551 calls)
     add_vuspsi   :     42.85s CPU     43.31s WALL (     551 calls)

     General routines
     calbec       :     85.86s CPU     90.93s WALL (     671 calls)
     fft          :     14.21s CPU     16.49s WALL (    1039 calls)
     ffts         :      9.65s CPU      9.68s WALL (    6935 calls)
     fftw         :    140.35s CPU    140.94s WALL (  193876 calls)
     interpolate  :      1.01s CPU      1.23s WALL (     114 calls)
 
     Parallel routines
 
     PWSCF        :  13m11.40s CPU  13m52.42s WALL

 
   This run was terminated on:   0:56:45  18Nov2025            

=------------------------------------------------------------------------------=
   JOB DONE.
=------------------------------------------------------------------------------=
