
     Program PWSCF v.7.2 starts on 17Nov2025 at 23: 1:17 

     This program is part of the open-source Quantum ESPRESSO suite
     for quantum simulation of materials; please cite
         "P. Giannozzi et al., J. Phys.:Condens. Matter 21 395502 (2009);
         "P. Giannozzi et al., J. Phys.:Condens. Matter 29 465901 (2017);
         "P. Giannozzi et al., J. Chem. Phys. 152 154105 (2020);
          URL http://www.quantum-espresso.org", 
     in publications or presentations arising from this work. More details at
     http://www.quantum-espresso.org/quote

     Parallel version (MPI), running on    64 processors

     MPI processes distributed on     4 nodes
     447634 MiB available memory on the printing compute node when the environment starts
 
     Reading input from PWINPUT_atm157_zp

     Current dimensions of program PWSCF are:
     Max number of different atomic species (ntypx) = 10
     Max number of k-points (npk) =  40000
     Max angular momentum in pseudopotentials (lmaxx) =  4
     Presently no symmetry can be used with electric field

     file Ni.pbe-n-rrkjus_psl.1.0.0.UPF: wavefunction(s)  3D renormalized
     file Mn.pbe-spn-rrkjus_psl.0.3.1.UPF: wavefunction(s)  3D renormalized
     file O.pbe-rrkjus.UPF: wavefunction(s)  2S renormalized
     file H.pbe-rrkjus.UPF: wavefunction(s)  1S renormalized

     gamma-point specific algorithms are used
 
     R & G space division:  proc/nbgrp/npool/nimage =      64
     Subspace diagonalization in iterative solution of the eigenvalue problem:
     one sub-group per band group will be used
     custom distributed-memory algorithm (size of sub-group:  7*  7 procs)

 
     Parallelization info
     --------------------
     sticks:   dense  smooth     PW     G-vecs:    dense   smooth      PW
     Min         207      82     20                60552    15302    1896
     Max         210      84     22                60574    15336    1950
     Sum       13325    5345   1333              3876045   980655  122653
 
     Using Slab Decomposition
 


     bravais-lattice index     =            0
     lattice parameter (alat)  =      17.4067  a.u.
     unit-cell volume          =   20529.8182 (a.u.)^3
     number of atoms/cell      =          158
     number of atomic types    =            5
     number of electrons       =      1093.00
     number of Kohn-Sham states=          656
     kinetic-energy cutoff     =      50.0000  Ry
     charge density cutoff     =     500.0000  Ry
     scf convergence threshold =      1.0E-06
     mixing beta               =       0.1000
     number of iterations used =            8  local-TF  mixing
     Exchange-correlation=  SLA  PW   PBE  PBE
                           (   1   4   3   4   0   0   0)

     celldm(1)=  17.406729  celldm(2)=   0.000000  celldm(3)=   0.000000
     celldm(4)=   0.000000  celldm(5)=   0.000000  celldm(6)=   0.000000

     crystal axes: (cart. coord. in units of alat)
               a(1) = (   1.000000   0.000000   0.000000 )  
               a(2) = (  -0.001404   1.105696   0.000000 )  
               a(3) = (   0.000000   0.000000   3.520448 )  

     reciprocal axes: (cart. coord. in units 2 pi/alat)
               b(1) = (  1.000000  0.001270  0.000000 )  
               b(2) = (  0.000000  0.904408  0.000000 )  
               b(3) = (  0.000000  0.000000  0.284055 )  


     PseudoPot. # 1 for Ni read from file:
     ~/PSEUDO/Ni.pbe-n-rrkjus_psl.1.0.0.UPF
     MD5 check sum: Not computed, couldn't open file
     Pseudo is Ultrasoft + core correction, Zval = 10.0
     Generated using "atomic" code by A. Dal Corso  v.5.1.2
     Using radial grid of 1195 points,  6 beta functions with: 
                l(1) =   0
                l(2) =   0
                l(3) =   1
                l(4) =   1
                l(5) =   2
                l(6) =   2
     Q(r) pseudized with 0 coefficients 


     PseudoPot. # 2 for Mn read from file:
     ~/PSEUDO/Mn.pbe-spn-rrkjus_psl.0.3.1.UPF
     MD5 check sum: Not computed, couldn't open file
     Pseudo is Ultrasoft + core correction, Zval = 15.0
     Generated using &quot;atomic&quot; code by A. Dal Corso  v.6.2.2
     Using radial grid of 1187 points,  6 beta functions with: 
                l(1) =   0
                l(2) =   0
                l(3) =   1
                l(4) =   1
                l(5) =   2
                l(6) =   2
     Q(r) pseudized with 0 coefficients 


     PseudoPot. # 3 for P  read from file:
     ~/PSEUDO/P.pbe-n-rrkjus_psl.1.0.0.UPF
     MD5 check sum: Not computed, couldn't open file
     Pseudo is Ultrasoft + core correction, Zval =  5.0
     Generated using "atomic" code by A. Dal Corso  v.5.1
     Using radial grid of 1147 points,  6 beta functions with: 
                l(1) =   0
                l(2) =   0
                l(3) =   1
                l(4) =   1
                l(5) =   2
                l(6) =   2
     Q(r) pseudized with 0 coefficients 


     PseudoPot. # 4 for O  read from file:
     ~/PSEUDO/O.pbe-rrkjus.UPF
     MD5 check sum: Not computed, couldn't open file
     Pseudo is Ultrasoft, Zval =  6.0
     Generated by new atomic code, or converted to UPF format
     Using radial grid of 1269 points,  4 beta functions with: 
                l(1) =   0
                l(2) =   0
                l(3) =   1
                l(4) =   1
     Q(r) pseudized with 0 coefficients 


     PseudoPot. # 5 for H  read from file:
     ~/PSEUDO/H.pbe-rrkjus.UPF
     MD5 check sum: Not computed, couldn't open file
     Pseudo is Ultrasoft, Zval =  1.0
     Generated by new atomic code, or converted to UPF format
     Using radial grid of 1061 points,  2 beta functions with: 
                l(1) =   0
                l(2) =   0
     Q(r) pseudized with 0 coefficients 


     atomic species   valence    mass     pseudopotential
     Ni               10.00    58.69300     Ni( 1.00)
     Mn               15.00    54.93800     Mn( 1.00)
     P                 5.00    30.97300     P ( 1.00)
     O                 6.00    15.99900     O ( 1.00)
     H                 1.00     1.00790     H ( 1.00)

     Starting magnetic structure 
     atomic species   magnetization
     Ni              1.000
     Mn              1.000
     P               1.000
     O               1.000
     H               0.000

     No symmetry found



   Cartesian axes

     site n.     atom                  positions (alat units)
         1        Ni     tau(   1) = (   0.2407247   0.8678666   1.7788468  )
         2        Mn     tau(   2) = (   0.4849050   0.7928704   1.4298720  )
         3        Ni     tau(   3) = (  -0.0015463   0.3040756   1.7427651  )
         4        Ni     tau(   4) = (   0.2576988   0.2438884   1.4304882  )
         5        Ni     tau(   5) = (   0.4960089   1.1079636   1.5969794  )
         6        Ni     tau(   6) = (   0.2509439   0.5529914   1.6014984  )
         7        P      tau(   7) = (   0.2089048   1.0013970   1.4343524  )
         8        P      tau(   8) = (   0.4624796   0.6667191   1.7615344  )
         9        P      tau(   9) = (   0.2870509   0.1160398   1.7607833  )
        10        P      tau(  10) = (   0.0409376   0.4429602   1.4308127  )
        11        O      tau(  11) = (   0.1352892   0.9270454   1.5724618  )
        12        O      tau(  12) = (   0.3840209   0.7294626   1.6169117  )
        13        O      tau(  13) = (   0.3651818   0.1791486   1.6110775  )
        14        O      tau(  14) = (   0.1191348   0.3726454   1.5703673  )
        15        O      tau(  15) = (   0.1507888   0.9120623   1.3039965  )
        16        O      tau(  16) = (   0.4052423   0.7648049   1.8817709  )
        17        O      tau(  17) = (   0.3458822   0.2189915   1.8759922  )
        18        O      tau(  18) = (   0.1009621   0.3550841   1.3013183  )
        19        O      tau(  19) = (   0.0995916   0.6017289   1.4364553  )
        20        O      tau(  20) = (   0.3468601   1.0635796   1.7571918  )
        21        O      tau(  21) = (   0.3739296   0.4396566   1.4433176  )
        22        O      tau(  22) = (   0.1199364   0.1204540   1.7432983  )
        23        O      tau(  23) = (   0.1279675   0.6643683   1.7537820  )
        24        O      tau(  24) = (   0.4072413   0.5052188   1.7593813  )
        25        O      tau(  25) = (   0.1493697   0.0531357   1.4376636  )
        26        O      tau(  26) = (   0.3761102   0.9942916   1.4433476  )
        27        Ni     tau(  27) = (   0.2413539   0.8509941   1.1121345  )
        28        Mn     tau(  28) = (   0.4917018   0.7787406   0.7768134  )
        29        Ni     tau(  29) = (   0.0044877   0.2932623   1.1138982  )
        30        Ni     tau(  30) = (   0.2563139   0.2275682   0.7805625  )
        31        Ni     tau(  31) = (   0.4969120   1.0949007   0.9459116  )
        32        Ni     tau(  32) = (   0.2488318   0.5341111   0.9469721  )
        33        P      tau(  33) = (   0.2076029   0.9882917   0.7835381  )
        34        P      tau(  34) = (   0.4577012   0.6460068   1.1076436  )
        35        P      tau(  35) = (   0.2881931   0.0932770   1.1104179  )
        36        P      tau(  36) = (   0.0392916   0.4238898   0.7837243  )
        37        O      tau(  37) = (   0.1306755   0.9148866   0.9233554  )
        38        O      tau(  38) = (   0.3789780   0.7172835   0.9680652  )
        39        O      tau(  39) = (   0.3654852   0.1662865   0.9702638  )
        40        O      tau(  40) = (   0.1163776   0.3546954   0.9254186  )
        41        O      tau(  41) = (   0.1502901   0.8969129   0.6541592  )
        42        O      tau(  42) = (   0.3974525   0.7354243   1.2370031  )
        43        O      tau(  43) = (   0.3483097   0.1789497   1.2412670  )
        44        O      tau(  44) = (   0.0974932   0.3376387   0.6529083  )
        45        O      tau(  45) = (   0.0984699   0.5818903   0.7881021  )
        46        O      tau(  46) = (   0.3459978   1.0405493   1.1018526  )
        47        O      tau(  47) = (   0.3731719   0.4204123   0.7945555  )
        48        O      tau(  48) = (   0.1223503   0.0989699   1.1000566  )
        49        O      tau(  49) = (   0.1235438   0.6536772   1.0980598  )
        50        O      tau(  50) = (   0.4004339   0.4872435   1.1047245  )
        51        O      tau(  51) = (   0.1476543   0.0398268   0.7872561  )
        52        O      tau(  52) = (   0.3728637   0.9843360   0.7931368  )
        53        Ni     tau(  53) = (   0.2406075   0.8410745   0.4603118  )
        54        Mn     tau(  54) = (   0.4909555   0.7688210   0.1249907  )
        55        Ni     tau(  55) = (   0.0037414   0.2833427   0.4620755  )
        56        Ni     tau(  56) = (   0.2555676   0.2176485   0.1287398  )
        57        Ni     tau(  57) = (   0.4961657   1.0849810   0.2940889  )
        58        Ni     tau(  58) = (   0.2480854   0.5241915   0.2951494  )
        59        P      tau(  59) = (   0.2068565   0.9783721   0.1317154  )
        60        P      tau(  60) = (   0.4569549   0.6360871   0.4558210  )
        61        P      tau(  61) = (   0.2874467   0.0833574   0.4585952  )
        62        P      tau(  62) = (   0.0385452   0.4139702   0.1319017  )
        63        O      tau(  63) = (   0.1299291   0.9049669   0.2715327  )
        64        O      tau(  64) = (   0.3782317   0.7073639   0.3162425  )
        65        O      tau(  65) = (   0.3647389   0.1563669   0.3184411  )
        66        O      tau(  66) = (   0.1156313   0.3447757   0.2735959  )
        67        O      tau(  67) = (   0.1495437   0.8869933   0.0023366  )
        68        O      tau(  68) = (   0.3967062   0.7255047   0.5851804  )
        69        O      tau(  69) = (   0.3475634   0.1690300   0.5894443  )
        70        O      tau(  70) = (   0.0967469   0.3277190   0.0010856  )
        71        O      tau(  71) = (   0.0977236   0.5719706   0.1362794  )
        72        O      tau(  72) = (   0.3452514   1.0306297   0.4500300  )
        73        O      tau(  73) = (   0.3724256   0.4104926   0.1427328  )
        74        O      tau(  74) = (   0.1216040   0.0890503   0.4482339  )
        75        O      tau(  75) = (   0.1227974   0.6437575   0.4462371  )
        76        O      tau(  76) = (   0.3996875   0.4773239   0.4529018  )
        77        O      tau(  77) = (   0.1469079   0.0299071   0.1354334  )
        78        O      tau(  78) = (   0.3721173   0.9744163   0.1413141  )
        79        Ni     tau(  79) = (   0.7503448   0.8592094   1.7463632  )
        80        Mn     tau(  80) = (   0.9872971   0.7933476   1.4295363  )
        81        Ni     tau(  81) = (   0.4979646   0.3082874   1.7425819  )
        82        Ni     tau(  82) = (   0.7578558   0.2432444   1.4303909  )
        83        Ni     tau(  83) = (   0.9978877   1.1049697   1.6005729  )
        84        Ni     tau(  84) = (   0.7517688   0.5502669   1.5982123  )
        85        P      tau(  85) = (   0.7086164   1.0024684   1.4323347  )
        86        P      tau(  86) = (   0.9608587   0.6587254   1.7669171  )
        87        P      tau(  87) = (   0.7853186   0.1123438   1.7615591  )
        88        P      tau(  88) = (   0.5402593   0.4436461   1.4299959  )
        89        O      tau(  89) = (   0.6336250   0.9299726   1.5717212  )
        90        O      tau(  90) = (   0.8855214   0.7268460   1.6205628  )
        91        O      tau(  91) = (   0.8638479   0.1737568   1.6123671  )
        92        O      tau(  92) = (   0.6187851   0.3726638   1.5694972  )
        93        O      tau(  93) = (   0.6499804   0.9114421   1.3038010  )
        94        O      tau(  94) = (   0.8956097   0.7537924   1.8860885  )
        95        O      tau(  95) = (   0.8474504   0.2119799   1.8776314  )
        96        O      tau(  96) = (   0.6006963   0.3549684   1.3012062  )
        97        O      tau(  97) = (   0.6002576   0.6021520   1.4346509  )
        98        O      tau(  98) = (   0.8385044   1.0568597   1.7610063  )
        99        O      tau(  99) = (   0.8744145   0.4373900   1.4436920  )
       100        O      tau( 100) = (   0.6180356   0.1193672   1.7459243  )
       101        O      tau( 101) = (   0.6301005   0.6707638   1.7450210  )
       102        O      tau( 102) = (   0.9037180   0.4985801   1.7585357  )
       103        O      tau( 103) = (   0.6488284   0.0538192   1.4351739  )
       104        O      tau( 104) = (   0.8752493   0.9934614   1.4449032  )
       105        Ni     tau( 105) = (   0.7413539   0.8509941   1.1121345  )
       106        Mn     tau( 106) = (   0.9917018   0.7787406   0.7768134  )
       107        Ni     tau( 107) = (   0.5044877   0.2932623   1.1138982  )
       108        Ni     tau( 108) = (   0.7563139   0.2275682   0.7805625  )
       109        Ni     tau( 109) = (   0.9969120   1.0949007   0.9459116  )
       110        Ni     tau( 110) = (   0.7488318   0.5341111   0.9469721  )
       111        P      tau( 111) = (   0.7076029   0.9882917   0.7835381  )
       112        P      tau( 112) = (   0.9577012   0.6460068   1.1076436  )
       113        P      tau( 113) = (   0.7881931   0.0932770   1.1104179  )
       114        P      tau( 114) = (   0.5392916   0.4238898   0.7837243  )
       115        O      tau( 115) = (   0.6306755   0.9148866   0.9233554  )
       116        O      tau( 116) = (   0.8789780   0.7172835   0.9680652  )
       117        O      tau( 117) = (   0.8654852   0.1662865   0.9702638  )
       118        O      tau( 118) = (   0.6163776   0.3546954   0.9254186  )
       119        O      tau( 119) = (   0.6502901   0.8969129   0.6541592  )
       120        O      tau( 120) = (   0.8974525   0.7354243   1.2370031  )
       121        O      tau( 121) = (   0.8483097   0.1789497   1.2412670  )
       122        O      tau( 122) = (   0.5974932   0.3376387   0.6529083  )
       123        O      tau( 123) = (   0.5984699   0.5818903   0.7881021  )
       124        O      tau( 124) = (   0.8459978   1.0405493   1.1018526  )
       125        O      tau( 125) = (   0.8731719   0.4204123   0.7945555  )
       126        O      tau( 126) = (   0.6223503   0.0989699   1.1000566  )
       127        O      tau( 127) = (   0.6235438   0.6536772   1.0980598  )
       128        O      tau( 128) = (   0.9004339   0.4872435   1.1047245  )
       129        O      tau( 129) = (   0.6476543   0.0398268   0.7872561  )
       130        O      tau( 130) = (   0.8728637   0.9843360   0.7931368  )
       131        Ni     tau( 131) = (   0.7406075   0.8410745   0.4603118  )
       132        Mn     tau( 132) = (   0.9909555   0.7688210   0.1249907  )
       133        Ni     tau( 133) = (   0.5037414   0.2833427   0.4620755  )
       134        Ni     tau( 134) = (   0.7555676   0.2176485   0.1287398  )
       135        Ni     tau( 135) = (   0.9961657   1.0849810   0.2940889  )
       136        Ni     tau( 136) = (   0.7480854   0.5241915   0.2951494  )
       137        P      tau( 137) = (   0.7068565   0.9783721   0.1317154  )
       138        P      tau( 138) = (   0.9569549   0.6360871   0.4558210  )
       139        P      tau( 139) = (   0.7874467   0.0833574   0.4585952  )
       140        P      tau( 140) = (   0.5385452   0.4139702   0.1319017  )
       141        O      tau( 141) = (   0.6299291   0.9049669   0.2715327  )
       142        O      tau( 142) = (   0.8782317   0.7073639   0.3162425  )
       143        O      tau( 143) = (   0.8647389   0.1563669   0.3184411  )
       144        O      tau( 144) = (   0.6156313   0.3447757   0.2735959  )
       145        O      tau( 145) = (   0.6495437   0.8869933   0.0023366  )
       146        O      tau( 146) = (   0.8967062   0.7255047   0.5851804  )
       147        O      tau( 147) = (   0.8475634   0.1690300   0.5894443  )
       148        O      tau( 148) = (   0.5967469   0.3277190   0.0010856  )
       149        O      tau( 149) = (   0.5977236   0.5719706   0.1362794  )
       150        O      tau( 150) = (   0.8452514   1.0306297   0.4500300  )
       151        O      tau( 151) = (   0.8724256   0.4104926   0.1427328  )
       152        O      tau( 152) = (   0.6216040   0.0890503   0.4482339  )
       153        O      tau( 153) = (   0.6227974   0.6437575   0.4462371  )
       154        O      tau( 154) = (   0.8996875   0.4773239   0.4529018  )
       155        O      tau( 155) = (   0.6469079   0.0299071   0.1354334  )
       156        O      tau( 156) = (   0.8721173   0.9744163   0.1413141  )
       157        O      tau( 157) = (   1.1200851   0.9534950   1.9097525  )
       158        H      tau( 158) = (   1.0374101   0.8901699   1.9356829  )

     -------------------------------------------------
     Parameters for Dispersion (Grimme-D2) Correction:
     -------------------------------------------------
       atom      VdW radius       C_6     

        Ni         2.952        374.666
        Mn         2.952        374.666
        P          3.222        271.980
        O          2.536         24.284
        H          1.892          4.857

     number of k points=     1  Gaussian smearing, width (Ry)=  0.0100
                       cart. coord. in units 2pi/alat
        k(    1) = (   0.0000000   0.0000000   0.0000000), wk =   1.0000000

     Dense  grid:  1938023 G-vectors     FFT dimensions: ( 125, 144, 450)

     Smooth grid:   490328 G-vectors     FFT dimensions: (  80,  90, 288)

     Estimated max dynamical RAM per process >     326.29 MB

     Estimated total dynamical RAM >      20.39 GB

     Check: negative core charge=   -0.000001
     Generating pointlists ...
     new r_m :   0.0815 (alat units)  1.4184 (a.u.) for type    1
     new r_m :   0.0905 (alat units)  1.5755 (a.u.) for type    2
     new r_m :   0.0681 (alat units)  1.1855 (a.u.) for type    3
     new r_m :   0.0443 (alat units)  0.7706 (a.u.) for type    4
     new r_m :   0.0443 (alat units)  0.7706 (a.u.) for type    5

     Initial potential from superposition of free atoms

     starting charge    1092.8893, renormalised to    1093.0000

     negative rho (up, down):  1.397E-03 4.551E-04
 
     Adding external electric field

     Computed dipole along edir(3) : 
        Dipole                1.6517 Ry au,          4.1982 Debye
        Dipole field          0.0010 Ry au, 
 
        Potential amp.       -0.1115 Ry
        Total length         55.1515 bohr
 
 
     Adding external electric field

     Computed dipole along edir(3) : 
        Dipole                1.6517 Ry au,          4.1982 Debye
        Dipole field          0.0010 Ry au, 
 
        Potential amp.       -0.1115 Ry
        Total length         55.1515 bohr
 
     Starting wfcs are  815 randomized atomic wfcs

     total cpu time spent up to now is       11.4 secs

     Self-consistent Calculation

     iteration #  1     ecut=    50.00 Ry     beta= 0.10
     Davidson diagonalization with overlap
     ethr =  1.00E-02,  avg # of iterations =  6.0

     negative rho (up, down):  3.820E-01 3.035E-06
 
     Adding external electric field

     Computed dipole along edir(3) : 
        Dipole               -3.7348 Ry au,         -9.4930 Debye
        Dipole field         -0.0023 Ry au, 
 
        Potential amp.        0.2522 Ry
        Total length         55.1515 bohr
 
 
     Adding external electric field

     Computed dipole along edir(3) : 
        Dipole               -3.7348 Ry au,         -9.4930 Debye
        Dipole field         -0.0023 Ry au, 
 
        Potential amp.        0.2522 Ry
        Total length         55.1515 bohr
 

     total cpu time spent up to now is       39.8 secs

     total energy              =   -7517.91726623 Ry
     estimated scf accuracy    <     796.96853478 Ry

     total magnetization       =   219.00 Bohr mag/cell
     absolute magnetization    =   307.71 Bohr mag/cell

     iteration #  2     ecut=    50.00 Ry     beta= 0.10
     Davidson diagonalization with overlap
     ethr =  1.00E-02,  avg # of iterations =  2.0

     negative rho (up, down):  3.615E-01 1.795E-06
 
     Adding external electric field

     Computed dipole along edir(3) : 
        Dipole               -2.4881 Ry au,         -6.3241 Debye
        Dipole field         -0.0015 Ry au, 
 
        Potential amp.        0.1680 Ry
        Total length         55.1515 bohr
 
 
     Adding external electric field

     Computed dipole along edir(3) : 
        Dipole               -2.4881 Ry au,         -6.3241 Debye
        Dipole field         -0.0015 Ry au, 
 
        Potential amp.        0.1680 Ry
        Total length         55.1515 bohr
 

     total cpu time spent up to now is       55.9 secs

     total energy              =   -7600.47600685 Ry
     estimated scf accuracy    <     219.85875897 Ry

     total magnetization       =   158.65 Bohr mag/cell
     absolute magnetization    =   207.35 Bohr mag/cell

     iteration #  3     ecut=    50.00 Ry     beta= 0.10
     Davidson diagonalization with overlap
     ethr =  1.00E-02,  avg # of iterations =  1.5

     negative rho (up, down):  3.225E-01 1.786E-06
 
     Adding external electric field

     Computed dipole along edir(3) : 
        Dipole               -2.1358 Ry au,         -5.4288 Debye
        Dipole field         -0.0013 Ry au, 
 
        Potential amp.        0.1442 Ry
        Total length         55.1515 bohr
 
 
     Adding external electric field

     Computed dipole along edir(3) : 
        Dipole               -2.1358 Ry au,         -5.4288 Debye
        Dipole field         -0.0013 Ry au, 
 
        Potential amp.        0.1442 Ry
        Total length         55.1515 bohr
 

     total cpu time spent up to now is       69.4 secs

     total energy              =   -7630.24295234 Ry
     estimated scf accuracy    <     103.76824042 Ry

     total magnetization       =   135.08 Bohr mag/cell
     absolute magnetization    =   186.03 Bohr mag/cell

     iteration #  4     ecut=    50.00 Ry     beta= 0.10
     Davidson diagonalization with overlap
     ethr =  9.49E-03,  avg # of iterations =  1.5

     negative rho (up, down):  2.545E-01 1.073E-06
 
     Adding external electric field

     Computed dipole along edir(3) : 
        Dipole               -2.0033 Ry au,         -5.0920 Debye
        Dipole field         -0.0012 Ry au, 
 
        Potential amp.        0.1353 Ry
        Total length         55.1515 bohr
 
 
     Adding external electric field

     Computed dipole along edir(3) : 
        Dipole               -2.0033 Ry au,         -5.0920 Debye
        Dipole field         -0.0012 Ry au, 
 
        Potential amp.        0.1353 Ry
        Total length         55.1515 bohr
 

     total cpu time spent up to now is       82.4 secs

     total energy              =   -7662.37681018 Ry
     estimated scf accuracy    <      82.48947189 Ry

     total magnetization       =   119.42 Bohr mag/cell
     absolute magnetization    =   171.65 Bohr mag/cell

     iteration #  5     ecut=    50.00 Ry     beta= 0.10
     Davidson diagonalization with overlap
     ethr =  7.55E-03,  avg # of iterations =  1.0

     negative rho (up, down):  4.035E-02 7.345E-07
 
     Adding external electric field

     Computed dipole along edir(3) : 
        Dipole               -1.6279 Ry au,         -4.1377 Debye
        Dipole field         -0.0010 Ry au, 
 
        Potential amp.        0.1099 Ry
        Total length         55.1515 bohr
 
 
     Adding external electric field

     Computed dipole along edir(3) : 
        Dipole               -1.6279 Ry au,         -4.1377 Debye
        Dipole field         -0.0010 Ry au, 
 
        Potential amp.        0.1099 Ry
        Total length         55.1515 bohr
 

     total cpu time spent up to now is       95.1 secs

     total energy              =   -7720.92147548 Ry
     estimated scf accuracy    <      66.34519132 Ry

     total magnetization       =    97.51 Bohr mag/cell
     absolute magnetization    =   153.17 Bohr mag/cell

     iteration #  6     ecut=    50.00 Ry     beta= 0.10
     Davidson diagonalization with overlap
     ethr =  6.07E-03,  avg # of iterations =  1.0

     negative rho (up, down):  8.163E-04 1.247E-03
 
     Adding external electric field

     Computed dipole along edir(3) : 
        Dipole               -1.2427 Ry au,         -3.1587 Debye
        Dipole field         -0.0008 Ry au, 
 
        Potential amp.        0.0839 Ry
        Total length         55.1515 bohr
 
 
     Adding external electric field

     Computed dipole along edir(3) : 
        Dipole               -1.2427 Ry au,         -3.1587 Debye
        Dipole field         -0.0008 Ry au, 
 
        Potential amp.        0.0839 Ry
        Total length         55.1515 bohr
 

     total cpu time spent up to now is      107.2 secs

     total energy              =   -7735.74684995 Ry
     estimated scf accuracy    <      16.27282080 Ry

     total magnetization       =    91.00 Bohr mag/cell
     absolute magnetization    =   126.41 Bohr mag/cell

     iteration #  7     ecut=    50.00 Ry     beta= 0.10
     Davidson diagonalization with overlap
     ethr =  1.49E-03,  avg # of iterations =  6.0

     negative rho (up, down):  7.819E-04 1.216E-03
 
     Adding external electric field

     Computed dipole along edir(3) : 
        Dipole               -1.2541 Ry au,         -3.1875 Debye
        Dipole field         -0.0008 Ry au, 
 
        Potential amp.        0.0847 Ry
        Total length         55.1515 bohr
 
 
     Adding external electric field

     Computed dipole along edir(3) : 
        Dipole               -1.2541 Ry au,         -3.1875 Debye
        Dipole field         -0.0008 Ry au, 
 
        Potential amp.        0.0847 Ry
        Total length         55.1515 bohr
 

     total cpu time spent up to now is      129.1 secs

     total energy              =   -7738.20468433 Ry
     estimated scf accuracy    <      19.59561937 Ry

     total magnetization       =    70.72 Bohr mag/cell
     absolute magnetization    =    88.34 Bohr mag/cell

     iteration #  8     ecut=    50.00 Ry     beta= 0.10
     Davidson diagonalization with overlap
     ethr =  1.49E-03,  avg # of iterations =  1.0

     negative rho (up, down):  7.132E-04 1.106E-03
 
     Adding external electric field

     Computed dipole along edir(3) : 
        Dipole               -1.2803 Ry au,         -3.2542 Debye
        Dipole field         -0.0008 Ry au, 
 
        Potential amp.        0.0864 Ry
        Total length         55.1515 bohr
 
 
     Adding external electric field

     Computed dipole along edir(3) : 
        Dipole               -1.2803 Ry au,         -3.2542 Debye
        Dipole field         -0.0008 Ry au, 
 
        Potential amp.        0.0864 Ry
        Total length         55.1515 bohr
 

     total cpu time spent up to now is      140.9 secs

     total energy              =   -7738.21298356 Ry
     estimated scf accuracy    <      18.98776427 Ry

     total magnetization       =    70.89 Bohr mag/cell
     absolute magnetization    =    87.97 Bohr mag/cell

     iteration #  9     ecut=    50.00 Ry     beta= 0.10
     Davidson diagonalization with overlap
     ethr =  1.49E-03,  avg # of iterations =  1.0

     negative rho (up, down):  3.984E-04 1.062E-03
 
     Adding external electric field

     Computed dipole along edir(3) : 
        Dipole               -1.6994 Ry au,         -4.3194 Debye
        Dipole field         -0.0010 Ry au, 
 
        Potential amp.        0.1147 Ry
        Total length         55.1515 bohr
 
 
     Adding external electric field

     Computed dipole along edir(3) : 
        Dipole               -1.6994 Ry au,         -4.3194 Debye
        Dipole field         -0.0010 Ry au, 
 
        Potential amp.        0.1147 Ry
        Total length         55.1515 bohr
 

     total cpu time spent up to now is      153.0 secs

     total energy              =   -7737.38786407 Ry
     estimated scf accuracy    <      18.16697090 Ry

     total magnetization       =    70.99 Bohr mag/cell
     absolute magnetization    =    87.61 Bohr mag/cell

     iteration # 10     ecut=    50.00 Ry     beta= 0.10
     Davidson diagonalization with overlap
     ethr =  1.49E-03,  avg # of iterations =  1.0

     negative rho (up, down):  3.889E-04 1.373E-03
 
     Adding external electric field

     Computed dipole along edir(3) : 
        Dipole               -1.7105 Ry au,         -4.3476 Debye
        Dipole field         -0.0010 Ry au, 
 
        Potential amp.        0.1155 Ry
        Total length         55.1515 bohr
 
 
     Adding external electric field

     Computed dipole along edir(3) : 
        Dipole               -1.7105 Ry au,         -4.3476 Debye
        Dipole field         -0.0010 Ry au, 
 
        Potential amp.        0.1155 Ry
        Total length         55.1515 bohr
 

     total cpu time spent up to now is      164.6 secs

     total energy              =   -7737.85797964 Ry
     estimated scf accuracy    <       1.66004813 Ry

     total magnetization       =    86.03 Bohr mag/cell
     absolute magnetization    =    97.22 Bohr mag/cell

     iteration # 11     ecut=    50.00 Ry     beta= 0.10
     Davidson diagonalization with overlap
     ethr =  1.52E-04,  avg # of iterations = 13.0

     negative rho (up, down):  1.938E-04 7.599E-04
 
     Adding external electric field

     Computed dipole along edir(3) : 
        Dipole               -1.6332 Ry au,         -4.1513 Debye
        Dipole field         -0.0010 Ry au, 
 
        Potential amp.        0.1103 Ry
        Total length         55.1515 bohr
 
 
     Adding external electric field

     Computed dipole along edir(3) : 
        Dipole               -1.6332 Ry au,         -4.1513 Debye
        Dipole field         -0.0010 Ry au, 
 
        Potential amp.        0.1103 Ry
        Total length         55.1515 bohr
 

     total cpu time spent up to now is      186.6 secs

     total energy              =   -7737.91672888 Ry
     estimated scf accuracy    <       0.69827057 Ry

     total magnetization       =    88.07 Bohr mag/cell
     absolute magnetization    =    97.84 Bohr mag/cell

     iteration # 12     ecut=    50.00 Ry     beta= 0.10
     Davidson diagonalization with overlap
     ethr =  6.39E-05,  avg # of iterations =  2.0

     negative rho (up, down):  8.184E-06 1.104E-04
 
     Adding external electric field

     Computed dipole along edir(3) : 
        Dipole               -1.4224 Ry au,         -3.6153 Debye
        Dipole field         -0.0009 Ry au, 
 
        Potential amp.        0.0960 Ry
        Total length         55.1515 bohr
 
 
     Adding external electric field

     Computed dipole along edir(3) : 
        Dipole               -1.4224 Ry au,         -3.6153 Debye
        Dipole field         -0.0009 Ry au, 
 
        Potential amp.        0.0960 Ry
        Total length         55.1515 bohr
 

     total cpu time spent up to now is      200.2 secs

     total energy              =   -7738.09860631 Ry
     estimated scf accuracy    <       1.06347283 Ry

     total magnetization       =    86.26 Bohr mag/cell
     absolute magnetization    =    95.61 Bohr mag/cell

     iteration # 13     ecut=    50.00 Ry     beta= 0.10
     Davidson diagonalization with overlap
     ethr =  6.39E-05,  avg # of iterations =  2.0

     negative rho (up, down):  7.701E-05 4.503E-04
 
     Adding external electric field

     Computed dipole along edir(3) : 
        Dipole               -1.4433 Ry au,         -3.6686 Debye
        Dipole field         -0.0009 Ry au, 
 
        Potential amp.        0.0975 Ry
        Total length         55.1515 bohr
 
 
     Adding external electric field

     Computed dipole along edir(3) : 
        Dipole               -1.4433 Ry au,         -3.6686 Debye
        Dipole field         -0.0009 Ry au, 
 
        Potential amp.        0.0975 Ry
        Total length         55.1515 bohr
 

     total cpu time spent up to now is      212.8 secs

     total energy              =   -7738.20517102 Ry
     estimated scf accuracy    <       0.62663676 Ry

     total magnetization       =    87.57 Bohr mag/cell
     absolute magnetization    =    93.83 Bohr mag/cell

     iteration # 14     ecut=    50.00 Ry     beta= 0.10
     Davidson diagonalization with overlap
     ethr =  5.73E-05,  avg # of iterations =  1.5

     negative rho (up, down):  5.160E-05 3.937E-04
 
     Adding external electric field

     Computed dipole along edir(3) : 
        Dipole               -1.3748 Ry au,         -3.4945 Debye
        Dipole field         -0.0008 Ry au, 
 
        Potential amp.        0.0928 Ry
        Total length         55.1515 bohr
 
 
     Adding external electric field

     Computed dipole along edir(3) : 
        Dipole               -1.3748 Ry au,         -3.4945 Debye
        Dipole field         -0.0008 Ry au, 
 
        Potential amp.        0.0928 Ry
        Total length         55.1515 bohr
 

     total cpu time spent up to now is      225.5 secs

     total energy              =   -7738.25268114 Ry
     estimated scf accuracy    <       0.57410438 Ry

     total magnetization       =    90.29 Bohr mag/cell
     absolute magnetization    =    94.90 Bohr mag/cell

     iteration # 15     ecut=    50.00 Ry     beta= 0.10
     Davidson diagonalization with overlap
     ethr =  5.25E-05,  avg # of iterations =  1.5

     negative rho (up, down):  6.585E-05 3.235E-04
 
     Adding external electric field

     Computed dipole along edir(3) : 
        Dipole               -1.0626 Ry au,         -2.7009 Debye
        Dipole field         -0.0007 Ry au, 
 
        Potential amp.        0.0717 Ry
        Total length         55.1515 bohr
 
 
     Adding external electric field

     Computed dipole along edir(3) : 
        Dipole               -1.0626 Ry au,         -2.7009 Debye
        Dipole field         -0.0007 Ry au, 
 
        Potential amp.        0.0717 Ry
        Total length         55.1515 bohr
 

     total cpu time spent up to now is      238.1 secs

     total energy              =   -7738.30043457 Ry
     estimated scf accuracy    <       0.45765872 Ry

     total magnetization       =    89.94 Bohr mag/cell
     absolute magnetization    =    93.92 Bohr mag/cell

     iteration # 16     ecut=    50.00 Ry     beta= 0.10
     Davidson diagonalization with overlap
     c_bands:  3 eigenvalues not converged
     ethr =  4.19E-05,  avg # of iterations = 11.0

     negative rho (up, down):  1.075E-04 2.397E-04
 
     Adding external electric field

     Computed dipole along edir(3) : 
        Dipole               -1.0559 Ry au,         -2.6837 Debye
        Dipole field         -0.0006 Ry au, 
 
        Potential amp.        0.0713 Ry
        Total length         55.1515 bohr
 
 
     Adding external electric field

     Computed dipole along edir(3) : 
        Dipole               -1.0559 Ry au,         -2.6837 Debye
        Dipole field         -0.0006 Ry au, 
 
        Potential amp.        0.0713 Ry
        Total length         55.1515 bohr
 

     total cpu time spent up to now is      256.9 secs

     total energy              =   -7738.33318579 Ry
     estimated scf accuracy    <       0.84288151 Ry

     total magnetization       =    88.03 Bohr mag/cell
     absolute magnetization    =    90.02 Bohr mag/cell

     iteration # 17     ecut=    50.00 Ry     beta= 0.10
     Davidson diagonalization with overlap
     ethr =  4.19E-05,  avg # of iterations =  1.5

     negative rho (up, down):  1.317E-04 1.234E-04
 
     Adding external electric field

     Computed dipole along edir(3) : 
        Dipole               -1.0013 Ry au,         -2.5450 Debye
        Dipole field         -0.0006 Ry au, 
 
        Potential amp.        0.0676 Ry
        Total length         55.1515 bohr
 
 
     Adding external electric field

     Computed dipole along edir(3) : 
        Dipole               -1.0013 Ry au,         -2.5450 Debye
        Dipole field         -0.0006 Ry au, 
 
        Potential amp.        0.0676 Ry
        Total length         55.1515 bohr
 

     total cpu time spent up to now is      268.9 secs

     total energy              =   -7738.33128983 Ry
     estimated scf accuracy    <       0.49030431 Ry

     total magnetization       =    88.83 Bohr mag/cell
     absolute magnetization    =    90.69 Bohr mag/cell

     iteration # 18     ecut=    50.00 Ry     beta= 0.10
     Davidson diagonalization with overlap
     ethr =  4.19E-05,  avg # of iterations =  1.5

     negative rho (up, down):  1.308E-04 4.345E-05
 
     Adding external electric field

     Computed dipole along edir(3) : 
        Dipole               -0.8934 Ry au,         -2.2707 Debye
        Dipole field         -0.0005 Ry au, 
 
        Potential amp.        0.0603 Ry
        Total length         55.1515 bohr
 
 
     Adding external electric field

     Computed dipole along edir(3) : 
        Dipole               -0.8934 Ry au,         -2.2707 Debye
        Dipole field         -0.0005 Ry au, 
 
        Potential amp.        0.0603 Ry
        Total length         55.1515 bohr
 

     total cpu time spent up to now is      281.1 secs

     total energy              =   -7738.32241594 Ry
     estimated scf accuracy    <       0.45247921 Ry

     total magnetization       =    88.72 Bohr mag/cell
     absolute magnetization    =    90.44 Bohr mag/cell

     iteration # 19     ecut=    50.00 Ry     beta= 0.10
     Davidson diagonalization with overlap
     ethr =  4.14E-05,  avg # of iterations =  1.5

     negative rho (up, down):  1.354E-04 4.173E-05
 
     Adding external electric field

     Computed dipole along edir(3) : 
        Dipole               -0.9010 Ry au,         -2.2901 Debye
        Dipole field         -0.0006 Ry au, 
 
        Potential amp.        0.0608 Ry
        Total length         55.1515 bohr
 
 
     Adding external electric field

     Computed dipole along edir(3) : 
        Dipole               -0.9010 Ry au,         -2.2901 Debye
        Dipole field         -0.0006 Ry au, 
 
        Potential amp.        0.0608 Ry
        Total length         55.1515 bohr
 

     total cpu time spent up to now is      293.4 secs

     total energy              =   -7738.32483035 Ry
     estimated scf accuracy    <       0.79144457 Ry

     total magnetization       =    87.85 Bohr mag/cell
     absolute magnetization    =    89.38 Bohr mag/cell

     iteration # 20     ecut=    50.00 Ry     beta= 0.10
     Davidson diagonalization with overlap
     ethr =  4.14E-05,  avg # of iterations =  1.5

     negative rho (up, down):  5.855E-05 7.635E-06
 
     Adding external electric field

     Computed dipole along edir(3) : 
        Dipole               -0.9378 Ry au,         -2.3837 Debye
        Dipole field         -0.0006 Ry au, 
 
        Potential amp.        0.0633 Ry
        Total length         55.1515 bohr
 
 
     Adding external electric field

     Computed dipole along edir(3) : 
        Dipole               -0.9378 Ry au,         -2.3837 Debye
        Dipole field         -0.0006 Ry au, 
 
        Potential amp.        0.0633 Ry
        Total length         55.1515 bohr
 

     total cpu time spent up to now is      306.1 secs

     total energy              =   -7738.31461023 Ry
     estimated scf accuracy    <       0.61135705 Ry

     total magnetization       =    88.30 Bohr mag/cell
     absolute magnetization    =    89.76 Bohr mag/cell

     iteration # 21     ecut=    50.00 Ry     beta= 0.10
     Davidson diagonalization with overlap
     ethr =  4.14E-05,  avg # of iterations =  1.5

     negative rho (up, down):  4.470E-07 1.809E-09
 
     Adding external electric field

     Computed dipole along edir(3) : 
        Dipole               -0.8533 Ry au,         -2.1690 Debye
        Dipole field         -0.0005 Ry au, 
 
        Potential amp.        0.0576 Ry
        Total length         55.1515 bohr
 
 
     Adding external electric field

     Computed dipole along edir(3) : 
        Dipole               -0.8533 Ry au,         -2.1690 Debye
        Dipole field         -0.0005 Ry au, 
 
        Potential amp.        0.0576 Ry
        Total length         55.1515 bohr
 

     total cpu time spent up to now is      318.1 secs

     total energy              =   -7738.31025955 Ry
     estimated scf accuracy    <       0.34786348 Ry

     total magnetization       =    88.88 Bohr mag/cell
     absolute magnetization    =    90.54 Bohr mag/cell

     iteration # 22     ecut=    50.00 Ry     beta= 0.10
     Davidson diagonalization with overlap
     ethr =  3.18E-05,  avg # of iterations =  2.0

     negative rho (up, down):  1.783E-04 3.084E-05
 
     Adding external electric field

     Computed dipole along edir(3) : 
        Dipole               -0.8691 Ry au,         -2.2091 Debye
        Dipole field         -0.0005 Ry au, 
 
        Potential amp.        0.0587 Ry
        Total length         55.1515 bohr
 
 
     Adding external electric field

     Computed dipole along edir(3) : 
        Dipole               -0.8691 Ry au,         -2.2091 Debye
        Dipole field         -0.0005 Ry au, 
 
        Potential amp.        0.0587 Ry
        Total length         55.1515 bohr
 

     total cpu time spent up to now is      330.9 secs

     total energy              =   -7738.31469701 Ry
     estimated scf accuracy    <       1.05308820 Ry

     total magnetization       =    87.51 Bohr mag/cell
     absolute magnetization    =    89.34 Bohr mag/cell

     iteration # 23     ecut=    50.00 Ry     beta= 0.10
     Davidson diagonalization with overlap
     ethr =  3.18E-05,  avg # of iterations =  1.5

     negative rho (up, down):  7.174E-05 4.421E-07
 
     Adding external electric field

     Computed dipole along edir(3) : 
        Dipole               -0.8930 Ry au,         -2.2699 Debye
        Dipole field         -0.0005 Ry au, 
 
        Potential amp.        0.0603 Ry
        Total length         55.1515 bohr
 
 
     Adding external electric field

     Computed dipole along edir(3) : 
        Dipole               -0.8930 Ry au,         -2.2699 Debye
        Dipole field         -0.0005 Ry au, 
 
        Potential amp.        0.0603 Ry
        Total length         55.1515 bohr
 

     total cpu time spent up to now is      342.7 secs

     total energy              =   -7738.28267526 Ry
     estimated scf accuracy    <       0.82362370 Ry

     total magnetization       =    87.86 Bohr mag/cell
     absolute magnetization    =    89.41 Bohr mag/cell

     iteration # 24     ecut=    50.00 Ry     beta= 0.10
     Davidson diagonalization with overlap
     ethr =  3.18E-05,  avg # of iterations =  1.0

     negative rho (up, down):  3.678E-04 2.003E-05
 
     Adding external electric field

     Computed dipole along edir(3) : 
        Dipole               -0.9057 Ry au,         -2.3020 Debye
        Dipole field         -0.0006 Ry au, 
 
        Potential amp.        0.0611 Ry
        Total length         55.1515 bohr
 
 
     Adding external electric field

     Computed dipole along edir(3) : 
        Dipole               -0.9057 Ry au,         -2.3020 Debye
        Dipole field         -0.0006 Ry au, 
 
        Potential amp.        0.0611 Ry
        Total length         55.1515 bohr
 

     total cpu time spent up to now is      354.4 secs

     total energy              =   -7738.27417523 Ry
     estimated scf accuracy    <       0.28779628 Ry

     total magnetization       =    88.89 Bohr mag/cell
     absolute magnetization    =    90.73 Bohr mag/cell

     iteration # 25     ecut=    50.00 Ry     beta= 0.10
     Davidson diagonalization with overlap
     ethr =  2.63E-05,  avg # of iterations =  2.0

     negative rho (up, down):  3.482E-05 2.388E-07
 
     Adding external electric field

     Computed dipole along edir(3) : 
        Dipole               -0.8112 Ry au,         -2.0619 Debye
        Dipole field         -0.0005 Ry au, 
 
        Potential amp.        0.0548 Ry
        Total length         55.1515 bohr
 
 
     Adding external electric field

     Computed dipole along edir(3) : 
        Dipole               -0.8112 Ry au,         -2.0619 Debye
        Dipole field         -0.0005 Ry au, 
 
        Potential amp.        0.0548 Ry
        Total length         55.1515 bohr
 

     total cpu time spent up to now is      366.9 secs

     total energy              =   -7738.29641816 Ry
     estimated scf accuracy    <       0.28204374 Ry

     total magnetization       =    88.93 Bohr mag/cell
     absolute magnetization    =    90.79 Bohr mag/cell

     iteration # 26     ecut=    50.00 Ry     beta= 0.10
     Davidson diagonalization with overlap
     ethr =  2.58E-05,  avg # of iterations =  2.0

     negative rho (up, down):  5.805E-05 6.383E-08
 
     Adding external electric field

     Computed dipole along edir(3) : 
        Dipole               -0.9487 Ry au,         -2.4112 Debye
        Dipole field         -0.0006 Ry au, 
 
        Potential amp.        0.0640 Ry
        Total length         55.1515 bohr
 
 
     Adding external electric field

     Computed dipole along edir(3) : 
        Dipole               -0.9487 Ry au,         -2.4112 Debye
        Dipole field         -0.0006 Ry au, 
 
        Potential amp.        0.0640 Ry
        Total length         55.1515 bohr
 

     total cpu time spent up to now is      380.4 secs

     total energy              =   -7738.28264254 Ry
     estimated scf accuracy    <       0.35500040 Ry

     total magnetization       =    88.83 Bohr mag/cell
     absolute magnetization    =    90.58 Bohr mag/cell

     iteration # 27     ecut=    50.00 Ry     beta= 0.10
     Davidson diagonalization with overlap
     ethr =  2.58E-05,  avg # of iterations =  2.0

     negative rho (up, down):  1.021E-06 5.556E-07
 
     Adding external electric field

     Computed dipole along edir(3) : 
        Dipole               -1.0553 Ry au,         -2.6823 Debye
        Dipole field         -0.0006 Ry au, 
 
        Potential amp.        0.0712 Ry
        Total length         55.1515 bohr
 
 
     Adding external electric field

     Computed dipole along edir(3) : 
        Dipole               -1.0553 Ry au,         -2.6823 Debye
        Dipole field         -0.0006 Ry au, 
 
        Potential amp.        0.0712 Ry
        Total length         55.1515 bohr
 

     total cpu time spent up to now is      392.8 secs

     total energy              =   -7738.30683210 Ry
     estimated scf accuracy    <       0.21232425 Ry

     total magnetization       =    89.06 Bohr mag/cell
     absolute magnetization    =    91.11 Bohr mag/cell

     iteration # 28     ecut=    50.00 Ry     beta= 0.10
     Davidson diagonalization with overlap
     ethr =  1.94E-05,  avg # of iterations =  2.5

     negative rho (up, down):  7.102E-07 4.830E-06
 
     Adding external electric field

     Computed dipole along edir(3) : 
        Dipole               -1.0387 Ry au,         -2.6400 Debye
        Dipole field         -0.0006 Ry au, 
 
        Potential amp.        0.0701 Ry
        Total length         55.1515 bohr
 
 
     Adding external electric field

     Computed dipole along edir(3) : 
        Dipole               -1.0387 Ry au,         -2.6400 Debye
        Dipole field         -0.0006 Ry au, 
 
        Potential amp.        0.0701 Ry
        Total length         55.1515 bohr
 

     total cpu time spent up to now is      405.2 secs

     total energy              =   -7738.31475573 Ry
     estimated scf accuracy    <       0.13429387 Ry

     total magnetization       =    88.87 Bohr mag/cell
     absolute magnetization    =    91.18 Bohr mag/cell

     iteration # 29     ecut=    50.00 Ry     beta= 0.10
     Davidson diagonalization with overlap
     ethr =  1.23E-05,  avg # of iterations =  2.0

     negative rho (up, down):  2.259E-06 1.040E-05
 
     Adding external electric field

     Computed dipole along edir(3) : 
        Dipole               -1.0435 Ry au,         -2.6524 Debye
        Dipole field         -0.0006 Ry au, 
 
        Potential amp.        0.0705 Ry
        Total length         55.1515 bohr
 
 
     Adding external electric field

     Computed dipole along edir(3) : 
        Dipole               -1.0435 Ry au,         -2.6524 Debye
        Dipole field         -0.0006 Ry au, 
 
        Potential amp.        0.0705 Ry
        Total length         55.1515 bohr
 

     total cpu time spent up to now is      418.7 secs

     total energy              =   -7738.31381076 Ry
     estimated scf accuracy    <       0.11197996 Ry

     total magnetization       =    88.64 Bohr mag/cell
     absolute magnetization    =    90.69 Bohr mag/cell

     iteration # 30     ecut=    50.00 Ry     beta= 0.10
     Davidson diagonalization with overlap
     ethr =  1.02E-05,  avg # of iterations =  1.5

     negative rho (up, down):  5.401E-05 6.723E-05
 
     Adding external electric field

     Computed dipole along edir(3) : 
        Dipole               -0.9177 Ry au,         -2.3324 Debye
        Dipole field         -0.0006 Ry au, 
 
        Potential amp.        0.0620 Ry
        Total length         55.1515 bohr
 
 
     Adding external electric field

     Computed dipole along edir(3) : 
        Dipole               -0.9177 Ry au,         -2.3324 Debye
        Dipole field         -0.0006 Ry au, 
 
        Potential amp.        0.0620 Ry
        Total length         55.1515 bohr
 

     total cpu time spent up to now is      430.4 secs

     total energy              =   -7738.31949673 Ry
     estimated scf accuracy    <       0.07903592 Ry

     total magnetization       =    88.52 Bohr mag/cell
     absolute magnetization    =    90.61 Bohr mag/cell

     iteration # 31     ecut=    50.00 Ry     beta= 0.10
     Davidson diagonalization with overlap
     c_bands:  2 eigenvalues not converged
     ethr =  7.23E-06,  avg # of iterations = 11.0

     negative rho (up, down):  5.509E-04 6.974E-04
 
     Adding external electric field

     Computed dipole along edir(3) : 
        Dipole               -0.8714 Ry au,         -2.2148 Debye
        Dipole field         -0.0005 Ry au, 
 
        Potential amp.        0.0588 Ry
        Total length         55.1515 bohr
 
 
     Adding external electric field

     Computed dipole along edir(3) : 
        Dipole               -0.8714 Ry au,         -2.2148 Debye
        Dipole field         -0.0005 Ry au, 
 
        Potential amp.        0.0588 Ry
        Total length         55.1515 bohr
 

     total cpu time spent up to now is      452.1 secs

     total energy              =   -7738.31726194 Ry
     estimated scf accuracy    <       0.21642034 Ry

     total magnetization       =    88.77 Bohr mag/cell
     absolute magnetization    =    90.51 Bohr mag/cell

     iteration # 32     ecut=    50.00 Ry     beta= 0.10
     Davidson diagonalization with overlap
     ethr =  7.23E-06,  avg # of iterations =  2.0

     negative rho (up, down):  1.389E-04 1.806E-04
 
     Adding external electric field

     Computed dipole along edir(3) : 
        Dipole               -0.9027 Ry au,         -2.2945 Debye
        Dipole field         -0.0006 Ry au, 
 
        Potential amp.        0.0609 Ry
        Total length         55.1515 bohr
 
 
     Adding external electric field

     Computed dipole along edir(3) : 
        Dipole               -0.9027 Ry au,         -2.2945 Debye
        Dipole field         -0.0006 Ry au, 
 
        Potential amp.        0.0609 Ry
        Total length         55.1515 bohr
 

     total cpu time spent up to now is      465.0 secs

     total energy              =   -7738.32105327 Ry
     estimated scf accuracy    <       0.15135227 Ry

     total magnetization       =    88.63 Bohr mag/cell
     absolute magnetization    =    90.46 Bohr mag/cell

     iteration # 33     ecut=    50.00 Ry     beta= 0.10
     Davidson diagonalization with overlap
     ethr =  7.23E-06,  avg # of iterations =  1.5

     negative rho (up, down):  3.634E-04 3.880E-04
 
     Adding external electric field

     Computed dipole along edir(3) : 
        Dipole               -0.8290 Ry au,         -2.1071 Debye
        Dipole field         -0.0005 Ry au, 
 
        Potential amp.        0.0560 Ry
        Total length         55.1515 bohr
 
 
     Adding external electric field

     Computed dipole along edir(3) : 
        Dipole               -0.8290 Ry au,         -2.1071 Debye
        Dipole field         -0.0005 Ry au, 
 
        Potential amp.        0.0560 Ry
        Total length         55.1515 bohr
 

     total cpu time spent up to now is      477.5 secs

     total energy              =   -7738.32209030 Ry
     estimated scf accuracy    <       0.18962231 Ry

     total magnetization       =    88.64 Bohr mag/cell
     absolute magnetization    =    90.32 Bohr mag/cell

     iteration # 34     ecut=    50.00 Ry     beta= 0.10
     Davidson diagonalization with overlap
     c_bands:  1 eigenvalues not converged
     ethr =  7.23E-06,  avg # of iterations = 20.5

     negative rho (up, down):  1.682E-04 1.875E-04
 
     Adding external electric field

     Computed dipole along edir(3) : 
        Dipole               -0.8563 Ry au,         -2.1766 Debye
        Dipole field         -0.0005 Ry au, 
 
        Potential amp.        0.0578 Ry
        Total length         55.1515 bohr
 
 
     Adding external electric field

     Computed dipole along edir(3) : 
        Dipole               -0.8563 Ry au,         -2.1766 Debye
        Dipole field         -0.0005 Ry au, 
 
        Potential amp.        0.0578 Ry
        Total length         55.1515 bohr
 

     total cpu time spent up to now is      505.3 secs

     total energy              =   -7738.32221886 Ry
     estimated scf accuracy    <       0.17275649 Ry

     total magnetization       =    88.67 Bohr mag/cell
     absolute magnetization    =    90.29 Bohr mag/cell

     iteration # 35     ecut=    50.00 Ry     beta= 0.10
     Davidson diagonalization with overlap
     ethr =  7.23E-06,  avg # of iterations =  1.5

     negative rho (up, down):  7.791E-05 1.430E-04
 
     Adding external electric field

     Computed dipole along edir(3) : 
        Dipole               -0.8832 Ry au,         -2.2449 Debye
        Dipole field         -0.0005 Ry au, 
 
        Potential amp.        0.0596 Ry
        Total length         55.1515 bohr
 
 
     Adding external electric field

     Computed dipole along edir(3) : 
        Dipole               -0.8832 Ry au,         -2.2449 Debye
        Dipole field         -0.0005 Ry au, 
 
        Potential amp.        0.0596 Ry
        Total length         55.1515 bohr
 

     total cpu time spent up to now is      518.3 secs

     total energy              =   -7738.31689341 Ry
     estimated scf accuracy    <       0.13915207 Ry

     total magnetization       =    88.57 Bohr mag/cell
     absolute magnetization    =    90.20 Bohr mag/cell

     iteration # 36     ecut=    50.00 Ry     beta= 0.10
     Davidson diagonalization with overlap
     ethr =  7.23E-06,  avg # of iterations =  1.0

     negative rho (up, down):  1.377E-04 1.225E-04
 
     Adding external electric field

     Computed dipole along edir(3) : 
        Dipole               -0.8910 Ry au,         -2.2646 Debye
        Dipole field         -0.0005 Ry au, 
 
        Potential amp.        0.0602 Ry
        Total length         55.1515 bohr
 
 
     Adding external electric field

     Computed dipole along edir(3) : 
        Dipole               -0.8910 Ry au,         -2.2646 Debye
        Dipole field         -0.0005 Ry au, 
 
        Potential amp.        0.0602 Ry
        Total length         55.1515 bohr
 

     total cpu time spent up to now is      530.0 secs

     total energy              =   -7738.32277953 Ry
     estimated scf accuracy    <       0.12472227 Ry

     total magnetization       =    88.49 Bohr mag/cell
     absolute magnetization    =    90.26 Bohr mag/cell

     iteration # 37     ecut=    50.00 Ry     beta= 0.10
     Davidson diagonalization with overlap
     ethr =  7.23E-06,  avg # of iterations =  1.5

     negative rho (up, down):  7.918E-05 4.360E-05
 
     Adding external electric field

     Computed dipole along edir(3) : 
        Dipole               -0.8360 Ry au,         -2.1249 Debye
        Dipole field         -0.0005 Ry au, 
 
        Potential amp.        0.0564 Ry
        Total length         55.1515 bohr
 
 
     Adding external electric field

     Computed dipole along edir(3) : 
        Dipole               -0.8360 Ry au,         -2.1249 Debye
        Dipole field         -0.0005 Ry au, 
 
        Potential amp.        0.0564 Ry
        Total length         55.1515 bohr
 

     total cpu time spent up to now is      542.5 secs

     total energy              =   -7738.32178488 Ry
     estimated scf accuracy    <       0.14760195 Ry

     total magnetization       =    88.65 Bohr mag/cell
     absolute magnetization    =    90.26 Bohr mag/cell

     iteration # 38     ecut=    50.00 Ry     beta= 0.10
     Davidson diagonalization with overlap
     ethr =  7.23E-06,  avg # of iterations =  1.0

     negative rho (up, down):  5.137E-05 5.880E-05
 
     Adding external electric field

     Computed dipole along edir(3) : 
        Dipole               -0.9609 Ry au,         -2.4424 Debye
        Dipole field         -0.0006 Ry au, 
 
        Potential amp.        0.0649 Ry
        Total length         55.1515 bohr
 
 
     Adding external electric field

     Computed dipole along edir(3) : 
        Dipole               -0.9609 Ry au,         -2.4424 Debye
        Dipole field         -0.0006 Ry au, 
 
        Potential amp.        0.0649 Ry
        Total length         55.1515 bohr
 

     total cpu time spent up to now is      554.8 secs

     total energy              =   -7738.31732364 Ry
     estimated scf accuracy    <       0.17020312 Ry

     total magnetization       =    88.79 Bohr mag/cell
     absolute magnetization    =    90.43 Bohr mag/cell

     iteration # 39     ecut=    50.00 Ry     beta= 0.10
     Davidson diagonalization with overlap
     ethr =  7.23E-06,  avg # of iterations =  1.5

     negative rho (up, down):  4.588E-05 6.755E-05
 
     Adding external electric field

     Computed dipole along edir(3) : 
        Dipole               -0.9768 Ry au,         -2.4827 Debye
        Dipole field         -0.0006 Ry au, 
 
        Potential amp.        0.0659 Ry
        Total length         55.1515 bohr
 
 
     Adding external electric field

     Computed dipole along edir(3) : 
        Dipole               -0.9768 Ry au,         -2.4827 Debye
        Dipole field         -0.0006 Ry au, 
 
        Potential amp.        0.0659 Ry
        Total length         55.1515 bohr
 

     total cpu time spent up to now is      566.8 secs

     total energy              =   -7738.31584143 Ry
     estimated scf accuracy    <       0.07028025 Ry

     total magnetization       =    88.39 Bohr mag/cell
     absolute magnetization    =    90.24 Bohr mag/cell

     iteration # 40     ecut=    50.00 Ry     beta= 0.10
     Davidson diagonalization with overlap
     ethr =  6.43E-06,  avg # of iterations =  1.0

     negative rho (up, down):  2.483E-04 2.854E-04
 
     Adding external electric field

     Computed dipole along edir(3) : 
        Dipole               -0.8815 Ry au,         -2.2404 Debye
        Dipole field         -0.0005 Ry au, 
 
        Potential amp.        0.0595 Ry
        Total length         55.1515 bohr
 
 
     Adding external electric field

     Computed dipole along edir(3) : 
        Dipole               -0.8815 Ry au,         -2.2404 Debye
        Dipole field         -0.0005 Ry au, 
 
        Potential amp.        0.0595 Ry
        Total length         55.1515 bohr
 

     total cpu time spent up to now is      578.6 secs

     total energy              =   -7738.32002684 Ry
     estimated scf accuracy    <       0.10877895 Ry

     total magnetization       =    88.35 Bohr mag/cell
     absolute magnetization    =    90.32 Bohr mag/cell

     iteration # 41     ecut=    50.00 Ry     beta= 0.10
     Davidson diagonalization with overlap
     ethr =  6.43E-06,  avg # of iterations =  1.0

     negative rho (up, down):  3.674E-04 4.284E-04
 
     Adding external electric field

     Computed dipole along edir(3) : 
        Dipole               -0.8616 Ry au,         -2.1900 Debye
        Dipole field         -0.0005 Ry au, 
 
        Potential amp.        0.0582 Ry
        Total length         55.1515 bohr
 
 
     Adding external electric field

     Computed dipole along edir(3) : 
        Dipole               -0.8616 Ry au,         -2.1900 Debye
        Dipole field         -0.0005 Ry au, 
 
        Potential amp.        0.0582 Ry
        Total length         55.1515 bohr
 

     total cpu time spent up to now is      590.4 secs

     total energy              =   -7738.32191059 Ry
     estimated scf accuracy    <       0.07532526 Ry

     total magnetization       =    88.48 Bohr mag/cell
     absolute magnetization    =    90.19 Bohr mag/cell

     iteration # 42     ecut=    50.00 Ry     beta= 0.10
     Davidson diagonalization with overlap
     ethr =  6.43E-06,  avg # of iterations =  1.0

     negative rho (up, down):  3.354E-04 3.982E-04
 
     Adding external electric field

     Computed dipole along edir(3) : 
        Dipole               -0.8729 Ry au,         -2.2186 Debye
        Dipole field         -0.0005 Ry au, 
 
        Potential amp.        0.0589 Ry
        Total length         55.1515 bohr
 
 
     Adding external electric field

     Computed dipole along edir(3) : 
        Dipole               -0.8729 Ry au,         -2.2186 Debye
        Dipole field         -0.0005 Ry au, 
 
        Potential amp.        0.0589 Ry
        Total length         55.1515 bohr
 

     total cpu time spent up to now is      602.4 secs

     total energy              =   -7738.32171424 Ry
     estimated scf accuracy    <       0.07020156 Ry

     total magnetization       =    88.44 Bohr mag/cell
     absolute magnetization    =    90.05 Bohr mag/cell

     iteration # 43     ecut=    50.00 Ry     beta= 0.10
     Davidson diagonalization with overlap
     ethr =  6.42E-06,  avg # of iterations =  1.0

     negative rho (up, down):  1.578E-03 1.629E-03
 
     Adding external electric field

     Computed dipole along edir(3) : 
        Dipole               -0.8019 Ry au,         -2.0383 Debye
        Dipole field         -0.0005 Ry au, 
 
        Potential amp.        0.0541 Ry
        Total length         55.1515 bohr
 
 
     Adding external electric field

     Computed dipole along edir(3) : 
        Dipole               -0.8019 Ry au,         -2.0383 Debye
        Dipole field         -0.0005 Ry au, 
 
        Potential amp.        0.0541 Ry
        Total length         55.1515 bohr
 

     total cpu time spent up to now is      614.2 secs

     total energy              =   -7738.32117943 Ry
     estimated scf accuracy    <       0.07206153 Ry

     total magnetization       =    88.45 Bohr mag/cell
     absolute magnetization    =    90.07 Bohr mag/cell

     iteration # 44     ecut=    50.00 Ry     beta= 0.10
     Davidson diagonalization with overlap
     ethr =  6.42E-06,  avg # of iterations =  2.0

     negative rho (up, down):  9.304E-04 9.237E-04
 
     Adding external electric field

     Computed dipole along edir(3) : 
        Dipole               -0.8125 Ry au,         -2.0651 Debye
        Dipole field         -0.0005 Ry au, 
 
        Potential amp.        0.0549 Ry
        Total length         55.1515 bohr
 
 
     Adding external electric field

     Computed dipole along edir(3) : 
        Dipole               -0.8125 Ry au,         -2.0651 Debye
        Dipole field         -0.0005 Ry au, 
 
        Potential amp.        0.0549 Ry
        Total length         55.1515 bohr
 

     total cpu time spent up to now is      627.4 secs

     total energy              =   -7738.32300146 Ry
     estimated scf accuracy    <       0.05901379 Ry

     total magnetization       =    88.45 Bohr mag/cell
     absolute magnetization    =    90.13 Bohr mag/cell

     iteration # 45     ecut=    50.00 Ry     beta= 0.10
     Davidson diagonalization with overlap
     ethr =  5.40E-06,  avg # of iterations =  1.0

     negative rho (up, down):  2.023E-04 3.360E-04
 
     Adding external electric field

     Computed dipole along edir(3) : 
        Dipole               -0.8205 Ry au,         -2.0856 Debye
        Dipole field         -0.0005 Ry au, 
 
        Potential amp.        0.0554 Ry
        Total length         55.1515 bohr
 
 
     Adding external electric field

     Computed dipole along edir(3) : 
        Dipole               -0.8205 Ry au,         -2.0856 Debye
        Dipole field         -0.0005 Ry au, 
 
        Potential amp.        0.0554 Ry
        Total length         55.1515 bohr
 

     total cpu time spent up to now is      639.0 secs

     total energy              =   -7738.31859669 Ry
     estimated scf accuracy    <       0.05482566 Ry

     total magnetization       =    88.39 Bohr mag/cell
     absolute magnetization    =    90.00 Bohr mag/cell

     iteration # 46     ecut=    50.00 Ry     beta= 0.10
     Davidson diagonalization with overlap
     ethr =  5.02E-06,  avg # of iterations =  1.5

     negative rho (up, down):  9.871E-05 1.716E-04
 
     Adding external electric field

     Computed dipole along edir(3) : 
        Dipole               -0.8359 Ry au,         -2.1246 Debye
        Dipole field         -0.0005 Ry au, 
 
        Potential amp.        0.0564 Ry
        Total length         55.1515 bohr
 
 
     Adding external electric field

     Computed dipole along edir(3) : 
        Dipole               -0.8359 Ry au,         -2.1246 Debye
        Dipole field         -0.0005 Ry au, 
 
        Potential amp.        0.0564 Ry
        Total length         55.1515 bohr
 

     total cpu time spent up to now is      651.8 secs

     total energy              =   -7738.31917411 Ry
     estimated scf accuracy    <       0.04340214 Ry

     total magnetization       =    88.34 Bohr mag/cell
     absolute magnetization    =    90.03 Bohr mag/cell

     iteration # 47     ecut=    50.00 Ry     beta= 0.10
     Davidson diagonalization with overlap
     ethr =  3.97E-06,  avg # of iterations =  1.0

     negative rho (up, down):  2.776E-04 3.710E-04
 
     Adding external electric field

     Computed dipole along edir(3) : 
        Dipole               -0.7800 Ry au,         -1.9825 Debye
        Dipole field         -0.0005 Ry au, 
 
        Potential amp.        0.0527 Ry
        Total length         55.1515 bohr
 
 
     Adding external electric field

     Computed dipole along edir(3) : 
        Dipole               -0.7800 Ry au,         -1.9825 Debye
        Dipole field         -0.0005 Ry au, 
 
        Potential amp.        0.0527 Ry
        Total length         55.1515 bohr
 

     total cpu time spent up to now is      663.5 secs

     total energy              =   -7738.31889490 Ry
     estimated scf accuracy    <       0.05883474 Ry

     total magnetization       =    88.44 Bohr mag/cell
     absolute magnetization    =    90.07 Bohr mag/cell

     iteration # 48     ecut=    50.00 Ry     beta= 0.10
     Davidson diagonalization with overlap
     ethr =  3.97E-06,  avg # of iterations =  1.5

     negative rho (up, down):  7.707E-04 1.294E-03
 
     Adding external electric field

     Computed dipole along edir(3) : 
        Dipole               -0.7717 Ry au,         -1.9616 Debye
        Dipole field         -0.0005 Ry au, 
 
        Potential amp.        0.0521 Ry
        Total length         55.1515 bohr
 
 
     Adding external electric field

     Computed dipole along edir(3) : 
        Dipole               -0.7717 Ry au,         -1.9616 Debye
        Dipole field         -0.0005 Ry au, 
 
        Potential amp.        0.0521 Ry
        Total length         55.1515 bohr
 

     total cpu time spent up to now is      677.1 secs

     total energy              =   -7738.31747647 Ry
     estimated scf accuracy    <       0.06867321 Ry

     total magnetization       =    88.61 Bohr mag/cell
     absolute magnetization    =    90.30 Bohr mag/cell

     iteration # 49     ecut=    50.00 Ry     beta= 0.10
     Davidson diagonalization with overlap
     ethr =  3.97E-06,  avg # of iterations =  1.0

     negative rho (up, down):  5.458E-05 7.384E-05
 
     Adding external electric field

     Computed dipole along edir(3) : 
        Dipole               -0.8253 Ry au,         -2.0977 Debye
        Dipole field         -0.0005 Ry au, 
 
        Potential amp.        0.0557 Ry
        Total length         55.1515 bohr
 
 
     Adding external electric field

     Computed dipole along edir(3) : 
        Dipole               -0.8253 Ry au,         -2.0977 Debye
        Dipole field         -0.0005 Ry au, 
 
        Potential amp.        0.0557 Ry
        Total length         55.1515 bohr
 

     total cpu time spent up to now is      689.2 secs

     total energy              =   -7738.31612558 Ry
     estimated scf accuracy    <       0.07857176 Ry

     total magnetization       =    88.56 Bohr mag/cell
     absolute magnetization    =    90.28 Bohr mag/cell

     iteration # 50     ecut=    50.00 Ry     beta= 0.10
     Davidson diagonalization with overlap
     ethr =  3.97E-06,  avg # of iterations =  1.5

     negative rho (up, down):  7.056E-04 8.186E-04
 
     Adding external electric field

     Computed dipole along edir(3) : 
        Dipole               -0.8000 Ry au,         -2.0334 Debye
        Dipole field         -0.0005 Ry au, 
 
        Potential amp.        0.0540 Ry
        Total length         55.1515 bohr
 
 
     Adding external electric field

     Computed dipole along edir(3) : 
        Dipole               -0.8000 Ry au,         -2.0334 Debye
        Dipole field         -0.0005 Ry au, 
 
        Potential amp.        0.0540 Ry
        Total length         55.1515 bohr
 

     total cpu time spent up to now is      702.0 secs

     total energy              =   -7738.31988722 Ry
     estimated scf accuracy    <       0.08192749 Ry

     total magnetization       =    88.51 Bohr mag/cell
     absolute magnetization    =    90.35 Bohr mag/cell

     iteration # 51     ecut=    50.00 Ry     beta= 0.10
     Davidson diagonalization with overlap
     ethr =  3.97E-06,  avg # of iterations =  1.0

     negative rho (up, down):  1.900E-04 1.976E-04
 
     Adding external electric field

     Computed dipole along edir(3) : 
        Dipole               -0.7980 Ry au,         -2.0283 Debye
        Dipole field         -0.0005 Ry au, 
 
        Potential amp.        0.0539 Ry
        Total length         55.1515 bohr
 
 
     Adding external electric field

     Computed dipole along edir(3) : 
        Dipole               -0.7980 Ry au,         -2.0283 Debye
        Dipole field         -0.0005 Ry au, 
 
        Potential amp.        0.0539 Ry
        Total length         55.1515 bohr
 

     total cpu time spent up to now is      714.3 secs

     total energy              =   -7738.31948318 Ry
     estimated scf accuracy    <       0.07688241 Ry

     total magnetization       =    88.65 Bohr mag/cell
     absolute magnetization    =    90.26 Bohr mag/cell

     iteration # 52     ecut=    50.00 Ry     beta= 0.10
     Davidson diagonalization with overlap
     ethr =  3.97E-06,  avg # of iterations =  1.5

     negative rho (up, down):  5.298E-04 4.995E-04
 
     Adding external electric field

     Computed dipole along edir(3) : 
        Dipole               -0.7511 Ry au,         -1.9091 Debye
        Dipole field         -0.0005 Ry au, 
 
        Potential amp.        0.0507 Ry
        Total length         55.1515 bohr
 
 
     Adding external electric field

     Computed dipole along edir(3) : 
        Dipole               -0.7511 Ry au,         -1.9091 Debye
        Dipole field         -0.0005 Ry au, 
 
        Potential amp.        0.0507 Ry
        Total length         55.1515 bohr
 

     total cpu time spent up to now is      726.9 secs

     total energy              =   -7738.32051849 Ry
     estimated scf accuracy    <       0.07062071 Ry

     total magnetization       =    88.72 Bohr mag/cell
     absolute magnetization    =    90.38 Bohr mag/cell

     iteration # 53     ecut=    50.00 Ry     beta= 0.10
     Davidson diagonalization with overlap
     ethr =  3.97E-06,  avg # of iterations =  1.0

     negative rho (up, down):  1.594E-04 1.745E-04
 
     Adding external electric field

     Computed dipole along edir(3) : 
        Dipole               -0.7686 Ry au,         -1.9536 Debye
        Dipole field         -0.0005 Ry au, 
 
        Potential amp.        0.0519 Ry
        Total length         55.1515 bohr
 
 
     Adding external electric field

     Computed dipole along edir(3) : 
        Dipole               -0.7686 Ry au,         -1.9536 Debye
        Dipole field         -0.0005 Ry au, 
 
        Potential amp.        0.0519 Ry
        Total length         55.1515 bohr
 

     total cpu time spent up to now is      739.1 secs

     total energy              =   -7738.32095735 Ry
     estimated scf accuracy    <       0.07073988 Ry

     total magnetization       =    88.73 Bohr mag/cell
     absolute magnetization    =    90.34 Bohr mag/cell

     iteration # 54     ecut=    50.00 Ry     beta= 0.10
     Davidson diagonalization with overlap
     ethr =  3.97E-06,  avg # of iterations =  1.0

     negative rho (up, down):  2.343E-04 1.722E-04
 
     Adding external electric field

     Computed dipole along edir(3) : 
        Dipole               -0.7822 Ry au,         -1.9882 Debye
        Dipole field         -0.0005 Ry au, 
 
        Potential amp.        0.0528 Ry
        Total length         55.1515 bohr
 
 
     Adding external electric field

     Computed dipole along edir(3) : 
        Dipole               -0.7822 Ry au,         -1.9882 Debye
        Dipole field         -0.0005 Ry au, 
 
        Potential amp.        0.0528 Ry
        Total length         55.1515 bohr
 

     total cpu time spent up to now is      750.4 secs

     total energy              =   -7738.32139974 Ry
     estimated scf accuracy    <       0.07452884 Ry

     total magnetization       =    88.70 Bohr mag/cell
     absolute magnetization    =    90.25 Bohr mag/cell

     iteration # 55     ecut=    50.00 Ry     beta= 0.10
     Davidson diagonalization with overlap
     ethr =  3.97E-06,  avg # of iterations =  1.0

     negative rho (up, down):  4.158E-04 5.274E-04
 
     Adding external electric field

     Computed dipole along edir(3) : 
        Dipole               -0.7809 Ry au,         -1.9848 Debye
        Dipole field         -0.0005 Ry au, 
 
        Potential amp.        0.0527 Ry
        Total length         55.1515 bohr
 
 
     Adding external electric field

     Computed dipole along edir(3) : 
        Dipole               -0.7809 Ry au,         -1.9848 Debye
        Dipole field         -0.0005 Ry au, 
 
        Potential amp.        0.0527 Ry
        Total length         55.1515 bohr
 

     total cpu time spent up to now is      761.7 secs

     total energy              =   -7738.31865423 Ry
     estimated scf accuracy    <       0.07542538 Ry

     total magnetization       =    88.72 Bohr mag/cell
     absolute magnetization    =    90.27 Bohr mag/cell

     iteration # 56     ecut=    50.00 Ry     beta= 0.10
     Davidson diagonalization with overlap
     ethr =  3.97E-06,  avg # of iterations =  1.0

     negative rho (up, down):  5.153E-03 5.546E-03
 
     Adding external electric field

     Computed dipole along edir(3) : 
        Dipole               -0.7602 Ry au,         -1.9322 Debye
        Dipole field         -0.0005 Ry au, 
 
        Potential amp.        0.0513 Ry
        Total length         55.1515 bohr
 
 
     Adding external electric field

     Computed dipole along edir(3) : 
        Dipole               -0.7602 Ry au,         -1.9322 Debye
        Dipole field         -0.0005 Ry au, 
 
        Potential amp.        0.0513 Ry
        Total length         55.1515 bohr
 

     total cpu time spent up to now is      773.1 secs

     total energy              =   -7738.31605941 Ry
     estimated scf accuracy    <       0.06210391 Ry

     total magnetization       =    88.68 Bohr mag/cell
     absolute magnetization    =    90.33 Bohr mag/cell

     iteration # 57     ecut=    50.00 Ry     beta= 0.10
     Davidson diagonalization with overlap
     ethr =  3.97E-06,  avg # of iterations =  2.5

     negative rho (up, down):  1.013E-02 1.049E-02
 
     Adding external electric field

     Computed dipole along edir(3) : 
        Dipole               -0.7202 Ry au,         -1.8305 Debye
        Dipole field         -0.0004 Ry au, 
 
        Potential amp.        0.0486 Ry
        Total length         55.1515 bohr
 
 
     Adding external electric field

     Computed dipole along edir(3) : 
        Dipole               -0.7202 Ry au,         -1.8305 Debye
        Dipole field         -0.0004 Ry au, 
 
        Potential amp.        0.0486 Ry
        Total length         55.1515 bohr
 

     total cpu time spent up to now is      786.5 secs

     total energy              =   -7738.31589631 Ry
     estimated scf accuracy    <       0.03072563 Ry

     total magnetization       =    88.71 Bohr mag/cell
     absolute magnetization    =    90.39 Bohr mag/cell

     iteration # 58     ecut=    50.00 Ry     beta= 0.10
     Davidson diagonalization with overlap
     ethr =  2.81E-06,  avg # of iterations =  2.0

     negative rho (up, down):  1.165E-02 1.200E-02
 
     Adding external electric field

     Computed dipole along edir(3) : 
        Dipole               -0.6995 Ry au,         -1.7780 Debye
        Dipole field         -0.0004 Ry au, 
 
[...]
    -5.9843  -5.9682  -5.9197  -5.9119  -5.8905  -5.8804  -5.8797  -5.8476
    -5.8265  -5.8050  -5.7534  -5.7417  -5.7262  -5.6923  -5.6811  -5.6476
    -5.6434  -5.6321  -5.5951  -5.5774  -5.5696  -5.5616  -5.5590  -5.5361
    -5.5189  -5.5077  -5.4835  -5.4465  -5.4046  -5.3571  -5.3335  -5.3186
    -5.2965  -5.2671  -5.2375  -5.1672  -5.1532  -5.1481  -5.1336  -5.1059
    -5.0543  -5.0135  -4.9751  -4.9496  -4.9017  -4.8915  -4.8619  -4.8602
    -4.8156  -4.7965  -4.7837  -4.7443  -4.7111  -4.6924  -4.6520  -4.6059
    -4.5543  -4.4759  -4.4482  -4.4284  -4.4213  -4.4060  -4.3659  -4.3542
    -4.3058  -4.2874  -4.2580  -4.2352  -4.2052  -4.1771  -4.1207  -4.1098
    -4.0898  -4.0511  -4.0479  -4.0181  -3.9607  -3.9352  -3.9220  -3.8817
    -3.8729  -3.8292  -3.8149  -3.8017  -3.7893  -3.7489  -3.7269  -3.7044
    -3.6936  -3.6662  -3.6500  -3.6005  -3.5877  -3.5795  -3.5768  -3.5501
    -3.5467  -3.5223  -3.5070  -3.4811  -3.4612  -3.4455  -3.4311  -3.4187
    -3.4171  -3.3735  -3.3628  -3.3567  -3.3445  -3.3084  -3.2817  -3.2613
    -3.2561  -3.2139  -3.1990  -3.1875  -3.1513  -3.1182  -3.1088  -3.0846
    -3.0756  -3.0709  -3.0515  -3.0391  -3.0241  -3.0063  -2.9849  -2.9686
    -2.9334  -2.9212  -2.8980  -2.8899  -2.8707  -2.8536  -2.8121  -2.7988
    -2.7887  -2.7609  -2.7555  -2.7458  -2.7293  -2.7176  -2.7047  -2.6910
    -2.6866  -2.6793  -2.6636  -2.6459  -2.6415  -2.6102  -2.6048  -2.5959
    -2.5769  -2.5718  -2.5442  -2.5290  -2.5169  -2.4873  -2.4740  -2.4594
    -2.4424  -2.4228  -2.4077  -2.3816  -2.3590  -2.3559  -2.3244  -2.2894
    -2.2795  -2.2703  -2.2334  -2.2102  -2.1957  -2.1847  -2.1485  -2.1456
    -2.1170  -2.0921  -2.0710  -2.0662  -2.0599  -2.0425  -2.0331  -2.0241
    -1.9998  -1.9817  -1.9423  -1.9192  -1.9144  -1.9131  -1.8769  -1.8588
    -1.8429  -1.8388  -1.8287  -1.8129  -1.7935  -1.7187  -1.7139  -1.6943
    -1.6738  -1.6600  -1.6379  -1.6306  -1.6192  -1.6177  -1.5945  -1.5741
    -1.5525  -1.5379  -1.5202  -1.4904  -1.4899  -1.4576  -1.4388  -1.4301
    -1.4070  -1.4004  -1.3859  -1.3785  -1.3603  -1.3536  -1.3088  -1.2705
    -1.2362  -1.2208  -1.1757  -1.1510  -1.1389  -1.1339  -1.0965  -1.0571
    -1.0469  -0.9973  -0.9312  -0.8428  -0.7399  -0.7312  -0.6160  -0.5597
    -0.5252  -0.5114  -0.3590  -0.2100   0.1750   0.2151   0.2376   0.2438
     0.2957   0.3075   0.3141   0.3180   0.3267   0.3455   0.3582   0.3638
     0.3718   0.3861   0.3944   0.3993   0.4023   0.4099   0.4155   0.4213
     0.4292   0.4379   0.4580   0.4627   0.4721   0.4800   0.4876   0.4885
     0.4932   0.4994   0.5063   0.5123   0.5224   0.5289   0.5334   0.5395
     0.5420   0.5601   0.5637   0.5710   0.5810   0.5951   0.5993   0.6142
     0.6204   0.6211   0.6400   0.6451   0.6504   0.6586   0.6623   0.6748
     0.6801   0.6876   0.6977   0.7045   0.7099   0.7272   0.7294   0.7398
     0.7450   0.7567   0.7639   0.7659   0.7725   0.7895   0.7983   0.8075
     0.8100   0.8208   0.8345   0.8531   0.8622   0.8643   0.8658   0.8693
     0.8803   0.8846   0.9020   0.9065   0.9154   0.9500   0.9833   0.9919
     1.0156   1.0453   1.0869   1.1098   1.1206   1.6732   1.7327   1.7451
     1.7666   1.7864   1.7973   1.8131   1.8244   1.8394   1.9018   1.9172
     1.9355   1.9658   1.9848   2.0058   2.0397   2.0425   2.0916   2.1036
     2.1293   2.1412   2.1430   2.1782   2.1874   2.1948   2.2024   2.2300
     2.2657   2.2739   2.2924   2.3020   2.3107   2.3206   2.3285   2.3479
     2.3695   2.3759   2.3898   2.3923   2.4136   2.4168   2.4291   2.4937
     2.5011   2.5279   2.5329   2.5377   2.5481   2.5641   2.5862   2.5947
     2.6204   2.6778   2.7034   2.7171   2.7462   2.7994   2.8045   2.8642
     2.8736   2.9492   3.6700   3.7050   3.7184   3.7557   3.7808   3.7953
     3.8612   3.9030   3.9300   3.9568   3.9675   3.9800   3.9986   4.0121
     4.0509   4.0567   4.1420   4.1452   4.1557   4.1775   4.6549   4.6859
     4.7879   4.8247   4.8596   4.9000   4.9178   4.9598   5.0378   5.0934
     5.1142   5.1441   5.4266   6.2409   6.3719   6.6087   6.6571   6.7537
     6.8466   6.8610   6.8876   6.9628   6.9858   7.0653   7.1145   7.1297
     7.2623   7.3459   7.3493   7.4169   7.4780   7.5395   7.5700   7.6290
     7.6580   7.6648   7.7387   7.7653   7.7923   7.8588   7.8899   7.9621
     7.9967   8.0422   8.0494   8.0874   8.1067   8.1555   8.1698   8.2079
     8.2430   8.2828   8.2999   8.3298   8.4009   8.4241   8.4247   8.4496
     8.4595   8.4759   8.4929   8.5348   8.5510   8.5703   8.5945   8.6190
     8.6685   8.7049   8.7216   8.7528   8.7631   8.7762   8.8333   8.8401

     the Fermi energy is     1.6574 ev

!    total energy              =   -7738.31805237 Ry
     estimated scf accuracy    <       0.00000082 Ry
     smearing contrib. (-TS)   =      -0.02307785 Ry
     internal energy E=F+TS    =   -7738.29497452 Ry

     The total energy is F=E-TS. E is the sum of the following terms:
     one-electron contribution =  -94756.04844127 Ry
     hartree contribution      =   47995.22570981 Ry
     xc contribution           =   -2218.70387726 Ry
     ewald contribution        =   41243.03890227 Ry
     Dispersion Correction     =      -1.80733043 Ry
     electric field correction =       0.00006236 Ry

     total magnetization       =    88.48 Bohr mag/cell
     absolute magnetization    =    89.86 Bohr mag/cell

     convergence has been achieved in 133 iterations

     negative rho (up, down):  1.052E-03 5.887E-04

     Forces acting on atoms (cartesian axes, Ry/au):

     atom    1 type  1   force =    -0.00208618    0.00171872    0.00256589
     atom    2 type  2   force =    -0.00010190   -0.00033557    0.00050983
     atom    3 type  1   force =    -0.00039277    0.00034946    0.00003132
     atom    4 type  1   force =     0.00001006    0.00032432   -0.00011041
     atom    5 type  1   force =    -0.00005128    0.00024326   -0.00002604
     atom    6 type  1   force =     0.00041591    0.00019366    0.00010848
     atom    7 type  3   force =    -0.00013717    0.00027521    0.00000233
     atom    8 type  3   force =    -0.00014065   -0.00002112    0.00002383
     atom    9 type  3   force =     0.00036927   -0.00001999    0.00002944
     atom   10 type  3   force =     0.00007554    0.00020258    0.00018977
     atom   11 type  4   force =     0.00066319   -0.00018717    0.00062809
     atom   12 type  4   force =    -0.00058163   -0.00020127   -0.00000626
     atom   13 type  4   force =    -0.00006663    0.00014485   -0.00041914
     atom   14 type  4   force =    -0.00057199   -0.00029013    0.00015890
     atom   15 type  4   force =     0.00015817   -0.00032007   -0.00006834
     atom   16 type  4   force =    -0.00038316   -0.00023246    0.00016998
     atom   17 type  4   force =    -0.00050963   -0.00010223    0.00033339
     atom   18 type  4   force =     0.00012148   -0.00003305    0.00031069
     atom   19 type  4   force =     0.00010705    0.00037670    0.00006899
     atom   20 type  4   force =    -0.00058235   -0.00032839    0.00008332
     atom   21 type  4   force =     0.00016753    0.00011919    0.00001795
     atom   22 type  4   force =     0.00006963    0.00003171   -0.00049270
     atom   23 type  4   force =    -0.00005163    0.00011911   -0.00011650
     atom   24 type  4   force =     0.00035325    0.00015881    0.00004794
     atom   25 type  4   force =    -0.00023477    0.00047691   -0.00002666
     atom   26 type  4   force =    -0.00032767    0.00006808   -0.00005832
     atom   27 type  1   force =    -0.00659360   -0.00681280   -0.00176000
     atom   28 type  2   force =    -0.01235282   -0.00011228   -0.00169932
     atom   29 type  1   force =     0.00352601   -0.00420756   -0.00046721
     atom   30 type  1   force =     0.00240890    0.00403748   -0.00171861
     atom   31 type  1   force =     0.00152050   -0.00474845   -0.00018704
     atom   32 type  1   force =    -0.00103816    0.00121093    0.00186155
     atom   33 type  3   force =    -0.00697729   -0.00095624    0.00005993
     atom   34 type  3   force =    -0.00715679    0.00450727   -0.00251343
     atom   35 type  3   force =     0.00390742   -0.00256053   -0.00368246
     atom   36 type  3   force =     0.00121484   -0.00123464    0.00295524
     atom   37 type  4   force =     0.00856585    0.00531437   -0.00781186
     atom   38 type  4   force =     0.00443193   -0.00219773    0.01971355
     atom   39 type  4   force =    -0.00115973    0.00405445    0.01037177
     atom   40 type  4   force =    -0.00162923   -0.00239092   -0.00887268
     atom   41 type  4   force =     0.00196173    0.00838260    0.00624761
     atom   42 type  4   force =    -0.00581369   -0.00278853   -0.01980515
     atom   43 type  4   force =     0.01047178    0.00696380   -0.00669533
     atom   44 type  4   force =     0.00727593   -0.00310056    0.00594411
     atom   45 type  4   force =     0.00224229    0.00592588   -0.00067061
     atom   46 type  4   force =     0.00357933    0.00187619    0.00461645
     atom   47 type  4   force =    -0.01329487    0.00016348    0.00324080
     atom   48 type  4   force =    -0.01474096    0.00271897   -0.00309126
     atom   49 type  4   force =     0.01263505    0.00249883   -0.00465348
     atom   50 type  4   force =    -0.00390675   -0.00438742    0.00001724
     atom   51 type  4   force =    -0.00450490    0.00283622   -0.00071762
     atom   52 type  4   force =     0.01642903   -0.00321936    0.00401901
     atom   53 type  1   force =    -0.00745739   -0.00710954   -0.00862259
     atom   54 type  2   force =     0.01580937    0.01735657   -0.01011955
     atom   55 type  1   force =     0.00579696   -0.00491127   -0.00598084
     atom   56 type  1   force =    -0.02054896    0.01922774    0.01975726
     atom   57 type  1   force =     0.00448514   -0.00752166   -0.00161433
     atom   58 type  1   force =    -0.00389515   -0.00542929   -0.00103544
     atom   59 type  3   force =    -0.03898985   -0.03831432   -0.05612947
     atom   60 type  3   force =    -0.00479107   -0.00133452   -0.00111646
     atom   61 type  3   force =     0.00270982   -0.00093537   -0.01013974
     atom   62 type  3   force =     0.02909505   -0.04950821   -0.06062077
     atom   63 type  4   force =     0.00626326    0.00345536    0.02104791
     atom   64 type  4   force =     0.00436799    0.00244727    0.01457102
     atom   65 type  4   force =    -0.00066177    0.00293547    0.01270589
     atom   66 type  4   force =     0.00017095    0.00210212    0.01622940
     atom   67 type  4   force =     0.00106720   -0.00062925    0.03912756
     atom   68 type  4   force =    -0.00577275   -0.00385882   -0.01719909
     atom   69 type  4   force =     0.00785265    0.00452744   -0.00257186
     atom   70 type  4   force =     0.00176117   -0.00737330    0.03537494
     atom   71 type  4   force =    -0.00907691    0.03920101    0.00091314
     atom   72 type  4   force =     0.00231812   -0.00060719    0.00792799
     atom   73 type  4   force =    -0.03014489    0.00087942    0.00761337
     atom   74 type  4   force =    -0.01354794    0.00142052   -0.00043923
     atom   75 type  4   force =     0.01210687    0.00352222   -0.00251016
     atom   76 type  4   force =    -0.00242563   -0.00293914    0.00255618
     atom   77 type  4   force =     0.00917435    0.02578132   -0.00257946
     atom   78 type  4   force =     0.03351438   -0.00638648    0.00616512
     atom   79 type  1   force =     0.00015693    0.00055321    0.00056461
     atom   80 type  2   force =    -0.00009464   -0.00020819   -0.00001321
     atom   81 type  1   force =    -0.00010747    0.00016999   -0.00030363
     atom   82 type  1   force =    -0.00005965    0.00008055   -0.00009596
     atom   83 type  1   force =    -0.00064195    0.00020000    0.00026878
     atom   84 type  1   force =     0.00021005    0.00010358    0.00076545
     atom   85 type  3   force =    -0.00024454    0.00054269    0.00031399
     atom   86 type  3   force =    -0.00016892    0.00031652    0.00036463
     atom   87 type  3   force =    -0.00007924    0.00018003   -0.00005029
     atom   88 type  3   force =     0.00010124    0.00046427    0.00013009
     atom   89 type  4   force =    -0.00009505   -0.00050205    0.00003366
     atom   90 type  4   force =    -0.00003357    0.00068870    0.00021516
     atom   91 type  4   force =     0.00032610    0.00008693   -0.00018932
     atom   92 type  4   force =    -0.00055141   -0.00003869    0.00007297
     atom   93 type  4   force =     0.00030542   -0.00034548    0.00012843
     atom   94 type  4   force =     0.00002245   -0.00023613    0.00030026
     atom   95 type  4   force =    -0.00024334    0.00000195   -0.00018893
     atom   96 type  4   force =    -0.00000026   -0.00003845   -0.00001899
     atom   97 type  4   force =    -0.00009589    0.00056024   -0.00019205
     atom   98 type  4   force =     0.00012922   -0.00027877    0.00002878
     atom   99 type  4   force =    -0.00009802   -0.00006461   -0.00043938
     atom  100 type  4   force =     0.00028272    0.00054041   -0.00037786
     atom  101 type  4   force =     0.00027596   -0.00010952   -0.00022320
     atom  102 type  4   force =     0.00032733    0.00002030    0.00021045
     atom  103 type  4   force =    -0.00043001    0.00049152   -0.00051876
     atom  104 type  4   force =    -0.00033356    0.00056509    0.00010315
     atom  105 type  1   force =    -0.00627374   -0.00836708   -0.00302591
     atom  106 type  2   force =    -0.01196990    0.00007443   -0.00188030
     atom  107 type  1   force =     0.00319745   -0.00442517   -0.00066145
     atom  108 type  1   force =     0.00230869    0.00403201   -0.00182493
     atom  109 type  1   force =     0.00203582   -0.00476762   -0.00035723
     atom  110 type  1   force =    -0.00121252    0.00104815    0.00176883
     atom  111 type  3   force =    -0.00716173   -0.00083440   -0.00044143
     atom  112 type  3   force =    -0.00607309    0.00389730   -0.00145203
     atom  113 type  3   force =     0.00353853   -0.00104332   -0.00517032
     atom  114 type  3   force =     0.00106299   -0.00120827    0.00292351
     atom  115 type  4   force =     0.00873941    0.00499764   -0.00753635
     atom  116 type  4   force =     0.00351831   -0.00115700    0.02013107
     atom  117 type  4   force =    -0.00116515    0.00381107    0.01077262
     atom  118 type  4   force =    -0.00148623   -0.00245624   -0.00892666
     atom  119 type  4   force =     0.00212316    0.00846792    0.00627343
     atom  120 type  4   force =    -0.00555310   -0.00229239   -0.01743674
     atom  121 type  4   force =     0.01118618    0.00651628   -0.00724795
     atom  122 type  4   force =     0.00712293   -0.00310875    0.00593191
     atom  123 type  4   force =     0.00221667    0.00595844   -0.00065590
     atom  124 type  4   force =     0.00310001    0.00097663    0.00555507
     atom  125 type  4   force =    -0.01327049    0.00021005    0.00329550
     atom  126 type  4   force =    -0.01424427    0.00241622   -0.00304257
     atom  127 type  4   force =     0.01325535    0.00280599   -0.00483599
     atom  128 type  4   force =    -0.00419651   -0.00446029    0.00001935
     atom  129 type  4   force =    -0.00435742    0.00278593   -0.00061488
     atom  130 type  4   force =     0.01656100   -0.00321060    0.00417010
     atom  131 type  1   force =    -0.00756880   -0.00703329   -0.00862137
     atom  132 type  2   force =     0.01577707    0.01732114   -0.01010001
     atom  133 type  1   force =     0.00580559   -0.00491168   -0.00595778
     atom  134 type  1   force =    -0.02054052    0.01922523    0.01977015
     atom  135 type  1   force =     0.00447106   -0.00750540   -0.00161079
     atom  136 type  1   force =    -0.00389277   -0.00541851   -0.00100976
     atom  137 type  3   force =    -0.03902131   -0.03835910   -0.05608119
     atom  138 type  3   force =    -0.00495434   -0.00126302   -0.00116945
     atom  139 type  3   force =     0.00272080   -0.00102024   -0.01013914
     atom  140 type  3   force =     0.02910604   -0.04951006   -0.06061648
     atom  141 type  4   force =     0.00618242    0.00349895    0.02106056
     atom  142 type  4   force =     0.00441529    0.00234051    0.01452141
     atom  143 type  4   force =    -0.00057060    0.00285406    0.01273498
     atom  144 type  4   force =     0.00020616    0.00218828    0.01643237
     atom  145 type  4   force =     0.00121810   -0.00063070    0.03910004
     atom  146 type  4   force =    -0.00548490   -0.00389722   -0.01712739
     atom  147 type  4   force =     0.00784870    0.00459192   -0.00272377
     atom  148 type  4   force =     0.00164946   -0.00741256    0.03541738
     atom  149 type  4   force =    -0.00929611    0.03920778    0.00091422
     atom  150 type  4   force =     0.00212152   -0.00052399    0.00792238
     atom  151 type  4   force =    -0.03002534    0.00087872    0.00761215
     atom  152 type  4   force =    -0.01366538    0.00144295   -0.00044452
     atom  153 type  4   force =     0.01216061    0.00359649   -0.00253626
     atom  154 type  4   force =    -0.00244996   -0.00284677    0.00248736
     atom  155 type  4   force =     0.00906561    0.02583012   -0.00264158
     atom  156 type  4   force =     0.03350705   -0.00619178    0.00598913
     atom  157 type  4   force =     0.00599607    0.00095286   -0.00383860
     atom  158 type  5   force =    -0.00311825   -0.00231835    0.00206861

     Total force =     0.237182     Total SCF correction =     0.003556
 
     init_run     :      7.95s CPU      8.61s WALL (       1 calls)
     electrons    :   1777.07s CPU   1857.43s WALL (       1 calls)
     forces       :      4.18s CPU      4.50s WALL (       1 calls)
     force_london :      0.08s CPU      0.08s WALL (       1 calls)

     Called by init_run:
     wfcinit      :      4.73s CPU      4.92s WALL (       1 calls)
     potinit      :      0.71s CPU      0.87s WALL (       1 calls)
     hinit0       :      1.34s CPU      1.47s WALL (       1 calls)

     Called by electrons:
     c_bands      :   1383.79s CPU   1424.67s WALL (     133 calls)
     sum_band     :    246.79s CPU    268.60s WALL (     133 calls)
     v_of_rho     :     32.11s CPU     33.40s WALL (     134 calls)
     newd         :     70.47s CPU     86.68s WALL (     134 calls)
     mix_rho      :     41.57s CPU     41.80s WALL (     133 calls)
     energy_londo :      0.09s CPU      0.09s WALL (       1 calls)

     Called by c_bands:
     init_us_2    :      4.29s CPU      4.36s WALL (     536 calls)
     init_us_2:cp :      4.28s CPU      4.36s WALL (     536 calls)
     regterg      :   1354.16s CPU   1394.65s WALL (     267 calls)

     Called by *egterg:
     rdiaghg      :    365.43s CPU    384.00s WALL (     871 calls)
     h_psi        :    551.05s CPU    561.56s WALL (     873 calls)
     s_psi        :     94.52s CPU     94.60s WALL (     873 calls)
     g_psi        :      0.67s CPU      0.68s WALL (     604 calls)

     Called by h_psi:
     h_psi:calbec :    136.36s CPU    144.63s WALL (     873 calls)
     vloc_psi     :    318.17s CPU    319.38s WALL (     873 calls)
     add_vuspsi   :     95.18s CPU     96.18s WALL (     873 calls)

     General routines
     calbec       :    202.16s CPU    214.73s WALL (    1147 calls)
     fft          :     34.51s CPU     36.42s WALL (    2425 calls)
     ffts         :     24.53s CPU     24.57s WALL (   16637 calls)
     fftw         :    362.21s CPU    363.49s WALL (  445320 calls)
     interpolate  :      2.51s CPU      2.63s WALL (     268 calls)
 
     Parallel routines
 
     PWSCF        :  29m52.03s CPU  31m13.61s WALL

 
   This run was terminated on:  23:32:31  17Nov2025            

=------------------------------------------------------------------------------=
   JOB DONE.
=------------------------------------------------------------------------------=
