
     Program PWSCF v.7.2 starts on 17Nov2025 at 22:42:34 

     This program is part of the open-source Quantum ESPRESSO suite
     for quantum simulation of materials; please cite
         "P. Giannozzi et al., J. Phys.:Condens. Matter 21 395502 (2009);
         "P. Giannozzi et al., J. Phys.:Condens. Matter 29 465901 (2017);
         "P. Giannozzi et al., J. Chem. Phys. 152 154105 (2020);
          URL http://www.quantum-espresso.org", 
     in publications or presentations arising from this work. More details at
     http://www.quantum-espresso.org/quote

     Parallel version (MPI), running on    64 processors

     MPI processes distributed on     4 nodes
     448029 MiB available memory on the printing compute node when the environment starts
 
     Reading input from PWINPUT_atm157_ym

     Current dimensions of program PWSCF are:
     Max number of different atomic species (ntypx) = 10
     Max number of k-points (npk) =  40000
     Max angular momentum in pseudopotentials (lmaxx) =  4
     Presently no symmetry can be used with electric field

     file Ni.pbe-n-rrkjus_psl.1.0.0.UPF: wavefunction(s)  3D renormalized
     file Mn.pbe-spn-rrkjus_psl.0.3.1.UPF: wavefunction(s)  3D renormalized
     file O.pbe-rrkjus.UPF: wavefunction(s)  2S renormalized
     file H.pbe-rrkjus.UPF: wavefunction(s)  1S renormalized

     gamma-point specific algorithms are used
 
     R & G space division:  proc/nbgrp/npool/nimage =      64
     Subspace diagonalization in iterative solution of the eigenvalue problem:
     one sub-group per band group will be used
     custom distributed-memory algorithm (size of sub-group:  7*  7 procs)

 
     Parallelization info
     --------------------
     sticks:   dense  smooth     PW     G-vecs:    dense   smooth      PW
     Min         207      82     20                60552    15302    1896
     Max         210      84     22                60574    15336    1950
     Sum       13325    5345   1333              3876045   980655  122653
 
     Using Slab Decomposition
 


     bravais-lattice index     =            0
     lattice parameter (alat)  =      17.4067  a.u.
     unit-cell volume          =   20529.8182 (a.u.)^3
     number of atoms/cell      =          158
     number of atomic types    =            5
     number of electrons       =      1093.00
     number of Kohn-Sham states=          656
     kinetic-energy cutoff     =      50.0000  Ry
     charge density cutoff     =     500.0000  Ry
     scf convergence threshold =      1.0E-06
     mixing beta               =       0.1000
     number of iterations used =            8  local-TF  mixing
     Exchange-correlation=  SLA  PW   PBE  PBE
                           (   1   4   3   4   0   0   0)

     celldm(1)=  17.406729  celldm(2)=   0.000000  celldm(3)=   0.000000
     celldm(4)=   0.000000  celldm(5)=   0.000000  celldm(6)=   0.000000

     crystal axes: (cart. coord. in units of alat)
               a(1) = (   1.000000   0.000000   0.000000 )  
               a(2) = (  -0.001404   1.105696   0.000000 )  
               a(3) = (   0.000000   0.000000   3.520448 )  

     reciprocal axes: (cart. coord. in units 2 pi/alat)
               b(1) = (  1.000000  0.001270  0.000000 )  
               b(2) = (  0.000000  0.904408  0.000000 )  
               b(3) = (  0.000000  0.000000  0.284055 )  


     PseudoPot. # 1 for Ni read from file:
     ~/PSEUDO/Ni.pbe-n-rrkjus_psl.1.0.0.UPF
     MD5 check sum: Not computed, couldn't open file
     Pseudo is Ultrasoft + core correction, Zval = 10.0
     Generated using "atomic" code by A. Dal Corso  v.5.1.2
     Using radial grid of 1195 points,  6 beta functions with: 
                l(1) =   0
                l(2) =   0
                l(3) =   1
                l(4) =   1
                l(5) =   2
                l(6) =   2
     Q(r) pseudized with 0 coefficients 


     PseudoPot. # 2 for Mn read from file:
     ~/PSEUDO/Mn.pbe-spn-rrkjus_psl.0.3.1.UPF
     MD5 check sum: Not computed, couldn't open file
     Pseudo is Ultrasoft + core correction, Zval = 15.0
     Generated using &quot;atomic&quot; code by A. Dal Corso  v.6.2.2
     Using radial grid of 1187 points,  6 beta functions with: 
                l(1) =   0
                l(2) =   0
                l(3) =   1
                l(4) =   1
                l(5) =   2
                l(6) =   2
     Q(r) pseudized with 0 coefficients 


     PseudoPot. # 3 for P  read from file:
     ~/PSEUDO/P.pbe-n-rrkjus_psl.1.0.0.UPF
     MD5 check sum: Not computed, couldn't open file
     Pseudo is Ultrasoft + core correction, Zval =  5.0
     Generated using "atomic" code by A. Dal Corso  v.5.1
     Using radial grid of 1147 points,  6 beta functions with: 
                l(1) =   0
                l(2) =   0
                l(3) =   1
                l(4) =   1
                l(5) =   2
                l(6) =   2
     Q(r) pseudized with 0 coefficients 


     PseudoPot. # 4 for O  read from file:
     ~/PSEUDO/O.pbe-rrkjus.UPF
     MD5 check sum: Not computed, couldn't open file
     Pseudo is Ultrasoft, Zval =  6.0
     Generated by new atomic code, or converted to UPF format
     Using radial grid of 1269 points,  4 beta functions with: 
                l(1) =   0
                l(2) =   0
                l(3) =   1
                l(4) =   1
     Q(r) pseudized with 0 coefficients 


     PseudoPot. # 5 for H  read from file:
     ~/PSEUDO/H.pbe-rrkjus.UPF
     MD5 check sum: Not computed, couldn't open file
     Pseudo is Ultrasoft, Zval =  1.0
     Generated by new atomic code, or converted to UPF format
     Using radial grid of 1061 points,  2 beta functions with: 
                l(1) =   0
                l(2) =   0
     Q(r) pseudized with 0 coefficients 


     atomic species   valence    mass     pseudopotential
     Ni               10.00    58.69300     Ni( 1.00)
     Mn               15.00    54.93800     Mn( 1.00)
     P                 5.00    30.97300     P ( 1.00)
     O                 6.00    15.99900     O ( 1.00)
     H                 1.00     1.00790     H ( 1.00)

     Starting magnetic structure 
     atomic species   magnetization
     Ni              1.000
     Mn              1.000
     P               1.000
     O               1.000
     H               0.000

     No symmetry found



   Cartesian axes

     site n.     atom                  positions (alat units)
         1        Ni     tau(   1) = (   0.2407247   0.8678666   1.7788468  )
         2        Mn     tau(   2) = (   0.4849050   0.7928704   1.4298720  )
         3        Ni     tau(   3) = (  -0.0015463   0.3040756   1.7427651  )
         4        Ni     tau(   4) = (   0.2576988   0.2438884   1.4304882  )
         5        Ni     tau(   5) = (   0.4960089   1.1079636   1.5969794  )
         6        Ni     tau(   6) = (   0.2509439   0.5529914   1.6014984  )
         7        P      tau(   7) = (   0.2089048   1.0013970   1.4343524  )
         8        P      tau(   8) = (   0.4624796   0.6667191   1.7615344  )
         9        P      tau(   9) = (   0.2870509   0.1160398   1.7607833  )
        10        P      tau(  10) = (   0.0409376   0.4429602   1.4308127  )
        11        O      tau(  11) = (   0.1352892   0.9270454   1.5724618  )
        12        O      tau(  12) = (   0.3840209   0.7294626   1.6169117  )
        13        O      tau(  13) = (   0.3651818   0.1791486   1.6110775  )
        14        O      tau(  14) = (   0.1191348   0.3726454   1.5703673  )
        15        O      tau(  15) = (   0.1507888   0.9120623   1.3039965  )
        16        O      tau(  16) = (   0.4052423   0.7648049   1.8817709  )
        17        O      tau(  17) = (   0.3458822   0.2189915   1.8759922  )
        18        O      tau(  18) = (   0.1009621   0.3550841   1.3013183  )
        19        O      tau(  19) = (   0.0995916   0.6017289   1.4364553  )
        20        O      tau(  20) = (   0.3468601   1.0635796   1.7571918  )
        21        O      tau(  21) = (   0.3739296   0.4396566   1.4433176  )
        22        O      tau(  22) = (   0.1199364   0.1204540   1.7432983  )
        23        O      tau(  23) = (   0.1279675   0.6643683   1.7537820  )
        24        O      tau(  24) = (   0.4072413   0.5052188   1.7593813  )
        25        O      tau(  25) = (   0.1493697   0.0531357   1.4376636  )
        26        O      tau(  26) = (   0.3761102   0.9942916   1.4433476  )
        27        Ni     tau(  27) = (   0.2413539   0.8509941   1.1121345  )
        28        Mn     tau(  28) = (   0.4917018   0.7787406   0.7768134  )
        29        Ni     tau(  29) = (   0.0044877   0.2932623   1.1138982  )
        30        Ni     tau(  30) = (   0.2563139   0.2275682   0.7805625  )
        31        Ni     tau(  31) = (   0.4969120   1.0949007   0.9459116  )
        32        Ni     tau(  32) = (   0.2488318   0.5341111   0.9469721  )
        33        P      tau(  33) = (   0.2076029   0.9882917   0.7835381  )
        34        P      tau(  34) = (   0.4577012   0.6460068   1.1076436  )
        35        P      tau(  35) = (   0.2881931   0.0932770   1.1104179  )
        36        P      tau(  36) = (   0.0392916   0.4238898   0.7837243  )
        37        O      tau(  37) = (   0.1306755   0.9148866   0.9233554  )
        38        O      tau(  38) = (   0.3789780   0.7172835   0.9680652  )
        39        O      tau(  39) = (   0.3654852   0.1662865   0.9702638  )
        40        O      tau(  40) = (   0.1163776   0.3546954   0.9254186  )
        41        O      tau(  41) = (   0.1502901   0.8969129   0.6541592  )
        42        O      tau(  42) = (   0.3974525   0.7354243   1.2370031  )
        43        O      tau(  43) = (   0.3483097   0.1789497   1.2412670  )
        44        O      tau(  44) = (   0.0974932   0.3376387   0.6529083  )
        45        O      tau(  45) = (   0.0984699   0.5818903   0.7881021  )
        46        O      tau(  46) = (   0.3459978   1.0405493   1.1018526  )
        47        O      tau(  47) = (   0.3731719   0.4204123   0.7945555  )
        48        O      tau(  48) = (   0.1223503   0.0989699   1.1000566  )
        49        O      tau(  49) = (   0.1235438   0.6536772   1.0980598  )
        50        O      tau(  50) = (   0.4004339   0.4872435   1.1047245  )
        51        O      tau(  51) = (   0.1476543   0.0398268   0.7872561  )
        52        O      tau(  52) = (   0.3728637   0.9843360   0.7931368  )
        53        Ni     tau(  53) = (   0.2406075   0.8410745   0.4603118  )
        54        Mn     tau(  54) = (   0.4909555   0.7688210   0.1249907  )
        55        Ni     tau(  55) = (   0.0037414   0.2833427   0.4620755  )
        56        Ni     tau(  56) = (   0.2555676   0.2176485   0.1287398  )
        57        Ni     tau(  57) = (   0.4961657   1.0849810   0.2940889  )
        58        Ni     tau(  58) = (   0.2480854   0.5241915   0.2951494  )
        59        P      tau(  59) = (   0.2068565   0.9783721   0.1317154  )
        60        P      tau(  60) = (   0.4569549   0.6360871   0.4558210  )
        61        P      tau(  61) = (   0.2874467   0.0833574   0.4585952  )
        62        P      tau(  62) = (   0.0385452   0.4139702   0.1319017  )
        63        O      tau(  63) = (   0.1299291   0.9049669   0.2715327  )
        64        O      tau(  64) = (   0.3782317   0.7073639   0.3162425  )
        65        O      tau(  65) = (   0.3647389   0.1563669   0.3184411  )
        66        O      tau(  66) = (   0.1156313   0.3447757   0.2735959  )
        67        O      tau(  67) = (   0.1495437   0.8869933   0.0023366  )
        68        O      tau(  68) = (   0.3967062   0.7255047   0.5851804  )
        69        O      tau(  69) = (   0.3475634   0.1690300   0.5894443  )
        70        O      tau(  70) = (   0.0967469   0.3277190   0.0010856  )
        71        O      tau(  71) = (   0.0977236   0.5719706   0.1362794  )
        72        O      tau(  72) = (   0.3452514   1.0306297   0.4500300  )
        73        O      tau(  73) = (   0.3724256   0.4104926   0.1427328  )
        74        O      tau(  74) = (   0.1216040   0.0890503   0.4482339  )
        75        O      tau(  75) = (   0.1227974   0.6437575   0.4462371  )
        76        O      tau(  76) = (   0.3996875   0.4773239   0.4529018  )
        77        O      tau(  77) = (   0.1469079   0.0299071   0.1354334  )
        78        O      tau(  78) = (   0.3721173   0.9744163   0.1413141  )
        79        Ni     tau(  79) = (   0.7503448   0.8592094   1.7463632  )
        80        Mn     tau(  80) = (   0.9872971   0.7933476   1.4295363  )
        81        Ni     tau(  81) = (   0.4979646   0.3082874   1.7425819  )
        82        Ni     tau(  82) = (   0.7578558   0.2432444   1.4303909  )
        83        Ni     tau(  83) = (   0.9978877   1.1049697   1.6005729  )
        84        Ni     tau(  84) = (   0.7517688   0.5502669   1.5982123  )
        85        P      tau(  85) = (   0.7086164   1.0024684   1.4323347  )
        86        P      tau(  86) = (   0.9608587   0.6587254   1.7669171  )
        87        P      tau(  87) = (   0.7853186   0.1123438   1.7615591  )
        88        P      tau(  88) = (   0.5402593   0.4436461   1.4299959  )
        89        O      tau(  89) = (   0.6336250   0.9299726   1.5717212  )
        90        O      tau(  90) = (   0.8855214   0.7268460   1.6205628  )
        91        O      tau(  91) = (   0.8638479   0.1737568   1.6123671  )
        92        O      tau(  92) = (   0.6187851   0.3726638   1.5694972  )
        93        O      tau(  93) = (   0.6499804   0.9114421   1.3038010  )
        94        O      tau(  94) = (   0.8956097   0.7537924   1.8860885  )
        95        O      tau(  95) = (   0.8474504   0.2119799   1.8776314  )
        96        O      tau(  96) = (   0.6006963   0.3549684   1.3012062  )
        97        O      tau(  97) = (   0.6002576   0.6021520   1.4346509  )
        98        O      tau(  98) = (   0.8385044   1.0568597   1.7610063  )
        99        O      tau(  99) = (   0.8744145   0.4373900   1.4436920  )
       100        O      tau( 100) = (   0.6180356   0.1193672   1.7459243  )
       101        O      tau( 101) = (   0.6301005   0.6707638   1.7450210  )
       102        O      tau( 102) = (   0.9037180   0.4985801   1.7585357  )
       103        O      tau( 103) = (   0.6488284   0.0538192   1.4351739  )
       104        O      tau( 104) = (   0.8752493   0.9934614   1.4449032  )
       105        Ni     tau( 105) = (   0.7413539   0.8509941   1.1121345  )
       106        Mn     tau( 106) = (   0.9917018   0.7787406   0.7768134  )
       107        Ni     tau( 107) = (   0.5044877   0.2932623   1.1138982  )
       108        Ni     tau( 108) = (   0.7563139   0.2275682   0.7805625  )
       109        Ni     tau( 109) = (   0.9969120   1.0949007   0.9459116  )
       110        Ni     tau( 110) = (   0.7488318   0.5341111   0.9469721  )
       111        P      tau( 111) = (   0.7076029   0.9882917   0.7835381  )
       112        P      tau( 112) = (   0.9577012   0.6460068   1.1076436  )
       113        P      tau( 113) = (   0.7881931   0.0932770   1.1104179  )
       114        P      tau( 114) = (   0.5392916   0.4238898   0.7837243  )
       115        O      tau( 115) = (   0.6306755   0.9148866   0.9233554  )
       116        O      tau( 116) = (   0.8789780   0.7172835   0.9680652  )
       117        O      tau( 117) = (   0.8654852   0.1662865   0.9702638  )
       118        O      tau( 118) = (   0.6163776   0.3546954   0.9254186  )
       119        O      tau( 119) = (   0.6502901   0.8969129   0.6541592  )
       120        O      tau( 120) = (   0.8974525   0.7354243   1.2370031  )
       121        O      tau( 121) = (   0.8483097   0.1789497   1.2412670  )
       122        O      tau( 122) = (   0.5974932   0.3376387   0.6529083  )
       123        O      tau( 123) = (   0.5984699   0.5818903   0.7881021  )
       124        O      tau( 124) = (   0.8459978   1.0405493   1.1018526  )
       125        O      tau( 125) = (   0.8731719   0.4204123   0.7945555  )
       126        O      tau( 126) = (   0.6223503   0.0989699   1.1000566  )
       127        O      tau( 127) = (   0.6235438   0.6536772   1.0980598  )
       128        O      tau( 128) = (   0.9004339   0.4872435   1.1047245  )
       129        O      tau( 129) = (   0.6476543   0.0398268   0.7872561  )
       130        O      tau( 130) = (   0.8728637   0.9843360   0.7931368  )
       131        Ni     tau( 131) = (   0.7406075   0.8410745   0.4603118  )
       132        Mn     tau( 132) = (   0.9909555   0.7688210   0.1249907  )
       133        Ni     tau( 133) = (   0.5037414   0.2833427   0.4620755  )
       134        Ni     tau( 134) = (   0.7555676   0.2176485   0.1287398  )
       135        Ni     tau( 135) = (   0.9961657   1.0849810   0.2940889  )
       136        Ni     tau( 136) = (   0.7480854   0.5241915   0.2951494  )
       137        P      tau( 137) = (   0.7068565   0.9783721   0.1317154  )
       138        P      tau( 138) = (   0.9569549   0.6360871   0.4558210  )
       139        P      tau( 139) = (   0.7874467   0.0833574   0.4585952  )
       140        P      tau( 140) = (   0.5385452   0.4139702   0.1319017  )
       141        O      tau( 141) = (   0.6299291   0.9049669   0.2715327  )
       142        O      tau( 142) = (   0.8782317   0.7073639   0.3162425  )
       143        O      tau( 143) = (   0.8647389   0.1563669   0.3184411  )
       144        O      tau( 144) = (   0.6156313   0.3447757   0.2735959  )
       145        O      tau( 145) = (   0.6495437   0.8869933   0.0023366  )
       146        O      tau( 146) = (   0.8967062   0.7255047   0.5851804  )
       147        O      tau( 147) = (   0.8475634   0.1690300   0.5894443  )
       148        O      tau( 148) = (   0.5967469   0.3277190   0.0010856  )
       149        O      tau( 149) = (   0.5977236   0.5719706   0.1362794  )
       150        O      tau( 150) = (   0.8452514   1.0306297   0.4500300  )
       151        O      tau( 151) = (   0.8724256   0.4104926   0.1427328  )
       152        O      tau( 152) = (   0.6216040   0.0890503   0.4482339  )
       153        O      tau( 153) = (   0.6227974   0.6437575   0.4462371  )
       154        O      tau( 154) = (   0.8996875   0.4773239   0.4529018  )
       155        O      tau( 155) = (   0.6469079   0.0299071   0.1354334  )
       156        O      tau( 156) = (   0.8721173   0.9744163   0.1413141  )
       157        O      tau( 157) = (   1.1200851   0.9524093   1.9086669  )
       158        H      tau( 158) = (   1.0374101   0.8901699   1.9356829  )

     -------------------------------------------------
     Parameters for Dispersion (Grimme-D2) Correction:
     -------------------------------------------------
       atom      VdW radius       C_6     

        Ni         2.952        374.666
        Mn         2.952        374.666
        P          3.222        271.980
        O          2.536         24.284
        H          1.892          4.857

     number of k points=     1  Gaussian smearing, width (Ry)=  0.0100
                       cart. coord. in units 2pi/alat
        k(    1) = (   0.0000000   0.0000000   0.0000000), wk =   1.0000000

     Dense  grid:  1938023 G-vectors     FFT dimensions: ( 125, 144, 450)

     Smooth grid:   490328 G-vectors     FFT dimensions: (  80,  90, 288)

     Estimated max dynamical RAM per process >     326.29 MB

     Estimated total dynamical RAM >      20.39 GB

     Check: negative core charge=   -0.000001
     Generating pointlists ...
     new r_m :   0.0810 (alat units)  1.4099 (a.u.) for type    1
     new r_m :   0.0905 (alat units)  1.5755 (a.u.) for type    2
     new r_m :   0.0681 (alat units)  1.1855 (a.u.) for type    3
     new r_m :   0.0441 (alat units)  0.7679 (a.u.) for type    4
     new r_m :   0.0441 (alat units)  0.7679 (a.u.) for type    5

     Initial potential from superposition of free atoms

     starting charge    1092.8893, renormalised to    1093.0000

     negative rho (up, down):  1.397E-03 4.551E-04
 
     Adding external electric field

     Computed dipole along edir(3) : 
        Dipole                1.6517 Ry au,          4.1983 Debye
        Dipole field          0.0010 Ry au, 
 
        Potential amp.       -0.1115 Ry
        Total length         55.1515 bohr
 
 
     Adding external electric field

     Computed dipole along edir(3) : 
        Dipole                1.6517 Ry au,          4.1983 Debye
        Dipole field          0.0010 Ry au, 
 
        Potential amp.       -0.1115 Ry
        Total length         55.1515 bohr
 
     Starting wfcs are  815 randomized atomic wfcs

     total cpu time spent up to now is       11.6 secs

     Self-consistent Calculation

     iteration #  1     ecut=    50.00 Ry     beta= 0.10
     Davidson diagonalization with overlap
     ethr =  1.00E-02,  avg # of iterations =  6.0

     negative rho (up, down):  3.938E-01 6.099E-06
 
     Adding external electric field

     Computed dipole along edir(3) : 
        Dipole               -3.4721 Ry au,         -8.8253 Debye
        Dipole field         -0.0021 Ry au, 
 
        Potential amp.        0.2344 Ry
        Total length         55.1515 bohr
 
 
     Adding external electric field

     Computed dipole along edir(3) : 
        Dipole               -3.4721 Ry au,         -8.8253 Debye
        Dipole field         -0.0021 Ry au, 
 
        Potential amp.        0.2344 Ry
        Total length         55.1515 bohr
 

     total cpu time spent up to now is       38.7 secs

     total energy              =   -7519.64819039 Ry
     estimated scf accuracy    <     796.89580451 Ry

     total magnetization       =   219.00 Bohr mag/cell
     absolute magnetization    =   307.70 Bohr mag/cell

     iteration #  2     ecut=    50.00 Ry     beta= 0.10
     Davidson diagonalization with overlap
     ethr =  1.00E-02,  avg # of iterations =  2.0

     negative rho (up, down):  3.652E-01 3.709E-06
 
     Adding external electric field

     Computed dipole along edir(3) : 
        Dipole               -2.4550 Ry au,         -6.2400 Debye
        Dipole field         -0.0015 Ry au, 
 
        Potential amp.        0.1658 Ry
        Total length         55.1515 bohr
 
 
     Adding external electric field

     Computed dipole along edir(3) : 
        Dipole               -2.4550 Ry au,         -6.2400 Debye
        Dipole field         -0.0015 Ry au, 
 
        Potential amp.        0.1658 Ry
        Total length         55.1515 bohr
 

     total cpu time spent up to now is       54.6 secs

     total energy              =   -7602.03879823 Ry
     estimated scf accuracy    <     183.30650253 Ry

     total magnetization       =   155.29 Bohr mag/cell
     absolute magnetization    =   204.94 Bohr mag/cell

     iteration #  3     ecut=    50.00 Ry     beta= 0.10
     Davidson diagonalization with overlap
     ethr =  1.00E-02,  avg # of iterations =  1.5

     negative rho (up, down):  3.218E-01 3.456E-06
 
     Adding external electric field

     Computed dipole along edir(3) : 
        Dipole               -2.0475 Ry au,         -5.2041 Debye
        Dipole field         -0.0013 Ry au, 
 
        Potential amp.        0.1382 Ry
        Total length         55.1515 bohr
 
 
     Adding external electric field

     Computed dipole along edir(3) : 
        Dipole               -2.0475 Ry au,         -5.2041 Debye
        Dipole field         -0.0013 Ry au, 
 
        Potential amp.        0.1382 Ry
        Total length         55.1515 bohr
 

     total cpu time spent up to now is       67.7 secs

     total energy              =   -7633.80810504 Ry
     estimated scf accuracy    <     103.13087320 Ry

     total magnetization       =   132.50 Bohr mag/cell
     absolute magnetization    =   183.64 Bohr mag/cell

     iteration #  4     ecut=    50.00 Ry     beta= 0.10
     Davidson diagonalization with overlap
     ethr =  9.44E-03,  avg # of iterations =  1.5

     negative rho (up, down):  2.495E-01 1.247E-06
 
     Adding external electric field

     Computed dipole along edir(3) : 
        Dipole               -1.9497 Ry au,         -4.9557 Debye
        Dipole field         -0.0012 Ry au, 
 
        Potential amp.        0.1316 Ry
        Total length         55.1515 bohr
 
 
     Adding external electric field

     Computed dipole along edir(3) : 
        Dipole               -1.9497 Ry au,         -4.9557 Debye
        Dipole field         -0.0012 Ry au, 
 
        Potential amp.        0.1316 Ry
        Total length         55.1515 bohr
 

     total cpu time spent up to now is       80.4 secs

     total energy              =   -7666.23698750 Ry
     estimated scf accuracy    <      80.79337202 Ry

     total magnetization       =   116.34 Bohr mag/cell
     absolute magnetization    =   168.93 Bohr mag/cell

     iteration #  5     ecut=    50.00 Ry     beta= 0.10
     Davidson diagonalization with overlap
     ethr =  7.39E-03,  avg # of iterations =  1.0

     negative rho (up, down):  1.935E-02 5.705E-07
 
     Adding external electric field

     Computed dipole along edir(3) : 
        Dipole               -1.4735 Ry au,         -3.7454 Debye
        Dipole field         -0.0009 Ry au, 
 
        Potential amp.        0.0995 Ry
        Total length         55.1515 bohr
 
 
     Adding external electric field

     Computed dipole along edir(3) : 
        Dipole               -1.4735 Ry au,         -3.7454 Debye
        Dipole field         -0.0009 Ry au, 
 
        Potential amp.        0.0995 Ry
        Total length         55.1515 bohr
 

     total cpu time spent up to now is       92.3 secs

     total energy              =   -7725.77232621 Ry
     estimated scf accuracy    <      63.83439124 Ry

     total magnetization       =    97.04 Bohr mag/cell
     absolute magnetization    =   151.06 Bohr mag/cell

     iteration #  6     ecut=    50.00 Ry     beta= 0.10
     Davidson diagonalization with overlap
     ethr =  5.84E-03,  avg # of iterations =  1.0

     negative rho (up, down):  3.179E-04 5.936E-04
 
     Adding external electric field

     Computed dipole along edir(3) : 
        Dipole               -1.1234 Ry au,         -2.8553 Debye
        Dipole field         -0.0007 Ry au, 
 
        Potential amp.        0.0758 Ry
        Total length         55.1515 bohr
 
 
     Adding external electric field

     Computed dipole along edir(3) : 
        Dipole               -1.1234 Ry au,         -2.8553 Debye
        Dipole field         -0.0007 Ry au, 
 
        Potential amp.        0.0758 Ry
        Total length         55.1515 bohr
 

     total cpu time spent up to now is      103.6 secs

     total energy              =   -7736.24677835 Ry
     estimated scf accuracy    <      11.61886733 Ry

     total magnetization       =    91.00 Bohr mag/cell
     absolute magnetization    =   122.42 Bohr mag/cell

     iteration #  7     ecut=    50.00 Ry     beta= 0.10
     Davidson diagonalization with overlap
     ethr =  1.06E-03,  avg # of iterations =  6.0

     negative rho (up, down):  3.137E-04 6.099E-04
 
     Adding external electric field

     Computed dipole along edir(3) : 
        Dipole               -1.1114 Ry au,         -2.8249 Debye
        Dipole field         -0.0007 Ry au, 
 
        Potential amp.        0.0750 Ry
        Total length         55.1515 bohr
 
 
     Adding external electric field

     Computed dipole along edir(3) : 
        Dipole               -1.1114 Ry au,         -2.8249 Debye
        Dipole field         -0.0007 Ry au, 
 
        Potential amp.        0.0750 Ry
        Total length         55.1515 bohr
 

     total cpu time spent up to now is      125.4 secs

     total energy              =   -7738.30434465 Ry
     estimated scf accuracy    <      20.28301967 Ry

     total magnetization       =    70.31 Bohr mag/cell
     absolute magnetization    =    87.46 Bohr mag/cell

     iteration #  8     ecut=    50.00 Ry     beta= 0.10
     Davidson diagonalization with overlap
     ethr =  1.06E-03,  avg # of iterations =  1.0

     negative rho (up, down):  3.131E-04 5.912E-04
 
     Adding external electric field

     Computed dipole along edir(3) : 
        Dipole               -1.1024 Ry au,         -2.8021 Debye
        Dipole field         -0.0007 Ry au, 
 
        Potential amp.        0.0744 Ry
        Total length         55.1515 bohr
 
 
     Adding external electric field

     Computed dipole along edir(3) : 
        Dipole               -1.1024 Ry au,         -2.8021 Debye
        Dipole field         -0.0007 Ry au, 
 
        Potential amp.        0.0744 Ry
        Total length         55.1515 bohr
 

     total cpu time spent up to now is      136.7 secs

     total energy              =   -7738.31275285 Ry
     estimated scf accuracy    <      19.36015477 Ry

     total magnetization       =    70.63 Bohr mag/cell
     absolute magnetization    =    87.30 Bohr mag/cell

     iteration #  9     ecut=    50.00 Ry     beta= 0.10
     Davidson diagonalization with overlap
     ethr =  1.06E-03,  avg # of iterations =  1.0

     negative rho (up, down):  5.442E-04 1.652E-03
 
     Adding external electric field

     Computed dipole along edir(3) : 
        Dipole               -0.9948 Ry au,         -2.5286 Debye
        Dipole field         -0.0006 Ry au, 
 
        Potential amp.        0.0672 Ry
        Total length         55.1515 bohr
 
 
     Adding external electric field

     Computed dipole along edir(3) : 
        Dipole               -0.9948 Ry au,         -2.5286 Debye
        Dipole field         -0.0006 Ry au, 
 
        Potential amp.        0.0672 Ry
        Total length         55.1515 bohr
 

     total cpu time spent up to now is      148.5 secs

     total energy              =   -7737.96337870 Ry
     estimated scf accuracy    <      18.66561332 Ry

     total magnetization       =    70.87 Bohr mag/cell
     absolute magnetization    =    87.18 Bohr mag/cell

     iteration # 10     ecut=    50.00 Ry     beta= 0.10
     Davidson diagonalization with overlap
     ethr =  1.06E-03,  avg # of iterations =  1.0

     negative rho (up, down):  1.677E-03 3.049E-03
 
     Adding external electric field

     Computed dipole along edir(3) : 
        Dipole               -0.9660 Ry au,         -2.4553 Debye
        Dipole field         -0.0006 Ry au, 
 
        Potential amp.        0.0652 Ry
        Total length         55.1515 bohr
 
 
     Adding external electric field

     Computed dipole along edir(3) : 
        Dipole               -0.9660 Ry au,         -2.4553 Debye
        Dipole field         -0.0006 Ry au, 
 
        Potential amp.        0.0652 Ry
        Total length         55.1515 bohr
 

     total cpu time spent up to now is      159.2 secs

     total energy              =   -7737.96263606 Ry
     estimated scf accuracy    <      11.11200236 Ry

     total magnetization       =    75.91 Bohr mag/cell
     absolute magnetization    =    89.06 Bohr mag/cell

     iteration # 11     ecut=    50.00 Ry     beta= 0.10
     Davidson diagonalization with overlap
     ethr =  1.02E-03,  avg # of iterations =  1.0

     negative rho (up, down):  1.641E-03 3.568E-03
 
     Adding external electric field

     Computed dipole along edir(3) : 
        Dipole               -0.9082 Ry au,         -2.3083 Debye
        Dipole field         -0.0006 Ry au, 
 
        Potential amp.        0.0613 Ry
        Total length         55.1515 bohr
 
 
     Adding external electric field

     Computed dipole along edir(3) : 
        Dipole               -0.9082 Ry au,         -2.3083 Debye
        Dipole field         -0.0006 Ry au, 
 
        Potential amp.        0.0613 Ry
        Total length         55.1515 bohr
 

     total cpu time spent up to now is      170.0 secs

     total energy              =   -7738.01256540 Ry
     estimated scf accuracy    <       7.24063116 Ry

     total magnetization       =    81.69 Bohr mag/cell
     absolute magnetization    =    92.80 Bohr mag/cell

     iteration # 12     ecut=    50.00 Ry     beta= 0.10
     Davidson diagonalization with overlap
     ethr =  6.62E-04,  avg # of iterations =  1.5

     negative rho (up, down):  1.065E-03 3.014E-03
 
     Adding external electric field

     Computed dipole along edir(3) : 
        Dipole               -0.9118 Ry au,         -2.3175 Debye
        Dipole field         -0.0006 Ry au, 
 
        Potential amp.        0.0616 Ry
        Total length         55.1515 bohr
 
 
     Adding external electric field

     Computed dipole along edir(3) : 
        Dipole               -0.9118 Ry au,         -2.3175 Debye
        Dipole field         -0.0006 Ry au, 
 
        Potential amp.        0.0616 Ry
        Total length         55.1515 bohr
 

     total cpu time spent up to now is      181.3 secs

     total energy              =   -7738.01836051 Ry
     estimated scf accuracy    <       7.58560204 Ry

     total magnetization       =    80.71 Bohr mag/cell
     absolute magnetization    =    91.53 Bohr mag/cell

     iteration # 13     ecut=    50.00 Ry     beta= 0.10
     Davidson diagonalization with overlap
     ethr =  6.62E-04,  avg # of iterations =  1.0

     negative rho (up, down):  1.539E-03 3.990E-03
 
     Adding external electric field

     Computed dipole along edir(3) : 
        Dipole               -0.8817 Ry au,         -2.2411 Debye
        Dipole field         -0.0005 Ry au, 
 
        Potential amp.        0.0595 Ry
        Total length         55.1515 bohr
 
 
     Adding external electric field

     Computed dipole along edir(3) : 
        Dipole               -0.8817 Ry au,         -2.2411 Debye
        Dipole field         -0.0005 Ry au, 
 
        Potential amp.        0.0595 Ry
        Total length         55.1515 bohr
 

     total cpu time spent up to now is      193.2 secs

     total energy              =   -7738.00295777 Ry
     estimated scf accuracy    <       9.11381362 Ry

     total magnetization       =    78.38 Bohr mag/cell
     absolute magnetization    =    89.53 Bohr mag/cell

     iteration # 14     ecut=    50.00 Ry     beta= 0.10
     Davidson diagonalization with overlap
     ethr =  6.62E-04,  avg # of iterations =  1.5

     negative rho (up, down):  7.184E-03 8.229E-03
 
     Adding external electric field

     Computed dipole along edir(3) : 
        Dipole               -0.8396 Ry au,         -2.1341 Debye
        Dipole field         -0.0005 Ry au, 
 
        Potential amp.        0.0567 Ry
        Total length         55.1515 bohr
 
 
     Adding external electric field

     Computed dipole along edir(3) : 
        Dipole               -0.8396 Ry au,         -2.1341 Debye
        Dipole field         -0.0005 Ry au, 
 
        Potential amp.        0.0567 Ry
        Total length         55.1515 bohr
 

     total cpu time spent up to now is      204.6 secs

     total energy              =   -7737.81794922 Ry
     estimated scf accuracy    <       8.14257783 Ry

     total magnetization       =    79.64 Bohr mag/cell
     absolute magnetization    =    90.19 Bohr mag/cell

     iteration # 15     ecut=    50.00 Ry     beta= 0.10
     Davidson diagonalization with overlap
     ethr =  6.62E-04,  avg # of iterations =  1.0

     negative rho (up, down):  4.842E-03 6.896E-03
 
     Adding external electric field

     Computed dipole along edir(3) : 
        Dipole               -0.8341 Ry au,         -2.1201 Debye
        Dipole field         -0.0005 Ry au, 
 
        Potential amp.        0.0563 Ry
        Total length         55.1515 bohr
 
 
     Adding external electric field

     Computed dipole along edir(3) : 
        Dipole               -0.8341 Ry au,         -2.1201 Debye
        Dipole field         -0.0005 Ry au, 
 
        Potential amp.        0.0563 Ry
        Total length         55.1515 bohr
 

     total cpu time spent up to now is      216.1 secs

     total energy              =   -7738.10943865 Ry
     estimated scf accuracy    <       1.32536338 Ry

     total magnetization       =    90.74 Bohr mag/cell
     absolute magnetization    =    98.07 Bohr mag/cell

     iteration # 16     ecut=    50.00 Ry     beta= 0.10
     Davidson diagonalization with overlap
     ethr =  1.21E-04,  avg # of iterations =  2.5

     negative rho (up, down):  3.701E-03 6.014E-03
 
     Adding external electric field

     Computed dipole along edir(3) : 
        Dipole               -0.8610 Ry au,         -2.1885 Debye
        Dipole field         -0.0005 Ry au, 
 
        Potential amp.        0.0581 Ry
        Total length         55.1515 bohr
 
 
     Adding external electric field

     Computed dipole along edir(3) : 
        Dipole               -0.8610 Ry au,         -2.1885 Debye
        Dipole field         -0.0005 Ry au, 
 
        Potential amp.        0.0581 Ry
        Total length         55.1515 bohr
 

     total cpu time spent up to now is      229.3 secs

     total energy              =   -7738.09836308 Ry
     estimated scf accuracy    <       1.25661950 Ry

     total magnetization       =    89.53 Bohr mag/cell
     absolute magnetization    =    96.56 Bohr mag/cell

     iteration # 17     ecut=    50.00 Ry     beta= 0.10
     Davidson diagonalization with overlap
     ethr =  1.15E-04,  avg # of iterations =  1.5

     negative rho (up, down):  2.567E-03 4.658E-03
 
     Adding external electric field

     Computed dipole along edir(3) : 
        Dipole               -0.9101 Ry au,         -2.3132 Debye
        Dipole field         -0.0006 Ry au, 
 
        Potential amp.        0.0614 Ry
        Total length         55.1515 bohr
 
 
     Adding external electric field

     Computed dipole along edir(3) : 
        Dipole               -0.9101 Ry au,         -2.3132 Debye
        Dipole field         -0.0006 Ry au, 
 
        Potential amp.        0.0614 Ry
        Total length         55.1515 bohr
 

     total cpu time spent up to now is      241.1 secs

     total energy              =   -7738.11605989 Ry
     estimated scf accuracy    <       1.22876204 Ry

     total magnetization       =    88.48 Bohr mag/cell
     absolute magnetization    =    95.34 Bohr mag/cell

     iteration # 18     ecut=    50.00 Ry     beta= 0.10
     Davidson diagonalization with overlap
     ethr =  1.12E-04,  avg # of iterations =  1.5

     negative rho (up, down):  3.008E-03 4.792E-03
 
     Adding external electric field

     Computed dipole along edir(3) : 
        Dipole               -0.9396 Ry au,         -2.3882 Debye
        Dipole field         -0.0006 Ry au, 
 
        Potential amp.        0.0634 Ry
        Total length         55.1515 bohr
 
 
     Adding external electric field

     Computed dipole along edir(3) : 
        Dipole               -0.9396 Ry au,         -2.3882 Debye
        Dipole field         -0.0006 Ry au, 
 
        Potential amp.        0.0634 Ry
        Total length         55.1515 bohr
 

     total cpu time spent up to now is      253.5 secs

     total energy              =   -7738.15229055 Ry
     estimated scf accuracy    <       1.43762204 Ry

     total magnetization       =    85.53 Bohr mag/cell
     absolute magnetization    =    92.17 Bohr mag/cell

     iteration # 19     ecut=    50.00 Ry     beta= 0.10
     Davidson diagonalization with overlap
     ethr =  1.12E-04,  avg # of iterations =  1.5

     negative rho (up, down):  3.241E-04 1.454E-03
 
     Adding external electric field

     Computed dipole along edir(3) : 
        Dipole               -1.0815 Ry au,         -2.7488 Debye
        Dipole field         -0.0007 Ry au, 
 
        Potential amp.        0.0730 Ry
        Total length         55.1515 bohr
 
 
     Adding external electric field

     Computed dipole along edir(3) : 
        Dipole               -1.0815 Ry au,         -2.7488 Debye
        Dipole field         -0.0007 Ry au, 
 
        Potential amp.        0.0730 Ry
        Total length         55.1515 bohr
 

     total cpu time spent up to now is      265.4 secs

     total energy              =   -7738.23325815 Ry
     estimated scf accuracy    <       0.54957526 Ry

     total magnetization       =    88.39 Bohr mag/cell
     absolute magnetization    =    94.22 Bohr mag/cell

     iteration # 20     ecut=    50.00 Ry     beta= 0.10
     Davidson diagonalization with overlap
     ethr =  5.03E-05,  avg # of iterations = 11.0

     negative rho (up, down):  6.621E-04 1.908E-03
 
     Adding external electric field

     Computed dipole along edir(3) : 
        Dipole               -1.0533 Ry au,         -2.6772 Debye
        Dipole field         -0.0006 Ry au, 
 
        Potential amp.        0.0711 Ry
        Total length         55.1515 bohr
 
 
     Adding external electric field

     Computed dipole along edir(3) : 
        Dipole               -1.0533 Ry au,         -2.6772 Debye
        Dipole field         -0.0006 Ry au, 
 
        Potential amp.        0.0711 Ry
        Total length         55.1515 bohr
 

     total cpu time spent up to now is      286.2 secs

     total energy              =   -7738.25701477 Ry
     estimated scf accuracy    <       1.18910729 Ry

     total magnetization       =    84.29 Bohr mag/cell
     absolute magnetization    =    88.05 Bohr mag/cell

     iteration # 21     ecut=    50.00 Ry     beta= 0.10
     Davidson diagonalization with overlap
     ethr =  5.03E-05,  avg # of iterations =  1.5

     negative rho (up, down):  7.557E-04 1.197E-03
 
     Adding external electric field

     Computed dipole along edir(3) : 
        Dipole               -1.0814 Ry au,         -2.7487 Debye
        Dipole field         -0.0007 Ry au, 
 
        Potential amp.        0.0730 Ry
        Total length         55.1515 bohr
 
 
     Adding external electric field

     Computed dipole along edir(3) : 
        Dipole               -1.0814 Ry au,         -2.7487 Debye
        Dipole field         -0.0007 Ry au, 
 
        Potential amp.        0.0730 Ry
        Total length         55.1515 bohr
 

     total cpu time spent up to now is      298.2 secs

     total energy              =   -7738.31724033 Ry
     estimated scf accuracy    <       0.20637616 Ry

     total magnetization       =    87.83 Bohr mag/cell
     absolute magnetization    =    90.34 Bohr mag/cell

     iteration # 22     ecut=    50.00 Ry     beta= 0.10
     Davidson diagonalization with overlap
     c_bands:  2 eigenvalues not converged
     ethr =  1.89E-05,  avg # of iterations = 10.5

     negative rho (up, down):  7.075E-04 5.937E-04
 
     Adding external electric field

     Computed dipole along edir(3) : 
        Dipole               -1.1346 Ry au,         -2.8838 Debye
        Dipole field         -0.0007 Ry au, 
 
        Potential amp.        0.0766 Ry
        Total length         55.1515 bohr
 
 
     Adding external electric field

     Computed dipole along edir(3) : 
        Dipole               -1.1346 Ry au,         -2.8838 Debye
        Dipole field         -0.0007 Ry au, 
 
        Potential amp.        0.0766 Ry
        Total length         55.1515 bohr
 

     total cpu time spent up to now is      314.9 secs

     total energy              =   -7738.31662161 Ry
     estimated scf accuracy    <       0.18086790 Ry

     total magnetization       =    88.82 Bohr mag/cell
     absolute magnetization    =    90.69 Bohr mag/cell

     iteration # 23     ecut=    50.00 Ry     beta= 0.10
     Davidson diagonalization with overlap
     ethr =  1.65E-05,  avg # of iterations =  3.0

     negative rho (up, down):  6.461E-04 5.236E-04
 
     Adding external electric field

     Computed dipole along edir(3) : 
        Dipole               -1.1467 Ry au,         -2.9146 Debye
        Dipole field         -0.0007 Ry au, 
 
        Potential amp.        0.0774 Ry
        Total length         55.1515 bohr
 
 
     Adding external electric field

     Computed dipole along edir(3) : 
        Dipole               -1.1467 Ry au,         -2.9146 Debye
        Dipole field         -0.0007 Ry au, 
 
        Potential amp.        0.0774 Ry
        Total length         55.1515 bohr
 

     total cpu time spent up to now is      328.9 secs

     total energy              =   -7738.33056517 Ry
     estimated scf accuracy    <       0.32975805 Ry

     total magnetization       =    87.67 Bohr mag/cell
     absolute magnetization    =    89.24 Bohr mag/cell

     iteration # 24     ecut=    50.00 Ry     beta= 0.10
     Davidson diagonalization with overlap
     ethr =  1.65E-05,  avg # of iterations =  1.5

     negative rho (up, down):  3.812E-04 4.825E-04
 
     Adding external electric field

     Computed dipole along edir(3) : 
        Dipole               -1.1202 Ry au,         -2.8472 Debye
        Dipole field         -0.0007 Ry au, 
 
        Potential amp.        0.0756 Ry
        Total length         55.1515 bohr
 
 
     Adding external electric field

     Computed dipole along edir(3) : 
        Dipole               -1.1202 Ry au,         -2.8472 Debye
        Dipole field         -0.0007 Ry au, 
 
        Potential amp.        0.0756 Ry
        Total length         55.1515 bohr
 

     total cpu time spent up to now is      341.1 secs

     total energy              =   -7738.33347867 Ry
     estimated scf accuracy    <       0.55355227 Ry

     total magnetization       =    87.19 Bohr mag/cell
     absolute magnetization    =    88.82 Bohr mag/cell

     iteration # 25     ecut=    50.00 Ry     beta= 0.10
     Davidson diagonalization with overlap
     ethr =  1.65E-05,  avg # of iterations =  1.5

     negative rho (up, down):  1.583E-04 4.788E-04
 
     Adding external electric field

     Computed dipole along edir(3) : 
        Dipole               -1.0101 Ry au,         -2.5673 Debye
        Dipole field         -0.0006 Ry au, 
 
        Potential amp.        0.0682 Ry
        Total length         55.1515 bohr
 
 
     Adding external electric field

     Computed dipole along edir(3) : 
        Dipole               -1.0101 Ry au,         -2.5673 Debye
        Dipole field         -0.0006 Ry au, 
 
        Potential amp.        0.0682 Ry
        Total length         55.1515 bohr
 

     total cpu time spent up to now is      353.2 secs

     total energy              =   -7738.31465597 Ry
     estimated scf accuracy    <       0.62031311 Ry

     total magnetization       =    86.51 Bohr mag/cell
     absolute magnetization    =    88.12 Bohr mag/cell

     iteration # 26     ecut=    50.00 Ry     beta= 0.10
     Davidson diagonalization with overlap
     ethr =  1.65E-05,  avg # of iterations =  1.5

     negative rho (up, down):  4.359E-04 2.772E-04
 
     Adding external electric field

     Computed dipole along edir(3) : 
        Dipole               -1.0306 Ry au,         -2.6194 Debye
        Dipole field         -0.0006 Ry au, 
 
        Potential amp.        0.0696 Ry
        Total length         55.1515 bohr
 
 
     Adding external electric field

     Computed dipole along edir(3) : 
        Dipole               -1.0306 Ry au,         -2.6194 Debye
        Dipole field         -0.0006 Ry au, 
 
        Potential amp.        0.0696 Ry
        Total length         55.1515 bohr
 

     total cpu time spent up to now is      365.1 secs

     total energy              =   -7738.31962797 Ry
     estimated scf accuracy    <       0.09175854 Ry

     total magnetization       =    87.82 Bohr mag/cell
     absolute magnetization    =    89.31 Bohr mag/cell

     iteration # 27     ecut=    50.00 Ry     beta= 0.10
     Davidson diagonalization with overlap
     c_bands:  2 eigenvalues not converged
     ethr =  8.40E-06,  avg # of iterations = 20.5

     negative rho (up, down):  2.366E-04 8.386E-05
 
     Adding external electric field

     Computed dipole along edir(3) : 
        Dipole               -0.9756 Ry au,         -2.4797 Debye
        Dipole field         -0.0006 Ry au, 
 
        Potential amp.        0.0659 Ry
        Total length         55.1515 bohr
 
 
     Adding external electric field

     Computed dipole along edir(3) : 
        Dipole               -0.9756 Ry au,         -2.4797 Debye
        Dipole field         -0.0006 Ry au, 
 
        Potential amp.        0.0659 Ry
        Total length         55.1515 bohr
 

     total cpu time spent up to now is      395.1 secs

     total energy              =   -7738.31871487 Ry
     estimated scf accuracy    <       0.03354552 Ry

     total magnetization       =    88.72 Bohr mag/cell
     absolute magnetization    =    89.96 Bohr mag/cell

     iteration # 28     ecut=    50.00 Ry     beta= 0.10
     Davidson diagonalization with overlap
     c_bands:  2 eigenvalues not converged
     ethr =  3.07E-06,  avg # of iterations = 11.5

     negative rho (up, down):  1.666E-04 3.281E-05
 
     Adding external electric field

     Computed dipole along edir(3) : 
        Dipole               -0.9550 Ry au,         -2.4275 Debye
        Dipole field         -0.0006 Ry au, 
 
        Potential amp.        0.0645 Ry
        Total length         55.1515 bohr
 
 
     Adding external electric field

     Computed dipole along edir(3) : 
        Dipole               -0.9550 Ry au,         -2.4275 Debye
        Dipole field         -0.0006 Ry au, 
 
        Potential amp.        0.0645 Ry
        Total length         55.1515 bohr
 

     total cpu time spent up to now is      413.9 secs

     total energy              =   -7738.31820222 Ry
     estimated scf accuracy    <       0.03043768 Ry

     total magnetization       =    88.63 Bohr mag/cell
     absolute magnetization    =    89.87 Bohr mag/cell

     iteration # 29     ecut=    50.00 Ry     beta= 0.10
     Davidson diagonalization with overlap
     ethr =  2.78E-06,  avg # of iterations =  2.0

     negative rho (up, down):  1.777E-04 4.130E-05
 
     Adding external electric field

     Computed dipole along edir(3) : 
        Dipole               -0.9760 Ry au,         -2.4807 Debye
        Dipole field         -0.0006 Ry au, 
 
        Potential amp.        0.0659 Ry
        Total length         55.1515 bohr
 
 
     Adding external electric field

     Computed dipole along edir(3) : 
        Dipole               -0.9760 Ry au,         -2.4807 Debye
        Dipole field         -0.0006 Ry au, 
 
        Potential amp.        0.0659 Ry
        Total length         55.1515 bohr
 

     total cpu time spent up to now is      426.8 secs

     total energy              =   -7738.31953742 Ry
     estimated scf accuracy    <       0.03596565 Ry

     total magnetization       =    88.74 Bohr mag/cell
     absolute magnetization    =    90.01 Bohr mag/cell

     iteration # 30     ecut=    50.00 Ry     beta= 0.10
     Davidson diagonalization with overlap
     ethr =  2.78E-06,  avg # of iterations =  2.0

     negative rho (up, down):  1.871E-04 4.940E-05
 
     Adding external electric field

     Computed dipole along edir(3) : 
        Dipole               -0.9793 Ry au,         -2.4891 Debye
        Dipole field         -0.0006 Ry au, 
 
        Potential amp.        0.0661 Ry
        Total length         55.1515 bohr
 
 
     Adding external electric field

     Computed dipole along edir(3) : 
        Dipole               -0.9793 Ry au,         -2.4891 Debye
        Dipole field         -0.0006 Ry au, 
 
        Potential amp.        0.0661 Ry
        Total length         55.1515 bohr
 

     total cpu time spent up to now is      439.9 secs

     total energy              =   -7738.31962989 Ry
     estimated scf accuracy    <       0.02987709 Ry

     total magnetization       =    88.82 Bohr mag/cell
     absolute magnetization    =    90.11 Bohr mag/cell

     iteration # 31     ecut=    50.00 Ry     beta= 0.10
     Davidson diagonalization with overlap
     ethr =  2.73E-06,  avg # of iterations =  2.0

     negative rho (up, down):  1.898E-04 4.959E-05
 
     Adding external electric field

     Computed dipole along edir(3) : 
        Dipole               -0.9797 Ry au,         -2.4902 Debye
        Dipole field         -0.0006 Ry au, 
 
        Potential amp.        0.0661 Ry
        Total length         55.1515 bohr
 
 
     Adding external electric field

     Computed dipole along edir(3) : 
        Dipole               -0.9797 Ry au,         -2.4902 Debye
        Dipole field         -0.0006 Ry au, 
 
        Potential amp.        0.0661 Ry
        Total length         55.1515 bohr
 

     total cpu time spent up to now is      452.7 secs

     total energy              =   -7738.31957001 Ry
     estimated scf accuracy    <       0.02825602 Ry

     total magnetization       =    88.71 Bohr mag/cell
     absolute magnetization    =    90.00 Bohr mag/cell

     iteration # 32     ecut=    50.00 Ry     beta= 0.10
     Davidson diagonalization with overlap
     ethr =  2.59E-06,  avg # of iterations =  2.0

     negative rho (up, down):  2.638E-04 9.610E-05
 
     Adding external electric field

     Computed dipole along edir(3) : 
        Dipole               -0.9881 Ry au,         -2.5114 Debye
        Dipole field         -0.0006 Ry au, 
 
        Potential amp.        0.0667 Ry
        Total length         55.1515 bohr
 
 
     Adding external electric field

     Computed dipole along edir(3) : 
        Dipole               -0.9881 Ry au,         -2.5114 Debye
        Dipole field         -0.0006 Ry au, 
 
        Potential amp.        0.0667 Ry
        Total length         55.1515 bohr
 

     total cpu time spent up to now is      465.3 secs

     total energy              =   -7738.31939638 Ry
     estimated scf accuracy    <       0.02817196 Ry

     total magnetization       =    88.70 Bohr mag/cell
     absolute magnetization    =    89.99 Bohr mag/cell

     iteration # 33     ecut=    50.00 Ry     beta= 0.10
     Davidson diagonalization with overlap
     ethr =  2.58E-06,  avg # of iterations =  2.0

     negative rho (up, down):  3.284E-04 1.686E-04
 
     Adding external electric field

     Computed dipole along edir(3) : 
        Dipole               -0.9729 Ry au,         -2.4730 Debye
        Dipole field         -0.0006 Ry au, 
 
        Potential amp.        0.0657 Ry
        Total length         55.1515 bohr
 
 
     Adding external electric field

     Computed dipole along edir(3) : 
        Dipole               -0.9729 Ry au,         -2.4730 Debye
        Dipole field         -0.0006 Ry au, 
 
        Potential amp.        0.0657 Ry
        Total length         55.1515 bohr
 

     total cpu time spent up to now is      478.7 secs

     total energy              =   -7738.31962447 Ry
     estimated scf accuracy    <       0.02563600 Ry

     total magnetization       =    88.68 Bohr mag/cell
     absolute magnetization    =    89.94 Bohr mag/cell

     iteration # 34     ecut=    50.00 Ry     beta= 0.10
     Davidson diagonalization with overlap
     ethr =  2.35E-06,  avg # of iterations =  2.0

     negative rho (up, down):  3.337E-04 1.814E-04
 
     Adding external electric field

     Computed dipole along edir(3) : 
        Dipole               -0.9573 Ry au,         -2.4332 Debye
        Dipole field         -0.0006 Ry au, 
 
        Potential amp.        0.0646 Ry
        Total length         55.1515 bohr
 
 
     Adding external electric field

     Computed dipole along edir(3) : 
        Dipole               -0.9573 Ry au,         -2.4332 Debye
        Dipole field         -0.0006 Ry au, 
 
        Potential amp.        0.0646 Ry
        Total length         55.1515 bohr
 

     total cpu time spent up to now is      491.7 secs

     total energy              =   -7738.31962398 Ry
     estimated scf accuracy    <       0.02717102 Ry

     total magnetization       =    88.85 Bohr mag/cell
     absolute magnetization    =    90.14 Bohr mag/cell

     iteration # 35     ecut=    50.00 Ry     beta= 0.10
     Davidson diagonalization with overlap
     ethr =  2.35E-06,  avg # of iterations =  2.0

     negative rho (up, down):  3.375E-04 1.757E-04
 
     Adding external electric field

     Computed dipole along edir(3) : 
        Dipole               -0.9494 Ry au,         -2.4130 Debye
        Dipole field         -0.0006 Ry au, 
 
        Potential amp.        0.0641 Ry
        Total length         55.1515 bohr
 
 
     Adding external electric field

     Computed dipole along edir(3) : 
        Dipole               -0.9494 Ry au,         -2.4130 Debye
        Dipole field         -0.0006 Ry au, 
 
        Potential amp.        0.0641 Ry
        Total length         55.1515 bohr
 

     total cpu time spent up to now is      505.1 secs

     total energy              =   -7738.31944320 Ry
     estimated scf accuracy    <       0.02294116 Ry

     total magnetization       =    88.75 Bohr mag/cell
     absolute magnetization    =    90.10 Bohr mag/cell

     iteration # 36     ecut=    50.00 Ry     beta= 0.10
     Davidson diagonalization with overlap
     ethr =  2.10E-06,  avg # of iterations =  2.0

     negative rho (up, down):  4.478E-04 2.599E-04
 
     Adding external electric field

     Computed dipole along edir(3) : 
        Dipole               -0.9346 Ry au,         -2.3755 Debye
        Dipole field         -0.0006 Ry au, 
 
        Potential amp.        0.0631 Ry
        Total length         55.1515 bohr
 
 
     Adding external electric field

     Computed dipole along edir(3) : 
        Dipole               -0.9346 Ry au,         -2.3755 Debye
        Dipole field         -0.0006 Ry au, 
 
        Potential amp.        0.0631 Ry
        Total length         55.1515 bohr
 

     total cpu time spent up to now is      518.0 secs

     total energy              =   -7738.31920692 Ry
     estimated scf accuracy    <       0.02157846 Ry

     total magnetization       =    88.70 Bohr mag/cell
     absolute magnetization    =    90.07 Bohr mag/cell

     iteration # 37     ecut=    50.00 Ry     beta= 0.10
     Davidson diagonalization with overlap
     ethr =  1.97E-06,  avg # of iterations =  2.0

     negative rho (up, down):  8.304E-04 5.183E-04
 
     Adding external electric field

     Computed dipole along edir(3) : 
        Dipole               -0.8777 Ry au,         -2.2309 Debye
        Dipole field         -0.0005 Ry au, 
 
        Potential amp.        0.0593 Ry
        Total length         55.1515 bohr
 
 
     Adding external electric field

     Computed dipole along edir(3) : 
        Dipole               -0.8777 Ry au,         -2.2309 Debye
        Dipole field         -0.0005 Ry au, 
 
        Potential amp.        0.0593 Ry
        Total length         55.1515 bohr
 

     total cpu time spent up to now is      531.2 secs

     total energy              =   -7738.31832269 Ry
     estimated scf accuracy    <       0.02279191 Ry

     total magnetization       =    88.79 Bohr mag/cell
     absolute magnetization    =    90.21 Bohr mag/cell

     iteration # 38     ecut=    50.00 Ry     beta= 0.10
     Davidson diagonalization with overlap
     ethr =  1.97E-06,  avg # of iterations = 21.5

     negative rho (up, down):  1.982E-03 1.546E-03
 
     Adding external electric field

     Computed dipole along edir(3) : 
        Dipole               -0.8053 Ry au,         -2.0469 Debye
        Dipole field         -0.0005 Ry au, 
 
        Potential amp.        0.0544 Ry
        Total length         55.1515 bohr
 
 
     Adding external electric field

     Computed dipole along edir(3) : 
        Dipole               -0.8053 Ry au,         -2.0469 Debye
        Dipole field         -0.0005 Ry au, 
 
        Potential amp.        0.0544 Ry
        Total length         55.1515 bohr
 

     total cpu time spent up to now is      560.9 secs

     total energy              =   -7738.31830440 Ry
     estimated scf accuracy    <       0.01811437 Ry

     total magnetization       =    88.56 Bohr mag/cell
     absolute magnetization    =    89.98 Bohr mag/cell

     iteration # 39     ecut=    50.00 Ry     beta= 0.10
     Davidson diagonalization with overlap
     ethr =  1.66E-06,  avg # of iterations =  5.0

     negative rho (up, down):  4.017E-03 3.487E-03
 
     Adding external electric field

     Computed dipole along edir(3) : 
        Dipole               -0.7561 Ry au,         -1.9218 Debye
        Dipole field         -0.0005 Ry au, 
 
        Potential amp.        0.0510 Ry
        Total length         55.1515 bohr
 
 
     Adding external electric field

     Computed dipole along edir(3) : 
        Dipole               -0.7561 Ry au,         -1.9218 Debye
        Dipole field         -0.0005 Ry au, 
 
        Potential amp.        0.0510 Ry
        Total length         55.1515 bohr
 

     total cpu time spent up to now is      575.3 secs

     total energy              =   -7738.31844479 Ry
     estimated scf accuracy    <       0.01612317 Ry

     total magnetization       =    88.70 Bohr mag/cell
     absolute magnetization    =    90.09 Bohr mag/cell

     iteration # 40     ecut=    50.00 Ry     beta= 0.10
     Davidson diagonalization with overlap
     ethr =  1.48E-06,  avg # of iterations = 12.0

     negative rho (up, down):  4.023E-03 3.600E-03
 
     Adding external electric field

     Computed dipole along edir(3) : 
        Dipole               -0.7011 Ry au,         -1.7819 Debye
        Dipole field         -0.0004 Ry au, 
 
        Potential amp.        0.0473 Ry
        Total length         55.1515 bohr
 
 
     Adding external electric field

     Computed dipole along edir(3) : 
        Dipole               -0.7011 Ry au,         -1.7819 Debye
        Dipole field         -0.0004 Ry au, 
 
        Potential amp.        0.0473 Ry
        Total length         55.1515 bohr
 

     total cpu time spent up to now is      599.8 secs

     total energy              =   -7738.31825946 Ry
     estimated scf accuracy    <       0.01414023 Ry

     total magnetization       =    88.67 Bohr mag/cell
     absolute magnetization    =    90.05 Bohr mag/cell

     iteration # 41     ecut=    50.00 Ry     beta= 0.10
     Davidson diagonalization with overlap
     ethr =  1.29E-06,  avg # of iterations =  2.0

     negative rho (up, down):  3.591E-03 3.200E-03
 
     Adding external electric field

     Computed dipole along edir(3) : 
        Dipole               -0.6904 Ry au,         -1.7548 Debye
        Dipole field         -0.0004 Ry au, 
 
        Potential amp.        0.0466 Ry
        Total length         55.1515 bohr
 
 
     Adding external electric field

     Computed dipole along edir(3) : 
        Dipole               -0.6904 Ry au,         -1.7548 Debye
        Dipole field         -0.0004 Ry au, 
 
        Potential amp.        0.0466 Ry
        Total length         55.1515 bohr
 

     total cpu time spent up to now is      612.2 secs

     total energy              =   -7738.31820382 Ry
     estimated scf accuracy    <       0.01324326 Ry

     total magnetization       =    88.59 Bohr mag/cell
     absolute magnetization    =    89.99 Bohr mag/cell

     iteration # 42     ecut=    50.00 Ry     beta= 0.10
     Davidson diagonalization with overlap
     ethr =  1.21E-06,  avg # of iterations =  1.5

     negative rho (up, down):  3.830E-03 3.583E-03
 
     Adding external electric field

     Computed dipole along edir(3) : 
        Dipole               -0.6807 Ry au,         -1.7300 Debye
        Dipole field         -0.0004 Ry au, 
 
        Potential amp.        0.0460 Ry
        Total length         55.1515 bohr
 
 
     Adding external electric field

     Computed dipole along edir(3) : 
        Dipole               -0.6807 Ry au,         -1.7300 Debye
        Dipole field         -0.0004 Ry au, 
 
        Potential amp.        0.0460 Ry
        Total length         55.1515 bohr
 

     total cpu time spent up to now is      624.1 secs

     total energy              =   -7738.31840706 Ry
     estimated scf accuracy    <       0.01390260 Ry

     total magnetization       =    88.58 Bohr mag/cell
     absolute magnetization    =    90.01 Bohr mag/cell

     iteration # 43     ecut=    50.00 Ry     beta= 0.10
     Davidson diagonalization with overlap
     ethr =  1.21E-06,  avg # of iterations =  2.0

     negative rho (up, down):  4.666E-03 4.722E-03
 
     Adding external electric field

     Computed dipole along edir(3) : 
        Dipole               -0.6552 Ry au,         -1.6653 Debye
        Dipole field         -0.0004 Ry au, 
 
        Potential amp.        0.0442 Ry
        Total length         55.1515 bohr
 
 
     Adding external electric field

     Computed dipole along edir(3) : 
        Dipole               -0.6552 Ry au,         -1.6653 Debye
        Dipole field         -0.0004 Ry au, 
 
        Potential amp.        0.0442 Ry
        Total length         55.1515 bohr
 

     total cpu time spent up to now is      637.5 secs

     total energy              =   -7738.31850450 Ry
     estimated scf accuracy    <       0.01163658 Ry

     total magnetization       =    88.62 Bohr mag/cell
     absolute magnetization    =    89.99 Bohr mag/cell

     iteration # 44     ecut=    50.00 Ry     beta= 0.10
     Davidson diagonalization with overlap
     ethr =  1.06E-06,  avg # of iterations =  3.0

     negative rho (up, down):  5.092E-03 5.166E-03
 
     Adding external electric field

     Computed dipole along edir(3) : 
        Dipole               -0.6497 Ry au,         -1.6515 Debye
        Dipole field         -0.0004 Ry au, 
 
        Potential amp.        0.0439 Ry
        Total length         55.1515 bohr
 
 
     Adding external electric field

     Computed dipole along edir(3) : 
        Dipole               -0.6497 Ry au,         -1.6515 Debye
        Dipole field         -0.0004 Ry au, 
 
        Potential amp.        0.0439 Ry
        Total length         55.1515 bohr
 

     total cpu time spent up to now is      651.3 secs

     total energy              =   -7738.31864616 Ry
     estimated scf accuracy    <       0.00998753 Ry

     total magnetization       =    88.60 Bohr mag/cell
     absolute magnetization    =    89.96 Bohr mag/cell

     iteration # 45     ecut=    50.00 Ry     beta= 0.10
     Davidson diagonalization with overlap
     ethr =  9.14E-07,  avg # of iterations =  1.0

     negative rho (up, down):  1.935E-03 1.921E-03
 
     Adding external electric field

     Computed dipole along edir(3) : 
        Dipole               -0.6599 Ry au,         -1.6772 Debye
        Dipole field         -0.0004 Ry au, 
 
        Potential amp.        0.0446 Ry
        Total length         55.1515 bohr
 
 
     Adding external electric field

     Computed dipole along edir(3) : 
        Dipole               -0.6599 Ry au,         -1.6772 Debye
        Dipole field         -0.0004 Ry au, 
 
        Potential amp.        0.0446 Ry
        Total length         55.1515 bohr
 

     total cpu time spent up to now is      663.2 secs

     total energy              =   -7738.31847501 Ry
     estimated scf accuracy    <       0.01014930 Ry

     total magnetization       =    88.58 Bohr mag/cell
     absolute magnetization    =    89.93 Bohr mag/cell

     iteration # 46     ecut=    50.00 Ry     beta= 0.10
     Davidson diagonalization with overlap
     ethr =  9.14E-07,  avg # of iterations =  2.0

     negative rho (up, down):  9.771E-04 9.349E-04
 
     Adding external electric field

     Computed dipole along edir(3) : 
        Dipole               -0.6813 Ry au,         -1.7316 Debye
        Dipole field         -0.0004 Ry au, 
 
        Potential amp.        0.0460 Ry
        Total length         55.1515 bohr
 
 
     Adding external electric field

     Computed dipole along edir(3) : 
        Dipole               -0.6813 Ry au,         -1.7316 Debye
        Dipole field         -0.0004 Ry au, 
 
        Potential amp.        0.0460 Ry
        Total length         55.1515 bohr
 

     total cpu time spent up to now is      676.0 secs

     total energy              =   -7738.31854864 Ry
     estimated scf accuracy    <       0.00960832 Ry

     total magnetization       =    88.59 Bohr mag/cell
     absolute magnetization    =    89.96 Bohr mag/cell

     iteration # 47     ecut=    50.00 Ry     beta= 0.10
     Davidson diagonalization with overlap
     ethr =  8.79E-07,  avg # of iterations =  1.0

     negative rho (up, down):  1.146E-03 1.096E-03
 
     Adding external electric field

     Computed dipole along edir(3) : 
        Dipole               -0.6663 Ry au,         -1.6937 Debye
        Dipole field         -0.0004 Ry au, 
 
        Potential amp.        0.0450 Ry
        Total length         55.1515 bohr
 
 
     Adding external electric field

     Computed dipole along edir(3) : 
        Dipole               -0.6663 Ry au,         -1.6937 Debye
        Dipole field         -0.0004 Ry au, 
 
        Potential amp.        0.0450 Ry
        Total length         55.1515 bohr
 

     total cpu time spent up to now is      687.0 secs

     total energy              =   -7738.31848915 Ry
     estimated scf accuracy    <       0.00961032 Ry

     total magnetization       =    88.59 Bohr mag/cell
     absolute magnetization    =    89.95 Bohr mag/cell

     iteration # 48     ecut=    50.00 Ry     beta= 0.10
     Davidson diagonalization with overlap
     ethr =  8.79E-07,  avg # of iterations =  1.5

     negative rho (up, down):  2.070E-03 1.886E-03
 
     Adding external electric field

     Computed dipole along edir(3) : 
        Dipole               -0.5845 Ry au,         -1.4857 Debye
        Dipole field         -0.0004 Ry au, 
 
        Potential amp.        0.0395 Ry
        Total length         55.1515 bohr
 
 
     Adding external electric field

     Computed dipole along edir(3) : 
        Dipole               -0.5845 Ry au,         -1.4857 Debye
        Dipole field         -0.0004 Ry au, 
 
        Potential amp.        0.0395 Ry
        Total length         55.1515 bohr
 

     total cpu time spent up to now is      699.3 secs

     total energy              =   -7738.31796711 Ry
     estimated scf accuracy    <       0.00939380 Ry

     total magnetization       =    88.59 Bohr mag/cell
     absolute magnetization    =    89.95 Bohr mag/cell

     iteration # 49     ecut=    50.00 Ry     beta= 0.10
     Davidson diagonalization with overlap
     ethr =  8.59E-07,  avg # of iterations =  2.0

     negative rho (up, down):  2.396E-03 2.212E-03
 
     Adding external electric field

     Computed dipole along edir(3) : 
        Dipole               -0.5918 Ry au,         -1.5042 Debye
        Dipole field         -0.0004 Ry au, 
 
        Potential amp.        0.0400 Ry
        Total length         55.1515 bohr
 
 
     Adding external electric field

     Computed dipole along edir(3) : 
        Dipole               -0.5918 Ry au,         -1.5042 Debye
        Dipole field         -0.0004 Ry au, 
 
        Potential amp.        0.0400 Ry
        Total length         55.1515 bohr
 

     total cpu time spent up to now is      712.2 secs

     total energy              =   -7738.31816331 Ry
     estimated scf accuracy    <       0.00847432 Ry

     total magnetization       =    88.62 Bohr mag/cell
     absolute magnetization    =    89.94 Bohr mag/cell

     iteration # 50     ecut=    50.00 Ry     beta= 0.10
     Davidson diagonalization with overlap
     ethr =  7.75E-07,  avg # of iterations =  1.0

     negative rho (up, down):  3.363E-03 3.188E-03
 
     Adding external electric field

     Computed dipole along edir(3) : 
        Dipole               -0.5292 Ry au,         -1.3450 Debye
        Dipole field         -0.0003 Ry au, 
 
        Potential amp.        0.0357 Ry
        Total length         55.1515 bohr
 
 
     Adding external electric field

     Computed dipole along edir(3) : 
        Dipole               -0.5292 Ry au,         -1.3450 Debye
        Dipole field         -0.0003 Ry au, 
 
        Potential amp.        0.0357 Ry
        Total length         55.1515 bohr
 

     total cpu time spent up to now is      723.4 secs

     total energy              =   -7738.31810062 Ry
     estimated scf accuracy    <       0.00868850 Ry

     total magnetization       =    88.62 Bohr mag/cell
     absolute magnetization    =    89.94 Bohr mag/cell

     iteration # 51     ecut=    50.00 Ry     beta= 0.10
     Davidson diagonalization with overlap
     ethr =  7.75E-07,  avg # of iterations =  2.0

     negative rho (up, down):  1.445E-03 1.456E-03
 
     Adding external electric field

     Computed dipole along edir(3) : 
        Dipole               -0.4858 Ry au,         -1.2349 Debye
        Dipole field         -0.0003 Ry au, 
 
        Potential amp.        0.0328 Ry
        Total length         55.1515 bohr
 
 
     Adding external electric field

     Computed dipole along edir(3) : 
        Dipole               -0.4858 Ry au,         -1.2349 Debye
        Dipole field         -0.0003 Ry au, 
 
        Potential amp.        0.0328 Ry
        Total length         55.1515 bohr
 

     total cpu time spent up to now is      736.6 secs

     total energy              =   -7738.31790271 Ry
     estimated scf accuracy    <       0.00803385 Ry

     total magnetization       =    88.60 Bohr mag/cell
     absolute magnetization    =    89.92 Bohr mag/cell

     iteration # 52     ecut=    50.00 Ry     beta= 0.10
     Davidson diagonalization with overlap
     ethr =  7.35E-07,  avg # of iterations =  3.5

     negative rho (up, down):  1.770E-03 1.744E-03
 
     Adding external electric field

     Computed dipole along edir(3) : 
        Dipole               -0.4458 Ry au,         -1.1332 Debye
        Dipole field         -0.0003 Ry au, 
 
        Potential amp.        0.0301 Ry
        Total length         55.1515 bohr
 
 
     Adding external electric field

     Computed dipole along edir(3) : 
        Dipole               -0.4458 Ry au,         -1.1332 Debye
        Dipole field         -0.0003 Ry au, 
 
        Potential amp.        0.0301 Ry
        Total length         55.1515 bohr
 

     total cpu time spent up to now is      750.4 secs

     total energy              =   -7738.31790054 Ry
     estimated scf accuracy    <       0.00686236 Ry

     total magnetization       =    88.56 Bohr mag/cell
     absolute magnetization    =    89.89 Bohr mag/cell

     iteration # 53     ecut=    50.00 Ry     beta= 0.10
     Davidson diagonalization with overlap
     ethr =  6.28E-07,  avg # of iterations =  2.0

     negative rho (up, down):  1.996E-03 1.917E-03
 
     Adding external electric field

     Computed dipole along edir(3) : 
        Dipole               -0.4099 Ry au,         -1.0420 Debye
        Dipole field         -0.0003 Ry au, 
 
        Potential amp.        0.0277 Ry
        Total length         55.1515 bohr
 
 
     Adding external electric field

     Computed dipole along edir(3) : 
        Dipole               -0.4099 Ry au,         -1.0420 Debye
        Dipole field         -0.0003 Ry au, 
 
        Potential amp.        0.0277 Ry
        Total length         55.1515 bohr
 

     total cpu time spent up to now is      763.0 secs

     total energy              =   -7738.31780784 Ry
     estimated scf accuracy    <       0.00652538 Ry

     total magnetization       =    88.56 Bohr mag/cell
     absolute magnetization    =    89.87 Bohr mag/cell

     iteration # 54     ecut=    50.00 Ry     beta= 0.10
     Davidson diagonalization with overlap
     ethr =  5.97E-07,  avg # of iterations =  6.0

     negative rho (up, down):  1.706E-03 1.659E-03
 
     Adding external electric field

     Computed dipole along edir(3) : 
        Dipole               -0.3745 Ry au,         -0.9520 Debye
        Dipole field         -0.0002 Ry au, 
 
        Potential amp.        0.0253 Ry
        Total length         55.1515 bohr
 
 
     Adding external electric field

     Computed dipole along edir(3) : 
        Dipole               -0.3745 Ry au,         -0.9520 Debye
        Dipole field         -0.0002 Ry au, 
 
        Potential amp.        0.0253 Ry
        Total length         55.1515 bohr
 

     total cpu time spent up to now is      778.2 secs

     total energy              =   -7738.31778280 Ry
     estimated scf accuracy    <       0.00610991 Ry

     total magnetization       =    88.54 Bohr mag/cell
     absolute magnetization    =    89.84 Bohr mag/cell

     iteration # 55     ecut=    50.00 Ry     beta= 0.10
     Davidson diagonalization with overlap
     ethr =  5.59E-07,  avg # of iterations =  6.5

     negative rho (up, down):  1.509E-03 1.452E-03
 
     Adding external electric field

     Computed dipole along edir(3) : 
        Dipole               -0.4263 Ry au,         -1.0836 Debye
        Dipole field         -0.0003 Ry au, 
 
        Potential amp.        0.0288 Ry
        Total length         55.1515 bohr
 
 
     Adding external electric field

     Computed dipole along edir(3) : 
        Dipole               -0.4263 Ry au,         -1.0836 Debye
        Dipole field         -0.0003 Ry au, 
 
        Potential amp.        0.0288 Ry
        Total length         55.1515 bohr
 

     total cpu time spent up to now is      792.7 secs

     total energy              =   -7738.31767149 Ry
     estimated scf accuracy    <       0.00653348 Ry

     total magnetization       =    88.50 Bohr mag/cell
     absolute magnetization    =    89.80 Bohr mag/cell

     iteration # 56     ecut=    50.00 Ry     beta= 0.10
     Davidson diagonalization with overlap
     ethr =  5.59E-07,  avg # of iterations =  2.5

     negative rho (up, down):  7.242E-04 6.987E-04
 
     Adding external electric field

     Computed dipole along edir(3) : 
        Dipole               -0.3864 Ry au,         -0.9820 Debye
        Dipole field         -0.0002 Ry au, 
 
        Potential amp.        0.0261 Ry
        Total length         55.1515 bohr
 
 
     Adding external electric field

     Computed dipole along edir(3) : 
        Dipole               -0.3864 Ry au,         -0.9820 Debye
        Dipole field         -0.0002 Ry au, 
 
        Potential amp.        0.0261 Ry
        Total length         55.1515 bohr
 

     total cpu time spent up to now is      805.9 secs

     total energy              =   -7738.31772477 Ry
     estimated scf accuracy    <       0.00619730 Ry

     total magnetization       =    88.52 Bohr mag/cell
     absolute magnetization    =    89.82 Bohr mag/cell

     iteration # 57     ecut=    50.00 Ry     beta= 0.10
     Davidson diagonalization with overlap
     ethr =  5.59E-07,  avg # of iterations =  2.0

     negative rho (up, down):  6.379E-04 6.006E-04
 
     Adding external electric field

     Computed dipole along edir(3) : 
        Dipole               -0.3904 Ry au,         -0.9923 Debye
        Dipole field         -0.0002 Ry au, 
 
        Potential amp.        0.0264 Ry
        Total length         55.1515 bohr
 
 
     Adding external electric field

     Computed dipole along edir(3) : 
        Dipole               -0.3904 Ry au,         -0.9923 Debye
        Dipole field         -0.0002 Ry au, 
 
        Potential amp.        0.0264 Ry
        Total length         55.1515 bohr
 

     total cpu time spent up to now is      818.2 secs

     total energy              =   -7738.31783166 Ry
     estimated scf accuracy    <       0.00592535 Ry

     total magnetization       =    88.52 Bohr mag/cell
     absolute magnetization    =    89.81 Bohr mag/cell

     iteration # 58     ecut=    50.00 Ry     beta= 0.10
     Davidson diagonalization with overlap
     ethr =  5.42E-07,  avg # of iterations =  2.0

     negative rho (up, down):  9.389E-04 8.709E-04
 
     Adding external electric field

     Computed dipole along edir(3) : 
        Dipole               -0.3918 Ry au,         -0.9958 Debye
        Dipole field         -0.0002 Ry au, 
 
[...]
    -5.9821  -5.9661  -5.9175  -5.9096  -5.8880  -5.8784  -5.8776  -5.8453
    -5.8242  -5.8027  -5.7510  -5.7393  -5.7239  -5.6901  -5.6790  -5.6455
    -5.6412  -5.6300  -5.5931  -5.5754  -5.5676  -5.5593  -5.5565  -5.5337
    -5.5169  -5.5052  -5.4814  -5.4442  -5.4023  -5.3557  -5.3314  -5.3166
    -5.2946  -5.2649  -5.2353  -5.1652  -5.1510  -5.1461  -5.1316  -5.1038
    -5.0530  -5.0110  -4.9743  -4.9484  -4.8998  -4.8894  -4.8602  -4.8596
    -4.8146  -4.7945  -4.7824  -4.7422  -4.7108  -4.6912  -4.6513  -4.6040
    -4.5537  -4.4816  -4.4462  -4.4263  -4.4200  -4.4038  -4.3637  -4.3538
    -4.3179  -4.2865  -4.2569  -4.2369  -4.2032  -4.1781  -4.1191  -4.1078
    -4.0876  -4.0492  -4.0459  -4.0198  -3.9585  -3.9333  -3.9199  -3.8810
    -3.8711  -3.8269  -3.8126  -3.7996  -3.7886  -3.7468  -3.7252  -3.7022
    -3.6917  -3.6643  -3.6496  -3.5987  -3.5856  -3.5775  -3.5747  -3.5480
    -3.5445  -3.5205  -3.5048  -3.4801  -3.4589  -3.4433  -3.4293  -3.4173
    -3.4149  -3.3714  -3.3611  -3.3549  -3.3425  -3.3065  -3.2796  -3.2592
    -3.2540  -3.2138  -3.1972  -3.1855  -3.1492  -3.1161  -3.1067  -3.0825
    -3.0736  -3.0689  -3.0492  -3.0368  -3.0219  -3.0043  -2.9827  -2.9665
    -2.9313  -2.9191  -2.8960  -2.8880  -2.8686  -2.8516  -2.8101  -2.7966
    -2.7866  -2.7606  -2.7534  -2.7440  -2.7278  -2.7156  -2.7027  -2.6888
    -2.6844  -2.6773  -2.6617  -2.6439  -2.6401  -2.6081  -2.6024  -2.5935
    -2.5751  -2.5696  -2.5425  -2.5285  -2.5151  -2.4857  -2.4725  -2.4574
    -2.4412  -2.4215  -2.4058  -2.3795  -2.3571  -2.3538  -2.3228  -2.2874
    -2.2775  -2.2687  -2.2313  -2.2082  -2.1937  -2.1826  -2.1465  -2.1436
    -2.1148  -2.0899  -2.0692  -2.0643  -2.0582  -2.0406  -2.0309  -2.0224
    -1.9978  -1.9798  -1.9403  -1.9172  -1.9124  -1.9109  -1.8757  -1.8574
    -1.8409  -1.8365  -1.8265  -1.8110  -1.7928  -1.7171  -1.7114  -1.6925
    -1.6720  -1.6580  -1.6360  -1.6286  -1.6174  -1.6159  -1.5927  -1.5728
    -1.5508  -1.5384  -1.5187  -1.4884  -1.4878  -1.4559  -1.4367  -1.4282
    -1.4055  -1.3989  -1.3846  -1.3765  -1.3585  -1.3521  -1.3069  -1.2685
    -1.2344  -1.2202  -1.1744  -1.1489  -1.1366  -1.1318  -1.0946  -1.0593
    -1.0480  -0.9951  -0.9290  -0.8484  -0.7411  -0.7289  -0.6187  -0.5601
    -0.5230  -0.5092  -0.3568  -0.2410   0.1775   0.2176   0.2399   0.2462
     0.2981   0.3098   0.3162   0.3199   0.3288   0.3476   0.3603   0.3659
     0.3739   0.3881   0.3964   0.4013   0.4043   0.4121   0.4174   0.4238
     0.4313   0.4400   0.4600   0.4646   0.4742   0.4820   0.4896   0.4905
     0.4950   0.5014   0.5083   0.5144   0.5245   0.5311   0.5352   0.5417
     0.5441   0.5619   0.5658   0.5729   0.5833   0.5972   0.6014   0.6164
     0.6223   0.6231   0.6421   0.6472   0.6524   0.6604   0.6645   0.6768
     0.6821   0.6900   0.6996   0.7068   0.7117   0.7284   0.7311   0.7416
     0.7470   0.7586   0.7662   0.7682   0.7747   0.7918   0.8005   0.8099
     0.8123   0.8229   0.8376   0.8551   0.8647   0.8661   0.8679   0.8717
     0.8823   0.8869   0.9051   0.9084   0.9173   0.9522   0.9854   0.9946
     1.0171   1.0466   1.0904   1.1115   1.1223   1.6754   1.7348   1.7473
     1.7688   1.7884   1.7995   1.8153   1.8266   1.8421   1.9040   1.9193
     1.9379   1.9680   1.9879   2.0084   2.0421   2.0447   2.0938   2.1054
     2.1313   2.1434   2.1450   2.1803   2.1897   2.1970   2.2045   2.2322
     2.2675   2.2757   2.2944   2.3038   2.3129   2.3224   2.3306   2.3499
     2.3716   2.3779   2.3917   2.3944   2.4155   2.4189   2.4313   2.4958
     2.5031   2.5304   2.5349   2.5397   2.5500   2.5661   2.5886   2.5971
     2.6227   2.6798   2.7050   2.7193   2.7493   2.8012   2.8067   2.8661
     2.8755   2.9530   3.6720   3.7073   3.7207   3.7576   3.7831   3.7976
     3.8632   3.9050   3.9319   3.9589   3.9691   3.9820   4.0006   4.0138
     4.0531   4.0589   4.1441   4.1472   4.1579   4.1797   4.6572   4.6870
     4.7893   4.8269   4.8615   4.9020   4.9200   4.9620   5.0396   5.0954
     5.1160   5.1460   5.4288   6.2429   6.3741   6.6109   6.6594   6.7554
     6.8486   6.8627   6.8896   6.9651   6.9880   7.0672   7.1167   7.1318
     7.2645   7.3483   7.3514   7.4191   7.4800   7.5417   7.5719   7.6290
     7.6599   7.6670   7.7407   7.7673   7.7945   7.8591   7.8922   7.9632
     7.9991   8.0447   8.0517   8.0895   8.1085   8.1581   8.1722   8.2101
     8.2452   8.2850   8.3023   8.3318   8.4026   8.4260   8.4269   8.4515
     8.4617   8.4779   8.4947   8.5366   8.5531   8.5718   8.5968   8.6211
     8.6708   8.7065   8.7233   8.7560   8.7649   8.7796   8.8364   8.8402

     the Fermi energy is     1.6597 ev

!    total energy              =   -7738.31799992 Ry
     estimated scf accuracy    <       0.00000094 Ry
     smearing contrib. (-TS)   =      -0.02308450 Ry
     internal energy E=F+TS    =   -7738.29491542 Ry

     The total energy is F=E-TS. E is the sum of the following terms:
     one-electron contribution =  -94760.22709122 Ry
     hartree contribution      =   47997.37069498 Ry
     xc contribution           =   -2218.71361279 Ry
     ewald contribution        =   41245.08241943 Ry
     Dispersion Correction     =      -1.80738167 Ry
     electric field correction =       0.00005586 Ry

     total magnetization       =    88.48 Bohr mag/cell
     absolute magnetization    =    89.85 Bohr mag/cell

     convergence has been achieved in  80 iterations

     negative rho (up, down):  1.052E-03 5.889E-04

     Forces acting on atoms (cartesian axes, Ry/au):

     atom    1 type  1   force =     0.00105223   -0.00164721   -0.00114135
     atom    2 type  2   force =    -0.00004862   -0.00010090    0.00041876
     atom    3 type  1   force =    -0.00035082    0.00052635   -0.00002672
     atom    4 type  1   force =     0.00002431    0.00016662    0.00000644
     atom    5 type  1   force =    -0.00004681   -0.00006186   -0.00028556
     atom    6 type  1   force =     0.00041778    0.00041904    0.00003139
     atom    7 type  3   force =    -0.00021717    0.00022713   -0.00003186
     atom    8 type  3   force =    -0.00006740   -0.00017150   -0.00015783
     atom    9 type  3   force =     0.00045687    0.00000126   -0.00015012
     atom   10 type  3   force =     0.00007156    0.00019022    0.00015446
     atom   11 type  4   force =     0.00075250   -0.00004673    0.00012008
     atom   12 type  4   force =    -0.00041664   -0.00020025    0.00005898
     atom   13 type  4   force =    -0.00012354    0.00008959   -0.00034664
     atom   14 type  4   force =    -0.00060954   -0.00024962    0.00006888
     atom   15 type  4   force =     0.00027149   -0.00024366    0.00005056
     atom   16 type  4   force =    -0.00029243   -0.00030981   -0.00014081
     atom   17 type  4   force =    -0.00056557   -0.00019990    0.00023932
     atom   18 type  4   force =     0.00007915    0.00002741    0.00039201
     atom   19 type  4   force =     0.00001279    0.00024893    0.00006478
     atom   20 type  4   force =    -0.00057436    0.00002571    0.00007301
     atom   21 type  4   force =     0.00032194    0.00012631    0.00002301
     atom   22 type  4   force =     0.00020013   -0.00003853   -0.00042832
     atom   23 type  4   force =    -0.00024912   -0.00028704   -0.00033517
     atom   24 type  4   force =     0.00042265    0.00030897    0.00002368
     atom   25 type  4   force =    -0.00014137    0.00034050   -0.00000288
     atom   26 type  4   force =    -0.00050794    0.00002874   -0.00002878
     atom   27 type  1   force =    -0.00661121   -0.00701714   -0.00131527
     atom   28 type  2   force =    -0.01234222   -0.00006959   -0.00114519
     atom   29 type  1   force =     0.00355268   -0.00397545   -0.00026672
     atom   30 type  1   force =     0.00241876    0.00401279   -0.00138361
     atom   31 type  1   force =     0.00148186   -0.00507013    0.00007904
     atom   32 type  1   force =    -0.00101738    0.00156769    0.00229878
     atom   33 type  3   force =    -0.00697736   -0.00095870    0.00004420
     atom   34 type  3   force =    -0.00715039    0.00450308   -0.00256104
     atom   35 type  3   force =     0.00392046   -0.00257798   -0.00371521
     atom   36 type  3   force =     0.00121641   -0.00123925    0.00293036
     atom   37 type  4   force =     0.00858457    0.00532251   -0.00779691
     atom   38 type  4   force =     0.00447065   -0.00226423    0.01981577
     atom   39 type  4   force =    -0.00115440    0.00406011    0.01038347
     atom   40 type  4   force =    -0.00162360   -0.00238611   -0.00882862
     atom   41 type  4   force =     0.00193502    0.00833533    0.00620262
     atom   42 type  4   force =    -0.00572396   -0.00286479   -0.01995497
     atom   43 type  4   force =     0.01043617    0.00691232   -0.00674855
     atom   44 type  4   force =     0.00733580   -0.00315102    0.00586000
     atom   45 type  4   force =     0.00225958    0.00595329   -0.00063597
     atom   46 type  4   force =     0.00353125    0.00195605    0.00463321
     atom   47 type  4   force =    -0.01334968    0.00018490    0.00327535
     atom   48 type  4   force =    -0.01469215    0.00270123   -0.00307083
     atom   49 type  4   force =     0.01246867    0.00250839   -0.00465810
     atom   50 type  4   force =    -0.00386083   -0.00426643    0.00001437
     atom   51 type  4   force =    -0.00453669    0.00287914   -0.00069774
     atom   52 type  4   force =     0.01646207   -0.00322663    0.00405743
     atom   53 type  1   force =    -0.00749519   -0.00715496   -0.00840995
     atom   54 type  2   force =     0.01585298    0.01744985   -0.01028002
     atom   55 type  1   force =     0.00582820   -0.00477238   -0.00587888
     atom   56 type  1   force =    -0.02057985    0.01916605    0.01952295
     atom   57 type  1   force =     0.00450549   -0.00772466   -0.00181647
     atom   58 type  1   force =    -0.00391606   -0.00528519   -0.00113203
     atom   59 type  3   force =    -0.03899025   -0.03831356   -0.05616488
     atom   60 type  3   force =    -0.00478496   -0.00133990   -0.00114238
     atom   61 type  3   force =     0.00271961   -0.00093078   -0.01016550
     atom   62 type  3   force =     0.02910076   -0.04952058   -0.06064548
     atom   63 type  4   force =     0.00620963    0.00338259    0.02113670
     atom   64 type  4   force =     0.00430606    0.00251600    0.01445788
     atom   65 type  4   force =    -0.00060697    0.00302121    0.01253716
     atom   66 type  4   force =     0.00023924    0.00201847    0.01631160
     atom   67 type  4   force =     0.00103929   -0.00068252    0.03897630
     atom   68 type  4   force =    -0.00582365   -0.00381722   -0.01711634
     atom   69 type  4   force =     0.00792621    0.00458514   -0.00241313
     atom   70 type  4   force =     0.00179272   -0.00744758    0.03518575
     atom   71 type  4   force =    -0.00900055    0.03932971    0.00086465
     atom   72 type  4   force =     0.00238616   -0.00076057    0.00794649
     atom   73 type  4   force =    -0.03029370    0.00088615    0.00756743
     atom   74 type  4   force =    -0.01373834    0.00138948   -0.00042347
     atom   75 type  4   force =     0.01224805    0.00352067   -0.00249663
     atom   76 type  4   force =    -0.00249580   -0.00308778    0.00258539
     atom   77 type  4   force =     0.00909579    0.02590015   -0.00264112
     atom   78 type  4   force =     0.03366451   -0.00637314    0.00612295
     atom   79 type  1   force =    -0.00003259    0.00051658    0.00020638
     atom   80 type  2   force =    -0.00000770    0.00000517   -0.00014333
     atom   81 type  1   force =    -0.00005246    0.00026793   -0.00035452
     atom   82 type  1   force =    -0.00010094   -0.00005628    0.00001820
     atom   83 type  1   force =    -0.00056038   -0.00010966   -0.00011274
     atom   84 type  1   force =     0.00014564    0.00031849    0.00068273
     atom   85 type  3   force =    -0.00024122    0.00053553    0.00026142
     atom   86 type  3   force =    -0.00008756    0.00039395    0.00037298
     atom   87 type  3   force =    -0.00010196    0.00019511   -0.00019125
     atom   88 type  3   force =     0.00009421    0.00045648    0.00009473
     atom   89 type  4   force =    -0.00003308   -0.00041181   -0.00010261
     atom   90 type  4   force =    -0.00001857    0.00064669    0.00027336
     atom   91 type  4   force =     0.00026991    0.00002601   -0.00011489
     atom   92 type  4   force =    -0.00060504    0.00000674   -0.00001109
     atom   93 type  4   force =     0.00039931   -0.00025706    0.00028733
     atom   94 type  4   force =    -0.00030603   -0.00057899    0.00010932
     atom   95 type  4   force =    -0.00027691   -0.00009547   -0.00027538
     atom   96 type  4   force =    -0.00005464    0.00002509    0.00006990
     atom   97 type  4   force =    -0.00019473    0.00043215   -0.00018494
     atom   98 type  4   force =     0.00007259   -0.00017132    0.00003312
     atom   99 type  4   force =     0.00002116   -0.00006610   -0.00044598
     atom  100 type  4   force =     0.00043094    0.00053318   -0.00039777
     atom  101 type  4   force =     0.00007279   -0.00008340   -0.00024935
     atom  102 type  4   force =     0.00035722    0.00007426    0.00016892
     atom  103 type  4   force =    -0.00035899    0.00031650   -0.00048154
     atom  104 type  4   force =    -0.00054205    0.00052206    0.00011239
     atom  105 type  1   force =    -0.00632977   -0.00858716   -0.00262118
     atom  106 type  2   force =    -0.01195393    0.00015100   -0.00136201
     atom  107 type  1   force =     0.00318324   -0.00416768   -0.00042856
     atom  108 type  1   force =     0.00232578    0.00401072   -0.00150475
     atom  109 type  1   force =     0.00204698   -0.00510166   -0.00011054
     atom  110 type  1   force =    -0.00122650    0.00138564    0.00218458
     atom  111 type  3   force =    -0.00716181   -0.00083125   -0.00046329
     atom  112 type  3   force =    -0.00603738    0.00387901   -0.00149212
     atom  113 type  3   force =     0.00354813   -0.00104752   -0.00520870
     atom  114 type  3   force =     0.00106190   -0.00121113    0.00289792
     atom  115 type  4   force =     0.00875502    0.00500040   -0.00750897
     atom  116 type  4   force =     0.00353610   -0.00120149    0.02023620
     atom  117 type  4   force =    -0.00116196    0.00381681    0.01078117
     atom  118 type  4   force =    -0.00148143   -0.00245067   -0.00888066
     atom  119 type  4   force =     0.00209699    0.00842055    0.00622615
     atom  120 type  4   force =    -0.00547545   -0.00236040   -0.01757777
     atom  121 type  4   force =     0.01115522    0.00646714   -0.00729123
     atom  122 type  4   force =     0.00718866   -0.00316399    0.00584228
     atom  123 type  4   force =     0.00223986    0.00598458   -0.00062067
     atom  124 type  4   force =     0.00306071    0.00103133    0.00557288
     atom  125 type  4   force =    -0.01332790    0.00023183    0.00332984
     atom  126 type  4   force =    -0.01419911    0.00239653   -0.00301971
     atom  127 type  4   force =     0.01309986    0.00282049   -0.00483770
     atom  128 type  4   force =    -0.00416265   -0.00435059    0.00001493
     atom  129 type  4   force =    -0.00438845    0.00283192   -0.00059617
     atom  130 type  4   force =     0.01659770   -0.00322045    0.00420735
     atom  131 type  1   force =    -0.00759048   -0.00707953   -0.00843743
     atom  132 type  2   force =     0.01579503    0.01742078   -0.01024778
     atom  133 type  1   force =     0.00584241   -0.00477233   -0.00586991
     atom  134 type  1   force =    -0.02059020    0.01916027    0.01952237
     atom  135 type  1   force =     0.00445772   -0.00771403   -0.00180556
     atom  136 type  1   force =    -0.00391934   -0.00526255   -0.00111417
     atom  137 type  3   force =    -0.03902462   -0.03836100   -0.05611814
     atom  138 type  3   force =    -0.00494994   -0.00126795   -0.00119752
     atom  139 type  3   force =     0.00273166   -0.00101651   -0.01016504
     atom  140 type  3   force =     0.02911144   -0.04952027   -0.06064211
     atom  141 type  4   force =     0.00613567    0.00342946    0.02114438
     atom  142 type  4   force =     0.00435768    0.00240701    0.01441083
     atom  143 type  4   force =    -0.00051825    0.00293910    0.01256319
     atom  144 type  4   force =     0.00027582    0.00210344    0.01651127
     atom  145 type  4   force =     0.00119173   -0.00068650    0.03894017
     atom  146 type  4   force =    -0.00553269   -0.00385397   -0.01704497
     atom  147 type  4   force =     0.00791992    0.00464856   -0.00256722
     atom  148 type  4   force =     0.00168448   -0.00748655    0.03523495
     atom  149 type  4   force =    -0.00921533    0.03933025    0.00086702
     atom  150 type  4   force =     0.00218549   -0.00067529    0.00793846
     atom  151 type  4   force =    -0.03017709    0.00088563    0.00756518
     atom  152 type  4   force =    -0.01385066    0.00141359   -0.00043001
     atom  153 type  4   force =     0.01230442    0.00359516   -0.00252421
     atom  154 type  4   force =    -0.00251994   -0.00299314    0.00251489
     atom  155 type  4   force =     0.00899472    0.02594366   -0.00270276
     atom  156 type  4   force =     0.03365140   -0.00618165    0.00594904
     atom  157 type  4   force =     0.00684851    0.00877652   -0.00047262
     atom  158 type  5   force =    -0.00697376   -0.00631171    0.00282887

     Total force =     0.237582     Total SCF correction =     0.004697
 
     init_run     :      8.16s CPU      8.81s WALL (       1 calls)
     electrons    :   1049.76s CPU   1102.70s WALL (       1 calls)
     forces       :      3.92s CPU      4.37s WALL (       1 calls)
     force_london :      0.09s CPU      0.09s WALL (       1 calls)

     Called by init_run:
     wfcinit      :      4.81s CPU      4.99s WALL (       1 calls)
     potinit      :      0.70s CPU      0.88s WALL (       1 calls)
     hinit0       :      1.32s CPU      1.41s WALL (       1 calls)

     Called by electrons:
     c_bands      :    827.67s CPU    856.47s WALL (      80 calls)
     sum_band     :    138.34s CPU    151.82s WALL (      80 calls)
     v_of_rho     :     19.79s CPU     20.82s WALL (      81 calls)
     newd         :     40.75s CPU     50.41s WALL (      81 calls)
     mix_rho      :     22.22s CPU     22.36s WALL (      80 calls)
     energy_londo :      0.10s CPU      0.10s WALL (       1 calls)

     Called by c_bands:
     init_us_2    :      2.48s CPU      2.56s WALL (     324 calls)
     init_us_2:cp :      2.48s CPU      2.56s WALL (     324 calls)
     regterg      :    810.30s CPU    838.88s WALL (     163 calls)

     Called by *egterg:
     rdiaghg      :    228.97s CPU    242.61s WALL (     646 calls)
     h_psi        :    315.69s CPU    323.03s WALL (     648 calls)
     s_psi        :     58.87s CPU     58.93s WALL (     648 calls)
     g_psi        :      0.42s CPU      0.43s WALL (     483 calls)

     Called by h_psi:
     h_psi:calbec :     78.78s CPU     84.72s WALL (     648 calls)
     vloc_psi     :    176.82s CPU    177.58s WALL (     648 calls)
     add_vuspsi   :     59.23s CPU     59.84s WALL (     648 calls)

     General routines
     calbec       :    116.59s CPU    125.38s WALL (     816 calls)
     fft          :     19.55s CPU     21.07s WALL (    1471 calls)
     ffts         :     13.63s CPU     13.67s WALL (    9959 calls)
     fftw         :    198.55s CPU    199.41s WALL (  273772 calls)
     interpolate  :      1.53s CPU      1.61s WALL (     162 calls)
 
     Parallel routines
 
     PWSCF        :  17m44.37s CPU  18m38.87s WALL

 
   This run was terminated on:  23: 1:13  17Nov2025            

=------------------------------------------------------------------------------=
   JOB DONE.
=------------------------------------------------------------------------------=
