
     Program PWSCF v.7.0 starts on  4Oct2023 at 16:47:36 

     This program is part of the open-source Quantum ESPRESSO suite
     for quantum simulation of materials; please cite
         "P. Giannozzi et al., J. Phys.:Condens. Matter 21 395502 (2009);
         "P. Giannozzi et al., J. Phys.:Condens. Matter 29 465901 (2017);
         "P. Giannozzi et al., J. Chem. Phys. 152 154105 (2020);
          URL http://www.quantum-espresso.org", 
     in publications or presentations arising from this work. More details at
     http://www.quantum-espresso.org/quote

     Parallel version (MPI), running on    36 processors

     MPI processes distributed on     1 nodes
     R & G space division:  proc/nbgrp/npool/nimage =      36
     58514 MiB available memory on the printing compute node when the environment starts
 
     Waiting for input...
     Reading input from standard input

     Current dimensions of program PWSCF are:
     Max number of different atomic species (ntypx) = 10
     Max number of k-points (npk) =  40000
     Max angular momentum in pseudopotentials (lmaxx) =  4
     Presently no symmetry can be used with electric field

     file Ni.pbe-n-rrkjus_psl.1.0.0.UPF: wavefunction(s)  3D renormalized
     file O.pbe-rrkjus.UPF: wavefunction(s)  2S renormalized

     -------------------------------------------------
     Parameters for Dispersion (Grimme-D2) Correction:
     -------------------------------------------------
       atom      VdW radius       C_6     

        Ni         2.952        374.666
        P          3.222        271.980
        O          2.536         24.284

     gamma-point specific algorithms are used
     Found identity + ( -0.5000  0.0000  0.0000) symmetry
     This is a supercell, fractional translations are disabled

     Subspace diagonalization in iterative solution of the eigenvalue problem:
     a serial algorithm will be used

 
     Parallelization info
     --------------------
     sticks:   dense  smooth     PW     G-vecs:    dense   smooth      PW
     Min         373     148     36               106926    27028    3360
     Max         376     150     38               106950    27078    3406
     Sum       13471    5389   1349              3849851   973915  121819
 
     Using Slab Decomposition
 


     bravais-lattice index     =            0
     lattice parameter (alat)  =      17.7231  a.u.
     unit-cell volume          =   20392.3702 (a.u.)^3
     number of atoms/cell      =          156
     number of atomic types    =            3
     number of electrons       =      1056.00
     number of Kohn-Sham states=          634
     kinetic-energy cutoff     =      50.0000  Ry
     charge density cutoff     =     500.0000  Ry
     scf convergence threshold =      1.0E-06
     mixing beta               =       0.3000
     number of iterations used =            8  plain     mixing
     energy convergence thresh.=      1.0E-04
     force convergence thresh. =      1.0E-03
     Exchange-correlation=  SLA  PW   PBE  PBE
                           (   1   4   3   4   0   0   0)
     nstep                     =           50


     celldm(1)=  17.723132  celldm(2)=   0.000000  celldm(3)=   0.000000
     celldm(4)=   0.000000  celldm(5)=   0.000000  celldm(6)=   0.000000

     crystal axes: (cart. coord. in units of alat)
               a(1) = (   1.000000   0.000000   0.000000 )  
               a(2) = (   0.000000   1.078504   0.000000 )  
               a(3) = (   0.000000   0.000000   3.396445 )  

     reciprocal axes: (cart. coord. in units 2 pi/alat)
               b(1) = (  1.000000  0.000000  0.000000 )  
               b(2) = (  0.000000  0.927210  0.000000 )  
               b(3) = (  0.000000  0.000000  0.294425 )  


     PseudoPot. # 1 for Ni read from file:
     /home/manuruzzahran/pseudo/Ni.pbe-n-rrkjus_psl.1.0.0.UPF
     MD5 check sum: 0fbcd075604c6694e0d643a0634a3f21
     Pseudo is Ultrasoft + core correction, Zval = 10.0
     Generated using "atomic" code by A. Dal Corso  v.5.1.2
     Using radial grid of 1195 points,  6 beta functions with: 
                l(1) =   0
                l(2) =   0
                l(3) =   1
                l(4) =   1
                l(5) =   2
                l(6) =   2
     Q(r) pseudized with 0 coefficients 


     PseudoPot. # 2 for P  read from file:
     /home/manuruzzahran/pseudo/P.pbe-n-rrkjus_psl.1.0.0.UPF
     MD5 check sum: 8b930f418f0a4573dca56cd030ffe088
     Pseudo is Ultrasoft + core correction, Zval =  5.0
     Generated using "atomic" code by A. Dal Corso  v.5.1
     Using radial grid of 1147 points,  6 beta functions with: 
                l(1) =   0
                l(2) =   0
                l(3) =   1
                l(4) =   1
                l(5) =   2
                l(6) =   2
     Q(r) pseudized with 0 coefficients 


     PseudoPot. # 3 for O  read from file:
     /home/manuruzzahran/pseudo/O.pbe-rrkjus.UPF
     MD5 check sum: 390ba29e75625707450f3bd3f0eb6be9
     Pseudo is Ultrasoft, Zval =  6.0
     Generated by new atomic code, or converted to UPF format
     Using radial grid of 1269 points,  4 beta functions with: 
                l(1) =   0
                l(2) =   0
                l(3) =   1
                l(4) =   1
     Q(r) pseudized with 0 coefficients 


     atomic species   valence    mass     pseudopotential
        Ni            10.00    58.69340     Ni( 1.00)
        P              5.00    30.97376     P ( 1.00)
        O              6.00    15.99940     O ( 1.00)

     Starting magnetic structure 
     atomic species   magnetization
        Ni           1.000
        P            1.000
        O            1.000

     No symmetry found



   Cartesian axes

     site n.     atom                  positions (alat units)
         1           Ni  tau(   1) = (   0.2425939   0.8289547   0.1232563  )
         2           Ni  tau(   2) = (   0.4925939   0.7682479   0.4397296  )
         3           Ni  tau(   3) = (   0.0074061   0.2897028   0.1232563  )
         4           Ni  tau(   4) = (   0.2574061   0.2289960   0.4397296  )
         5           Ni  tau(   5) = (   0.0000000   1.0682273   0.2814930  )
         6           Ni  tau(   6) = (   0.2500000   0.5289753   0.2814930  )
         7           P   tau(   7) = (   0.2099015   0.9623143   0.4372472  )
         8           P   tau(   8) = (   0.4599015   0.6348883   0.1257387  )
         9           P   tau(   9) = (   0.2900985   0.0956364   0.1257387  )
        10           P   tau(  10) = (   0.0400985   0.4230624   0.4372472  )
        11           O   tau(  11) = (   0.1313289   0.8921807   0.3011581  )
        12           O   tau(  12) = (   0.3813289   0.7050219   0.2618278  )
        13           O   tau(  13) = (   0.3686711   0.1657700   0.2618278  )
        14           O   tau(  14) = (   0.1186711   0.3529288   0.3011581  )
        15           O   tau(  15) = (   0.1470808   0.8739426   0.5619197  )
        16           O   tau(  16) = (   0.3970808   0.7232600   0.0010662  )
        17           O   tau(  17) = (   0.3529192   0.1840081   0.0010662  )
        18           O   tau(  18) = (   0.1029192   0.3346907   0.5619197  )
        19           O   tau(  19) = (   0.0983097   0.5786104   0.4338456  )
        20           O   tau(  20) = (   0.3483097   1.0185922   0.1291403  )
        21           O   tau(  21) = (   0.3763566   0.4168410   0.4274499  )
        22           O   tau(  22) = (   0.1263566   0.1018578   0.1355360  )
        23           O   tau(  23) = (   0.1236434   0.6411097   0.1355360  )
        24           O   tau(  24) = (   0.4016903   0.4793403   0.1291403  )
        25           O   tau(  25) = (   0.1516903   0.0393585   0.4338456  )
        26           O   tau(  26) = (   0.3736434   0.9560929   0.4274499  )
        27           Ni  tau(  27) = (   0.2425939   0.8084016   0.7413658  )
        28           Ni  tau(  28) = (   0.4925939   0.7476948   1.0578391  )
        29           Ni  tau(  29) = (   0.0074061   0.2691497   0.7413658  )
        30           Ni  tau(  30) = (   0.2574061   0.2084429   1.0578391  )
        31           Ni  tau(  31) = (   0.0000000   1.0476741   0.8996025  )
        32           Ni  tau(  32) = (   0.2500000   0.5084222   0.8996025  )
        33           P   tau(  33) = (   0.2099015   0.9417612   1.0553567  )
        34           P   tau(  34) = (   0.4599015   0.6143352   0.7438483  )
        35           P   tau(  35) = (   0.2900985   0.0750833   0.7438483  )
        36           P   tau(  36) = (   0.0400985   0.4025093   1.0553567  )
        37           O   tau(  37) = (   0.1313289   0.8716276   0.9192676  )
        38           O   tau(  38) = (   0.3813289   0.6844688   0.8799374  )
        39           O   tau(  39) = (   0.3686711   0.1452169   0.8799374  )
        40           O   tau(  40) = (   0.1186711   0.3323757   0.9192676  )
        41           O   tau(  41) = (   0.1470808   0.8533895   1.1800292  )
        42           O   tau(  42) = (   0.3970808   0.7027069   0.6191758  )
        43           O   tau(  43) = (   0.3529192   0.1634550   0.6191758  )
        44           O   tau(  44) = (   0.1029192   0.3141376   1.1800292  )
        45           O   tau(  45) = (   0.0983097   0.5580573   1.0519551  )
        46           O   tau(  46) = (   0.3483097   0.9980391   0.7472498  )
        47           O   tau(  47) = (   0.3763566   0.3962879   1.0455594  )
        48           O   tau(  48) = (   0.1263566   0.0813047   0.7536455  )
        49           O   tau(  49) = (   0.1236434   0.6205566   0.7536455  )
        50           O   tau(  50) = (   0.4016903   0.4587872   0.7472498  )
        51           O   tau(  51) = (   0.1516903   0.0188054   1.0519551  )
        52           O   tau(  52) = (   0.3736434   0.9355398   1.0455594  )
        53           Ni  tau(  53) = (   0.2419769   0.7896068   1.3607869  )
        54           Ni  tau(  54) = (   0.5029263   0.7313963   1.6642771  )
        55           Ni  tau(  55) = (   0.0080233   0.2503528   1.3607887  )
        56           Ni  tau(  56) = (   0.2470720   0.1921410   1.6642757  )
        57           Ni  tau(  57) = (   0.0048409   1.0289984   1.5222399  )
        58           Ni  tau(  58) = (   0.2451589   0.4897446   1.5222403  )
        59           P   tau(  59) = (   0.2157746   0.9187472   1.6819736  )
        60           P   tau(  60) = (   0.4570191   0.5937922   1.3626388  )
        61           P   tau(  61) = (   0.2929795   0.0545390   1.3626396  )
        62           P   tau(  62) = (   0.0342289   0.3794876   1.6819783  )
        63           O   tau(  63) = (   0.1363172   0.8575559   1.5368766  )
        64           O   tau(  64) = (   0.3791328   0.6649549   1.4988617  )
        65           O   tau(  65) = (   0.3708666   0.1257035   1.4988601  )
        66           O   tau(  66) = (   0.1136819   0.3183058   1.5368759  )
        67           O   tau(  67) = (   0.1548293   0.8206921   1.7959414  )
        68           O   tau(  68) = (   0.3954613   0.6821684   1.2373806  )
        69           O   tau(  69) = (   0.3545395   0.1429152   1.2373797  )
        70           O   tau(  70) = (   0.0951666   0.2814423   1.7959349  )
        71           O   tau(  71) = (   0.0900015   0.5371436   1.6801463  )
        72           O   tau(  72) = (   0.3516970   0.9779725   1.3668693  )
        73           O   tau(  73) = (   0.3694094   0.3752630   1.6674002  )
        74           O   tau(  74) = (   0.1292260   0.0622782   1.3746956  )
        75           O   tau(  75) = (   0.1207748   0.6015304   1.3746960  )
        76           O   tau(  76) = (   0.3983021   0.4387202   1.3668689  )
        77           O   tau(  77) = (   0.1599984   1.0763930   1.6801451  )
        78           O   tau(  78) = (   0.3805875   0.9145145   1.6674012  )
        79           Ni  tau(  79) = (   0.7425939   0.8289547   0.1232563  )
        80           Ni  tau(  80) = (   0.9925939   0.7682479   0.4397296  )
        81           Ni  tau(  81) = (   0.5074061   0.2897028   0.1232563  )
        82           Ni  tau(  82) = (   0.7574061   0.2289960   0.4397296  )
        83           Ni  tau(  83) = (   0.5000000   1.0682273   0.2814930  )
        84           Ni  tau(  84) = (   0.7500000   0.5289753   0.2814930  )
        85           P   tau(  85) = (   0.7099015   0.9623143   0.4372472  )
        86           P   tau(  86) = (   0.9599015   0.6348883   0.1257387  )
        87           P   tau(  87) = (   0.7900985   0.0956364   0.1257387  )
        88           P   tau(  88) = (   0.5400985   0.4230624   0.4372472  )
        89           O   tau(  89) = (   0.6313289   0.8921807   0.3011581  )
        90           O   tau(  90) = (   0.8813289   0.7050219   0.2618278  )
        91           O   tau(  91) = (   0.8686711   0.1657700   0.2618278  )
        92           O   tau(  92) = (   0.6186711   0.3529288   0.3011581  )
        93           O   tau(  93) = (   0.6470808   0.8739426   0.5619197  )
        94           O   tau(  94) = (   0.8970808   0.7232600   0.0010662  )
        95           O   tau(  95) = (   0.8529192   0.1840081   0.0010662  )
        96           O   tau(  96) = (   0.6029192   0.3346907   0.5619197  )
        97           O   tau(  97) = (   0.5983097   0.5786104   0.4338456  )
        98           O   tau(  98) = (   0.8483097   1.0185922   0.1291403  )
        99           O   tau(  99) = (   0.8763566   0.4168410   0.4274499  )
       100           O   tau( 100) = (   0.6263566   0.1018578   0.1355360  )
       101           O   tau( 101) = (   0.6236434   0.6411097   0.1355360  )
       102           O   tau( 102) = (   0.9016903   0.4793403   0.1291403  )
       103           O   tau( 103) = (   0.6516903   0.0393585   0.4338456  )
       104           O   tau( 104) = (   0.8736434   0.9560929   0.4274499  )
       105           Ni  tau( 105) = (   0.7425939   0.8084016   0.7413658  )
       106           Ni  tau( 106) = (   0.9925939   0.7476948   1.0578391  )
       107           Ni  tau( 107) = (   0.5074061   0.2691497   0.7413658  )
       108           Ni  tau( 108) = (   0.7574061   0.2084429   1.0578391  )
       109           Ni  tau( 109) = (   0.5000000   1.0476741   0.8996025  )
       110           Ni  tau( 110) = (   0.7500000   0.5084222   0.8996025  )
       111           P   tau( 111) = (   0.7099015   0.9417612   1.0553567  )
       112           P   tau( 112) = (   0.9599015   0.6143352   0.7438483  )
       113           P   tau( 113) = (   0.7900985   0.0750833   0.7438483  )
       114           P   tau( 114) = (   0.5400985   0.4025093   1.0553567  )
       115           O   tau( 115) = (   0.6313289   0.8716276   0.9192676  )
       116           O   tau( 116) = (   0.8813289   0.6844688   0.8799374  )
       117           O   tau( 117) = (   0.8686711   0.1452169   0.8799374  )
       118           O   tau( 118) = (   0.6186711   0.3323757   0.9192676  )
       119           O   tau( 119) = (   0.6470808   0.8533895   1.1800292  )
       120           O   tau( 120) = (   0.8970808   0.7027069   0.6191758  )
       121           O   tau( 121) = (   0.8529192   0.1634550   0.6191758  )
       122           O   tau( 122) = (   0.6029192   0.3141376   1.1800292  )
       123           O   tau( 123) = (   0.5983097   0.5580573   1.0519551  )
       124           O   tau( 124) = (   0.8483097   0.9980391   0.7472498  )
       125           O   tau( 125) = (   0.8763566   0.3962879   1.0455594  )
       126           O   tau( 126) = (   0.6263566   0.0813047   0.7536455  )
       127           O   tau( 127) = (   0.6236434   0.6205566   0.7536455  )
       128           O   tau( 128) = (   0.9016903   0.4587872   0.7472498  )
       129           O   tau( 129) = (   0.6516903   0.0188054   1.0519551  )
       130           O   tau( 130) = (   0.8736434   0.9355398   1.0455594  )
       131           Ni  tau( 131) = (   0.7419769   0.7896068   1.3607869  )
       132           Ni  tau( 132) = (   0.0029263   0.7313963   1.6642771  )
       133           Ni  tau( 133) = (   0.5080233   0.2503528   1.3607887  )
       134           Ni  tau( 134) = (   0.7470720   0.1921410   1.6642757  )
       135           Ni  tau( 135) = (   0.5048409   1.0289984   1.5222399  )
       136           Ni  tau( 136) = (   0.7451589   0.4897446   1.5222403  )
       137           P   tau( 137) = (   0.7157746   0.9187472   1.6819736  )
       138           P   tau( 138) = (   0.9570191   0.5937922   1.3626388  )
       139           P   tau( 139) = (   0.7929795   0.0545390   1.3626396  )
       140           P   tau( 140) = (   0.5342289   0.3794876   1.6819783  )
       141           O   tau( 141) = (   0.6363172   0.8575559   1.5368766  )
       142           O   tau( 142) = (   0.8791328   0.6649549   1.4988617  )
       143           O   tau( 143) = (   0.8708666   0.1257035   1.4988601  )
       144           O   tau( 144) = (   0.6136819   0.3183058   1.5368759  )
       145           O   tau( 145) = (   0.6548293   0.8206921   1.7959414  )
       146           O   tau( 146) = (   0.8954613   0.6821684   1.2373806  )
       147           O   tau( 147) = (   0.8545395   0.1429152   1.2373797  )
       148           O   tau( 148) = (   0.5951666   0.2814423   1.7959349  )
       149           O   tau( 149) = (   0.5900015   0.5371436   1.6801463  )
       150           O   tau( 150) = (   0.8516970   0.9779725   1.3668693  )
       151           O   tau( 151) = (   0.8694094   0.3752630   1.6674002  )
       152           O   tau( 152) = (   0.6292260   0.0622782   1.3746956  )
       153           O   tau( 153) = (   0.6207748   0.6015304   1.3746960  )
       154           O   tau( 154) = (   0.8983021   0.4387202   1.3668689  )
       155           O   tau( 155) = (   0.6599984   1.0763930   1.6801451  )
       156           O   tau( 156) = (   0.8805875   0.9145145   1.6674012  )

     number of k points=     1  Gaussian smearing, width (Ry)=  0.0100
                       cart. coord. in units 2pi/alat
        k(    1) = (   0.0000000   0.0000000   0.0000000), wk =   1.0000000

     Dense  grid:  1924926 G-vectors     FFT dimensions: ( 128, 144, 432)

     Smooth grid:   486958 G-vectors     FFT dimensions: (  80,  90, 288)

     Estimated max dynamical RAM per process >     553.90 MB

     Estimated total dynamical RAM >      19.47 GB
     Generating pointlists ...
     new r_m :   0.0881 (alat units)  1.5606 (a.u.) for type    1
     new r_m :   0.0669 (alat units)  1.1859 (a.u.) for type    2
     new r_m :   0.0669 (alat units)  1.1859 (a.u.) for type    3

     Initial potential from superposition of free atoms

     starting charge    1055.9870, renormalised to    1056.0000

     negative rho (up, down):  1.177E-03 2.137E-13
 
     Adding external electric field

     Computed dipole along edir(3) : 
        Dipole               -0.0001 Ry au,         -0.0002 Debye
        Dipole field         -0.0000 Ry au, 
 
        Potential amp.        0.0000 Ry
        Total length         54.1761 bohr
 
 
     Adding external electric field

     Computed dipole along edir(3) : 
        Dipole               -0.0001 Ry au,         -0.0002 Debye
        Dipole field         -0.0000 Ry au, 
 
        Potential amp.        0.0000 Ry
        Total length         54.1761 bohr
 
     Starting wfcs are  804 randomized atomic wfcs

     total cpu time spent up to now is       18.8 secs

     Self-consistent Calculation

     iteration #  1     ecut=    50.00 Ry     beta= 0.30
     Davidson diagonalization with overlap
     ethr =  1.00E-02,  avg # of iterations =  6.0

     negative rho (up, down):  2.748E-04 0.000E+00
 
     Adding external electric field

     Computed dipole along edir(3) : 
        Dipole              -26.6809 Ry au,        -67.8162 Debye
        Dipole field         -0.0164 Ry au, 
 
        Potential amp.        1.7815 Ry
        Total length         54.1761 bohr
 
 
     Adding external electric field

     Computed dipole along edir(3) : 
        Dipole              -26.6809 Ry au,        -67.8162 Debye
        Dipole field         -0.0164 Ry au, 
 
        Potential amp.        1.7815 Ry
        Total length         54.1761 bohr
 

     total cpu time spent up to now is       75.8 secs

     total energy              =   -6770.80866729 Ry
     estimated scf accuracy    <     276.01785976 Ry

     total magnetization       =   212.00 Bohr mag/cell
     absolute magnetization    =   296.16 Bohr mag/cell

     iteration #  2     ecut=    50.00 Ry     beta= 0.30
     Davidson diagonalization with overlap
     ethr =  1.00E-02,  avg # of iterations =  9.0

     negative rho (up, down):  1.594E-04 0.000E+00
 
     Adding external electric field

     Computed dipole along edir(3) : 
        Dipole               18.3019 Ry au,         46.5187 Debye
        Dipole field          0.0113 Ry au, 
 
        Potential amp.       -1.2220 Ry
        Total length         54.1761 bohr
 
 
     Adding external electric field

     Computed dipole along edir(3) : 
        Dipole               18.3019 Ry au,         46.5187 Debye
        Dipole field          0.0113 Ry au, 
 
        Potential amp.       -1.2220 Ry
        Total length         54.1761 bohr
 

     total cpu time spent up to now is      143.5 secs

     total energy              =   -6682.56361471 Ry
     estimated scf accuracy    <   13544.08315181 Ry

     total magnetization       =   174.60 Bohr mag/cell
     absolute magnetization    =   186.05 Bohr mag/cell

     iteration #  3     ecut=    50.00 Ry     beta= 0.30
     Davidson diagonalization with overlap
     ethr =  1.00E-02,  avg # of iterations = 10.5

     negative rho (up, down):  5.663E-05 0.000E+00
 
     Adding external electric field

     Computed dipole along edir(3) : 
        Dipole              -16.4320 Ry au,        -41.7659 Debye
        Dipole field         -0.0101 Ry au, 
 
        Potential amp.        1.0972 Ry
        Total length         54.1761 bohr
 
 
     Adding external electric field

     Computed dipole along edir(3) : 
        Dipole              -16.4320 Ry au,        -41.7659 Debye
        Dipole field         -0.0101 Ry au, 
 
        Potential amp.        1.0972 Ry
        Total length         54.1761 bohr
 

     total cpu time spent up to now is      239.4 secs

     total energy              =   -6683.25596281 Ry
     estimated scf accuracy    <   37353.92669077 Ry

     total magnetization       =   155.29 Bohr mag/cell
     absolute magnetization    =   163.92 Bohr mag/cell

     iteration #  4     ecut=    50.00 Ry     beta= 0.30
     Davidson diagonalization with overlap
     ethr =  1.00E-02,  avg # of iterations = 11.0

     negative rho (up, down):  1.379E-05 0.000E+00
 
     Adding external electric field

     Computed dipole along edir(3) : 
        Dipole               -6.4574 Ry au,        -16.4132 Debye
        Dipole field         -0.0040 Ry au, 
 
        Potential amp.        0.4312 Ry
        Total length         54.1761 bohr
 
 
     Adding external electric field

     Computed dipole along edir(3) : 
        Dipole               -6.4574 Ry au,        -16.4132 Debye
        Dipole field         -0.0040 Ry au, 
 
        Potential amp.        0.4312 Ry
        Total length         54.1761 bohr
 

     total cpu time spent up to now is      328.8 secs

     total energy              =   -6841.92458806 Ry
     estimated scf accuracy    <    6246.41930889 Ry

     total magnetization       =   148.12 Bohr mag/cell
     absolute magnetization    =   164.61 Bohr mag/cell

     iteration #  5     ecut=    50.00 Ry     beta= 0.30
     Davidson diagonalization with overlap
     ethr =  1.00E-02,  avg # of iterations =  9.0

     negative rho (up, down):  9.690E-06 0.000E+00
 
     Adding external electric field

     Computed dipole along edir(3) : 
        Dipole               -2.6946 Ry au,         -6.8490 Debye
        Dipole field         -0.0017 Ry au, 
 
        Potential amp.        0.1799 Ry
        Total length         54.1761 bohr
 
 
     Adding external electric field

     Computed dipole along edir(3) : 
        Dipole               -2.6946 Ry au,         -6.8490 Debye
        Dipole field         -0.0017 Ry au, 
 
        Potential amp.        0.1799 Ry
        Total length         54.1761 bohr
 

     total cpu time spent up to now is      382.0 secs

     total energy              =   -6957.66451805 Ry
     estimated scf accuracy    <     279.69137014 Ry

     total magnetization       =    99.79 Bohr mag/cell
     absolute magnetization    =   146.80 Bohr mag/cell

     iteration #  6     ecut=    50.00 Ry     beta= 0.30
     Davidson diagonalization with overlap
     ethr =  1.00E-02,  avg # of iterations =  1.5

     negative rho (up, down):  1.478E-05 0.000E+00
 
     Adding external electric field

     Computed dipole along edir(3) : 
        Dipole               -7.2676 Ry au,        -18.4724 Debye
        Dipole field         -0.0045 Ry au, 
 
        Potential amp.        0.4853 Ry
        Total length         54.1761 bohr
 
 
     Adding external electric field

     Computed dipole along edir(3) : 
        Dipole               -7.2676 Ry au,        -18.4724 Debye
        Dipole field         -0.0045 Ry au, 
 
        Potential amp.        0.4853 Ry
        Total length         54.1761 bohr
 

     total cpu time spent up to now is      414.0 secs

     total energy              =   -6968.92868684 Ry
     estimated scf accuracy    <     242.42192238 Ry

     total magnetization       =    95.25 Bohr mag/cell
     absolute magnetization    =   138.88 Bohr mag/cell

     iteration #  7     ecut=    50.00 Ry     beta= 0.30
     Davidson diagonalization with overlap
     ethr =  1.00E-02,  avg # of iterations =  1.5

     negative rho (up, down):  3.082E-05 0.000E+00
 
     Adding external electric field

     Computed dipole along edir(3) : 
        Dipole               -6.0893 Ry au,        -15.4773 Debye
        Dipole field         -0.0038 Ry au, 
 
        Potential amp.        0.4066 Ry
        Total length         54.1761 bohr
 
 
     Adding external electric field

     Computed dipole along edir(3) : 
        Dipole               -6.0893 Ry au,        -15.4773 Debye
        Dipole field         -0.0038 Ry au, 
 
        Potential amp.        0.4066 Ry
        Total length         54.1761 bohr
 

     total cpu time spent up to now is      445.8 secs

     total energy              =   -6978.48088981 Ry
     estimated scf accuracy    <     151.45039880 Ry

     total magnetization       =    86.41 Bohr mag/cell
     absolute magnetization    =   130.39 Bohr mag/cell

     iteration #  8     ecut=    50.00 Ry     beta= 0.30
     Davidson diagonalization with overlap
     ethr =  1.00E-02,  avg # of iterations =  1.0

     negative rho (up, down):  7.085E-05 0.000E+00
 
     Adding external electric field

     Computed dipole along edir(3) : 
        Dipole               -5.4468 Ry au,        -13.8443 Debye
        Dipole field         -0.0034 Ry au, 
 
        Potential amp.        0.3637 Ry
        Total length         54.1761 bohr
 
 
     Adding external electric field

     Computed dipole along edir(3) : 
        Dipole               -5.4468 Ry au,        -13.8443 Debye
        Dipole field         -0.0034 Ry au, 
 
        Potential amp.        0.3637 Ry
        Total length         54.1761 bohr
 

     total cpu time spent up to now is      476.5 secs

     total energy              =   -6987.03328992 Ry
     estimated scf accuracy    <     126.38094017 Ry

     total magnetization       =    79.64 Bohr mag/cell
     absolute magnetization    =   123.76 Bohr mag/cell

     iteration #  9     ecut=    50.00 Ry     beta= 0.30
     Davidson diagonalization with overlap
     ethr =  1.00E-02,  avg # of iterations =  1.0

     negative rho (up, down):  9.069E-03 0.000E+00
 
     Adding external electric field

     Computed dipole along edir(3) : 
        Dipole               -4.3074 Ry au,        -10.9483 Debye
        Dipole field         -0.0027 Ry au, 
 
        Potential amp.        0.2876 Ry
        Total length         54.1761 bohr
 
 
     Adding external electric field

     Computed dipole along edir(3) : 
        Dipole               -4.3074 Ry au,        -10.9483 Debye
        Dipole field         -0.0027 Ry au, 
 
        Potential amp.        0.2876 Ry
        Total length         54.1761 bohr
 

     total cpu time spent up to now is      507.1 secs

     total energy              =   -7005.26911778 Ry
     estimated scf accuracy    <     182.95722876 Ry

     total magnetization       =    77.74 Bohr mag/cell
     absolute magnetization    =   118.92 Bohr mag/cell

     iteration # 10     ecut=    50.00 Ry     beta= 0.30
     Davidson diagonalization with overlap
     ethr =  1.00E-02,  avg # of iterations =  1.5

     negative rho (up, down):  2.283E-02 0.000E+00
 
     Adding external electric field

     Computed dipole along edir(3) : 
        Dipole               -3.4403 Ry au,         -8.7443 Debye
        Dipole field         -0.0021 Ry au, 
 
        Potential amp.        0.2297 Ry
        Total length         54.1761 bohr
 
 
     Adding external electric field

     Computed dipole along edir(3) : 
        Dipole               -3.4403 Ry au,         -8.7443 Debye
        Dipole field         -0.0021 Ry au, 
 
        Potential amp.        0.2297 Ry
        Total length         54.1761 bohr
 

     total cpu time spent up to now is      539.1 secs

     total energy              =   -7012.71822291 Ry
     estimated scf accuracy    <     175.53731329 Ry

     total magnetization       =    78.00 Bohr mag/cell
     absolute magnetization    =   106.09 Bohr mag/cell

     iteration # 11     ecut=    50.00 Ry     beta= 0.30
     Davidson diagonalization with overlap
     ethr =  1.00E-02,  avg # of iterations =  1.0

     negative rho (up, down):  2.604E-02 0.000E+00
 
     Adding external electric field

     Computed dipole along edir(3) : 
        Dipole               -1.4332 Ry au,         -3.6428 Debye
        Dipole field         -0.0009 Ry au, 
 
        Potential amp.        0.0957 Ry
        Total length         54.1761 bohr
 
 
     Adding external electric field

     Computed dipole along edir(3) : 
        Dipole               -1.4332 Ry au,         -3.6428 Debye
        Dipole field         -0.0009 Ry au, 
 
        Potential amp.        0.0957 Ry
        Total length         54.1761 bohr
 

     total cpu time spent up to now is      569.8 secs

     total energy              =   -7015.77584075 Ry
     estimated scf accuracy    <     235.58139090 Ry

     total magnetization       =    68.64 Bohr mag/cell
     absolute magnetization    =    93.66 Bohr mag/cell

     iteration # 12     ecut=    50.00 Ry     beta= 0.30
     Davidson diagonalization with overlap
     ethr =  1.00E-02,  avg # of iterations =  1.0

     negative rho (up, down):  2.735E-02 0.000E+00
 
     Adding external electric field

     Computed dipole along edir(3) : 
        Dipole               -2.4805 Ry au,         -6.3048 Debye
        Dipole field         -0.0015 Ry au, 
 
        Potential amp.        0.1656 Ry
        Total length         54.1761 bohr
 
 
     Adding external electric field

     Computed dipole along edir(3) : 
        Dipole               -2.4805 Ry au,         -6.3048 Debye
        Dipole field         -0.0015 Ry au, 
 
        Potential amp.        0.1656 Ry
        Total length         54.1761 bohr
 

     total cpu time spent up to now is      600.6 secs

     total energy              =   -7018.59360298 Ry
     estimated scf accuracy    <      59.19248122 Ry

     total magnetization       =    72.00 Bohr mag/cell
     absolute magnetization    =    92.15 Bohr mag/cell

     iteration # 13     ecut=    50.00 Ry     beta= 0.30
     Davidson diagonalization with overlap
     ethr =  5.61E-03,  avg # of iterations =  1.0

     negative rho (up, down):  1.466E-02 0.000E+00
 
     Adding external electric field

     Computed dipole along edir(3) : 
        Dipole                2.9844 Ry au,          7.5856 Debye
        Dipole field          0.0018 Ry au, 
 
        Potential amp.       -0.1993 Ry
        Total length         54.1761 bohr
 
 
     Adding external electric field

     Computed dipole along edir(3) : 
        Dipole                2.9844 Ry au,          7.5856 Debye
        Dipole field          0.0018 Ry au, 
 
        Potential amp.       -0.1993 Ry
        Total length         54.1761 bohr
 

     total cpu time spent up to now is      631.3 secs

     total energy              =   -7018.74636026 Ry
     estimated scf accuracy    <     110.77751554 Ry

     total magnetization       =    72.00 Bohr mag/cell
     absolute magnetization    =    90.68 Bohr mag/cell

     iteration # 14     ecut=    50.00 Ry     beta= 0.30
     Davidson diagonalization with overlap
     ethr =  5.61E-03,  avg # of iterations =  2.0

     negative rho (up, down):  1.397E-02 0.000E+00
 
     Adding external electric field

     Computed dipole along edir(3) : 
        Dipole               -2.8167 Ry au,         -7.1594 Debye
        Dipole field         -0.0017 Ry au, 
 
        Potential amp.        0.1881 Ry
        Total length         54.1761 bohr
 
 
     Adding external electric field

     Computed dipole along edir(3) : 
        Dipole               -2.8167 Ry au,         -7.1594 Debye
        Dipole field         -0.0017 Ry au, 
 
        Potential amp.        0.1881 Ry
        Total length         54.1761 bohr
 

     total cpu time spent up to now is      664.8 secs

     total energy              =   -7015.29989858 Ry
     estimated scf accuracy    <     765.68001461 Ry

     total magnetization       =    43.55 Bohr mag/cell
     absolute magnetization    =    63.81 Bohr mag/cell

     iteration # 15     ecut=    50.00 Ry     beta= 0.30
     Davidson diagonalization with overlap
     ethr =  5.61E-03,  avg # of iterations =  2.0

     negative rho (up, down):  1.980E-02 2.092E-04
 
     Adding external electric field

     Computed dipole along edir(3) : 
        Dipole                0.0083 Ry au,          0.0212 Debye
        Dipole field          0.0000 Ry au, 
 
        Potential amp.       -0.0006 Ry
        Total length         54.1761 bohr
 
 
     Adding external electric field

     Computed dipole along edir(3) : 
        Dipole                0.0083 Ry au,          0.0212 Debye
        Dipole field          0.0000 Ry au, 
 
        Potential amp.       -0.0006 Ry
        Total length         54.1761 bohr
 

     total cpu time spent up to now is      698.3 secs

     total energy              =   -7018.60256764 Ry
     estimated scf accuracy    <     468.55116032 Ry

     total magnetization       =    55.15 Bohr mag/cell
     absolute magnetization    =    72.11 Bohr mag/cell

     iteration # 16     ecut=    50.00 Ry     beta= 0.30
     Davidson diagonalization with overlap
     ethr =  5.61E-03,  avg # of iterations =  1.0

     negative rho (up, down):  2.276E-02 1.523E-03
 
     Adding external electric field

     Computed dipole along edir(3) : 
        Dipole               -1.3859 Ry au,         -3.5225 Debye
        Dipole field         -0.0009 Ry au, 
 
        Potential amp.        0.0925 Ry
        Total length         54.1761 bohr
 
 
     Adding external electric field

     Computed dipole along edir(3) : 
        Dipole               -1.3859 Ry au,         -3.5225 Debye
        Dipole field         -0.0009 Ry au, 
 
        Potential amp.        0.0925 Ry
        Total length         54.1761 bohr
 

     total cpu time spent up to now is      729.2 secs

     total energy              =   -7019.97611329 Ry
     estimated scf accuracy    <     131.25862853 Ry

     total magnetization       =    66.47 Bohr mag/cell
     absolute magnetization    =    80.25 Bohr mag/cell

     iteration # 17     ecut=    50.00 Ry     beta= 0.30
     Davidson diagonalization with overlap
     ethr =  5.61E-03,  avg # of iterations =  1.0

     negative rho (up, down):  1.660E-02 7.572E-05
 
     Adding external electric field

     Computed dipole along edir(3) : 
        Dipole               -0.4831 Ry au,         -1.2280 Debye
        Dipole field         -0.0003 Ry au, 
 
        Potential amp.        0.0323 Ry
        Total length         54.1761 bohr
 
 
     Adding external electric field

     Computed dipole along edir(3) : 
        Dipole               -0.4831 Ry au,         -1.2280 Debye
        Dipole field         -0.0003 Ry au, 
 
        Potential amp.        0.0323 Ry
        Total length         54.1761 bohr
 

     total cpu time spent up to now is      759.9 secs

     total energy              =   -7022.48392059 Ry
     estimated scf accuracy    <      24.00658961 Ry

     total magnetization       =    71.91 Bohr mag/cell
     absolute magnetization    =    82.12 Bohr mag/cell

     iteration # 18     ecut=    50.00 Ry     beta= 0.30
     Davidson diagonalization with overlap
     ethr =  2.27E-03,  avg # of iterations =  1.0

     negative rho (up, down):  1.258E-02 4.142E-04
 
     Adding external electric field

     Computed dipole along edir(3) : 
        Dipole               -0.5864 Ry au,         -1.4906 Debye
        Dipole field         -0.0004 Ry au, 
 
        Potential amp.        0.0392 Ry
        Total length         54.1761 bohr
 
 
     Adding external electric field

     Computed dipole along edir(3) : 
        Dipole               -0.5864 Ry au,         -1.4906 Debye
        Dipole field         -0.0004 Ry au, 
 
        Potential amp.        0.0392 Ry
        Total length         54.1761 bohr
 

     total cpu time spent up to now is      790.7 secs

     total energy              =   -7022.65577264 Ry
     estimated scf accuracy    <      96.29498834 Ry

     total magnetization       =    70.54 Bohr mag/cell
     absolute magnetization    =    81.34 Bohr mag/cell

     iteration # 19     ecut=    50.00 Ry     beta= 0.30
     Davidson diagonalization with overlap
     ethr =  2.27E-03,  avg # of iterations =  1.0

     negative rho (up, down):  1.101E-02 6.824E-05
 
     Adding external electric field

     Computed dipole along edir(3) : 
        Dipole               -0.8604 Ry au,         -2.1870 Debye
        Dipole field         -0.0005 Ry au, 
 
        Potential amp.        0.0575 Ry
        Total length         54.1761 bohr
 
 
     Adding external electric field

     Computed dipole along edir(3) : 
        Dipole               -0.8604 Ry au,         -2.1870 Debye
        Dipole field         -0.0005 Ry au, 
 
        Potential amp.        0.0575 Ry
        Total length         54.1761 bohr
 

     total cpu time spent up to now is      821.5 secs

     total energy              =   -7022.60369223 Ry
     estimated scf accuracy    <      59.75635188 Ry

     total magnetization       =    67.06 Bohr mag/cell
     absolute magnetization    =    76.14 Bohr mag/cell

     iteration # 20     ecut=    50.00 Ry     beta= 0.30
     Davidson diagonalization with overlap
     ethr =  2.27E-03,  avg # of iterations =  1.0

     negative rho (up, down):  1.002E-02 2.000E-04
 
     Adding external electric field

     Computed dipole along edir(3) : 
        Dipole               -0.2611 Ry au,         -0.6637 Debye
        Dipole field         -0.0002 Ry au, 
 
        Potential amp.        0.0174 Ry
        Total length         54.1761 bohr
 
 
     Adding external electric field

     Computed dipole along edir(3) : 
        Dipole               -0.2611 Ry au,         -0.6637 Debye
        Dipole field         -0.0002 Ry au, 
 
        Potential amp.        0.0174 Ry
        Total length         54.1761 bohr
 

     total cpu time spent up to now is      852.4 secs

     total energy              =   -7022.65781516 Ry
     estimated scf accuracy    <      92.88697514 Ry

     total magnetization       =    67.19 Bohr mag/cell
     absolute magnetization    =    76.11 Bohr mag/cell

     iteration # 21     ecut=    50.00 Ry     beta= 0.30
     Davidson diagonalization with overlap
     ethr =  2.27E-03,  avg # of iterations =  1.0

     negative rho (up, down):  9.239E-03 3.477E-05
 
     Adding external electric field

     Computed dipole along edir(3) : 
        Dipole               -0.2046 Ry au,         -0.5199 Debye
        Dipole field         -0.0001 Ry au, 
 
        Potential amp.        0.0137 Ry
        Total length         54.1761 bohr
 
 
     Adding external electric field

     Computed dipole along edir(3) : 
        Dipole               -0.2046 Ry au,         -0.5199 Debye
        Dipole field         -0.0001 Ry au, 
 
        Potential amp.        0.0137 Ry
        Total length         54.1761 bohr
 

     total cpu time spent up to now is      883.1 secs

     total energy              =   -7024.17863314 Ry
     estimated scf accuracy    <       3.95382667 Ry

     total magnetization       =    71.46 Bohr mag/cell
     absolute magnetization    =    78.36 Bohr mag/cell

     iteration # 22     ecut=    50.00 Ry     beta= 0.30
     Davidson diagonalization with overlap
     ethr =  3.74E-04,  avg # of iterations =  2.0

     negative rho (up, down):  8.157E-03 3.084E-05
 
     Adding external electric field

     Computed dipole along edir(3) : 
        Dipole               -0.1455 Ry au,         -0.3698 Debye
        Dipole field         -0.0001 Ry au, 
 
        Potential amp.        0.0097 Ry
        Total length         54.1761 bohr
 
 
     Adding external electric field

     Computed dipole along edir(3) : 
        Dipole               -0.1455 Ry au,         -0.3698 Debye
        Dipole field         -0.0001 Ry au, 
 
        Potential amp.        0.0097 Ry
        Total length         54.1761 bohr
 

     total cpu time spent up to now is      916.5 secs

     total energy              =   -7024.18129094 Ry
     estimated scf accuracy    <       8.93799918 Ry

     total magnetization       =    71.62 Bohr mag/cell
     absolute magnetization    =    78.65 Bohr mag/cell

     iteration # 23     ecut=    50.00 Ry     beta= 0.30
     Davidson diagonalization with overlap
     ethr =  3.74E-04,  avg # of iterations =  1.5

     negative rho (up, down):  6.720E-03 9.738E-06
 
     Adding external electric field

     Computed dipole along edir(3) : 
        Dipole               -0.6396 Ry au,         -1.6257 Debye
        Dipole field         -0.0004 Ry au, 
 
        Potential amp.        0.0427 Ry
        Total length         54.1761 bohr
 
 
     Adding external electric field

     Computed dipole along edir(3) : 
        Dipole               -0.6396 Ry au,         -1.6257 Debye
        Dipole field         -0.0004 Ry au, 
 
        Potential amp.        0.0427 Ry
        Total length         54.1761 bohr
 

     total cpu time spent up to now is      948.6 secs

     total energy              =   -7024.46697074 Ry
     estimated scf accuracy    <       1.92871675 Ry

     total magnetization       =    71.86 Bohr mag/cell
     absolute magnetization    =    78.41 Bohr mag/cell

     iteration # 24     ecut=    50.00 Ry     beta= 0.30
     Davidson diagonalization with overlap
     ethr =  1.83E-04,  avg # of iterations =  2.5

     negative rho (up, down):  5.520E-03 3.736E-06
 
     Adding external electric field

     Computed dipole along edir(3) : 
        Dipole               -0.0498 Ry au,         -0.1267 Debye
        Dipole field         -0.0000 Ry au, 
 
        Potential amp.        0.0033 Ry
        Total length         54.1761 bohr
 
 
     Adding external electric field

     Computed dipole along edir(3) : 
        Dipole               -0.0498 Ry au,         -0.1267 Debye
        Dipole field         -0.0000 Ry au, 
 
        Potential amp.        0.0033 Ry
        Total length         54.1761 bohr
 

     total cpu time spent up to now is      982.6 secs

     total energy              =   -7024.53610554 Ry
     estimated scf accuracy    <       1.99778005 Ry

     total magnetization       =    71.63 Bohr mag/cell
     absolute magnetization    =    77.72 Bohr mag/cell

     iteration # 25     ecut=    50.00 Ry     beta= 0.30
     Davidson diagonalization with overlap
     ethr =  1.83E-04,  avg # of iterations =  2.0

     negative rho (up, down):  4.450E-03 1.084E-06
 
     Adding external electric field

     Computed dipole along edir(3) : 
        Dipole                0.0915 Ry au,          0.2326 Debye
        Dipole field          0.0001 Ry au, 
 
        Potential amp.       -0.0061 Ry
        Total length         54.1761 bohr
 
 
     Adding external electric field

     Computed dipole along edir(3) : 
        Dipole                0.0915 Ry au,          0.2326 Debye
        Dipole field          0.0001 Ry au, 
 
        Potential amp.       -0.0061 Ry
        Total length         54.1761 bohr
 

     total cpu time spent up to now is     1016.0 secs

     total energy              =   -7024.62601756 Ry
     estimated scf accuracy    <       2.32039979 Ry

     total magnetization       =    71.88 Bohr mag/cell
     absolute magnetization    =    77.54 Bohr mag/cell

     iteration # 26     ecut=    50.00 Ry     beta= 0.30
     Davidson diagonalization with overlap
     ethr =  1.83E-04,  avg # of iterations =  2.0

     negative rho (up, down):  4.012E-03 5.998E-07
 
     Adding external electric field

     Computed dipole along edir(3) : 
        Dipole               -0.3899 Ry au,         -0.9910 Debye
        Dipole field         -0.0002 Ry au, 
 
        Potential amp.        0.0260 Ry
        Total length         54.1761 bohr
 
 
     Adding external electric field

     Computed dipole along edir(3) : 
        Dipole               -0.3899 Ry au,         -0.9910 Debye
        Dipole field         -0.0002 Ry au, 
 
        Potential amp.        0.0260 Ry
        Total length         54.1761 bohr
 

     total cpu time spent up to now is     1049.3 secs

     total energy              =   -7024.59761022 Ry
     estimated scf accuracy    <       4.40737330 Ry

     total magnetization       =    71.65 Bohr mag/cell
     absolute magnetization    =    76.87 Bohr mag/cell

     iteration # 27     ecut=    50.00 Ry     beta= 0.30
     Davidson diagonalization with overlap
     ethr =  1.83E-04,  avg # of iterations =  1.5

     negative rho (up, down):  2.790E-03 2.295E-09
 
     Adding external electric field

     Computed dipole along edir(3) : 
        Dipole               -0.2369 Ry au,         -0.6023 Debye
        Dipole field         -0.0001 Ry au, 
 
        Potential amp.        0.0158 Ry
        Total length         54.1761 bohr
 
 
     Adding external electric field

     Computed dipole along edir(3) : 
        Dipole               -0.2369 Ry au,         -0.6023 Debye
        Dipole field         -0.0001 Ry au, 
 
        Potential amp.        0.0158 Ry
        Total length         54.1761 bohr
 

     total cpu time spent up to now is     1081.3 secs

     total energy              =   -7024.74603074 Ry
     estimated scf accuracy    <       1.04913007 Ry

     total magnetization       =    71.44 Bohr mag/cell
     absolute magnetization    =    76.42 Bohr mag/cell

     iteration # 28     ecut=    50.00 Ry     beta= 0.30
     Davidson diagonalization with overlap
     ethr =  9.93E-05,  avg # of iterations =  3.0

     negative rho (up, down):  1.926E-03 0.000E+00
 
     Adding external electric field

     Computed dipole along edir(3) : 
        Dipole                0.0997 Ry au,          0.2533 Debye
        Dipole field          0.0001 Ry au, 
 
        Potential amp.       -0.0067 Ry
        Total length         54.1761 bohr
 
 
     Adding external electric field

     Computed dipole along edir(3) : 
        Dipole                0.0997 Ry au,          0.2533 Debye
        Dipole field          0.0001 Ry au, 
 
        Potential amp.       -0.0067 Ry
        Total length         54.1761 bohr
 

     total cpu time spent up to now is     1115.9 secs

     total energy              =   -7024.72861267 Ry
     estimated scf accuracy    <       2.04116719 Ry

     total magnetization       =    70.91 Bohr mag/cell
     absolute magnetization    =    75.30 Bohr mag/cell

     iteration # 29     ecut=    50.00 Ry     beta= 0.30
     Davidson diagonalization with overlap
     ethr =  9.93E-05,  avg # of iterations =  2.5

     negative rho (up, down):  1.128E-03 0.000E+00
 
     Adding external electric field

     Computed dipole along edir(3) : 
        Dipole               -0.1058 Ry au,         -0.2689 Debye
        Dipole field         -0.0001 Ry au, 
 
        Potential amp.        0.0071 Ry
        Total length         54.1761 bohr
 
 
     Adding external electric field

     Computed dipole along edir(3) : 
        Dipole               -0.1058 Ry au,         -0.2689 Debye
        Dipole field         -0.0001 Ry au, 
 
        Potential amp.        0.0071 Ry
        Total length         54.1761 bohr
 

     total cpu time spent up to now is     1149.8 secs

     total energy              =   -7024.78548879 Ry
     estimated scf accuracy    <       1.65780285 Ry

     total magnetization       =    70.62 Bohr mag/cell
     absolute magnetization    =    74.45 Bohr mag/cell

     iteration # 30     ecut=    50.00 Ry     beta= 0.30
     Davidson diagonalization with overlap
     ethr =  9.93E-05,  avg # of iterations =  2.0

     negative rho (up, down):  1.180E-03 0.000E+00
 
     Adding external electric field

     Computed dipole along edir(3) : 
        Dipole                0.0985 Ry au,          0.2504 Debye
        Dipole field          0.0001 Ry au, 
 
        Potential amp.       -0.0066 Ry
        Total length         54.1761 bohr
 
 
     Adding external electric field

     Computed dipole along edir(3) : 
        Dipole                0.0985 Ry au,          0.2504 Debye
        Dipole field          0.0001 Ry au, 
 
        Potential amp.       -0.0066 Ry
        Total length         54.1761 bohr
 

     total cpu time spent up to now is     1183.1 secs

     total energy              =   -7024.85964754 Ry
     estimated scf accuracy    <       0.26535917 Ry

     total magnetization       =    71.59 Bohr mag/cell
     absolute magnetization    =    74.74 Bohr mag/cell

     iteration # 31     ecut=    50.00 Ry     beta= 0.30
     Davidson diagonalization with overlap
     c_bands:  5 eigenvalues not converged
     ethr =  2.51E-05,  avg # of iterations = 19.0

     negative rho (up, down):  8.828E-04 9.889E-06
 
     Adding external electric field

     Computed dipole along edir(3) : 
        Dipole                0.0201 Ry au,          0.0511 Debye
        Dipole field          0.0000 Ry au, 
 
        Potential amp.       -0.0013 Ry
        Total length         54.1761 bohr
 
 
     Adding external electric field

     Computed dipole along edir(3) : 
        Dipole                0.0201 Ry au,          0.0511 Debye
        Dipole field          0.0000 Ry au, 
 
        Potential amp.       -0.0013 Ry
        Total length         54.1761 bohr
 

     total cpu time spent up to now is     1240.6 secs

     total energy              =   -7024.89810018 Ry
     estimated scf accuracy    <       0.12403689 Ry

     total magnetization       =    71.84 Bohr mag/cell
     absolute magnetization    =    74.87 Bohr mag/cell

     iteration # 32     ecut=    50.00 Ry     beta= 0.30
     Davidson diagonalization with overlap
     ethr =  1.17E-05,  avg # of iterations =  3.5

     negative rho (up, down):  8.311E-04 1.780E-03
 
     Adding external electric field

     Computed dipole along edir(3) : 
        Dipole                0.1327 Ry au,          0.3373 Debye
        Dipole field          0.0001 Ry au, 
 
        Potential amp.       -0.0089 Ry
        Total length         54.1761 bohr
 
 
     Adding external electric field

     Computed dipole along edir(3) : 
        Dipole                0.1327 Ry au,          0.3373 Debye
        Dipole field          0.0001 Ry au, 
 
        Potential amp.       -0.0089 Ry
        Total length         54.1761 bohr
 

     total cpu time spent up to now is     1275.8 secs

     total energy              =   -7024.90601198 Ry
     estimated scf accuracy    <       0.08822071 Ry

     total magnetization       =    71.65 Bohr mag/cell
     absolute magnetization    =    74.14 Bohr mag/cell

     iteration # 33     ecut=    50.00 Ry     beta= 0.30
     Davidson diagonalization with overlap
     ethr =  8.35E-06,  avg # of iterations =  2.0

     negative rho (up, down):  8.355E-04 1.212E-03
 
     Adding external electric field

     Computed dipole along edir(3) : 
        Dipole                0.1388 Ry au,          0.3527 Debye
        Dipole field          0.0001 Ry au, 
 
        Potential amp.       -0.0093 Ry
        Total length         54.1761 bohr
 
 
     Adding external electric field

     Computed dipole along edir(3) : 
        Dipole                0.1388 Ry au,          0.3527 Debye
        Dipole field          0.0001 Ry au, 
 
        Potential amp.       -0.0093 Ry
        Total length         54.1761 bohr
 

     total cpu time spent up to now is     1309.3 secs

     total energy              =   -7024.91122711 Ry
     estimated scf accuracy    <       0.03916323 Ry

     total magnetization       =    71.68 Bohr mag/cell
     absolute magnetization    =    73.87 Bohr mag/cell

     iteration # 34     ecut=    50.00 Ry     beta= 0.30
     Davidson diagonalization with overlap
     c_bands:  1 eigenvalues not converged
     ethr =  3.71E-06,  avg # of iterations = 11.0

     negative rho (up, down):  8.352E-04 1.145E-03
 
     Adding external electric field

     Computed dipole along edir(3) : 
        Dipole                0.0023 Ry au,          0.0058 Debye
        Dipole field          0.0000 Ry au, 
 
        Potential amp.       -0.0002 Ry
        Total length         54.1761 bohr
 
 
     Adding external electric field

     Computed dipole along edir(3) : 
        Dipole                0.0023 Ry au,          0.0058 Debye
        Dipole field          0.0000 Ry au, 
 
        Potential amp.       -0.0002 Ry
        Total length         54.1761 bohr
 

     total cpu time spent up to now is     1352.9 secs

     total energy              =   -7024.91319084 Ry
     estimated scf accuracy    <       0.02558960 Ry

     total magnetization       =    71.82 Bohr mag/cell
     absolute magnetization    =    73.94 Bohr mag/cell

     iteration # 35     ecut=    50.00 Ry     beta= 0.30
     Davidson diagonalization with overlap
     c_bands:  1 eigenvalues not converged
     ethr =  2.42E-06,  avg # of iterations = 21.0

     negative rho (up, down):  8.113E-04 3.759E-03
 
     Adding external electric field

     Computed dipole along edir(3) : 
        Dipole                0.2338 Ry au,          0.5942 Debye
        Dipole field          0.0001 Ry au, 
 
        Potential amp.       -0.0156 Ry
        Total length         54.1761 bohr
 
 
     Adding external electric field

     Computed dipole along edir(3) : 
        Dipole                0.2338 Ry au,          0.5942 Debye
        Dipole field          0.0001 Ry au, 
 
        Potential amp.       -0.0156 Ry
        Total length         54.1761 bohr
 

     total cpu time spent up to now is     1418.2 secs

     total energy              =   -7024.91103860 Ry
     estimated scf accuracy    <       0.11017786 Ry

     total magnetization       =    71.41 Bohr mag/cell
     absolute magnetization    =    73.44 Bohr mag/cell

     iteration # 36     ecut=    50.00 Ry     beta= 0.30
     Davidson diagonalization with overlap
     ethr =  2.42E-06,  avg # of iterations = 11.5

     negative rho (up, down):  8.210E-04 2.437E-03
 
     Adding external electric field

     Computed dipole along edir(3) : 
        Dipole                0.1629 Ry au,          0.4140 Debye
        Dipole field          0.0001 Ry au, 
 
        Potential amp.       -0.0109 Ry
        Total length         54.1761 bohr
 
 
     Adding external electric field

     Computed dipole along edir(3) : 
        Dipole                0.1629 Ry au,          0.4140 Debye
        Dipole field          0.0001 Ry au, 
 
        Potential amp.       -0.0109 Ry
        Total length         54.1761 bohr
 

     total cpu time spent up to now is     1460.7 secs

     total energy              =   -7024.91555075 Ry
     estimated scf accuracy    <       0.02072374 Ry

     total magnetization       =    71.75 Bohr mag/cell
     absolute magnetization    =    73.64 Bohr mag/cell

     iteration # 37     ecut=    50.00 Ry     beta= 0.30
     Davidson diagonalization with overlap
     ethr =  1.96E-06,  avg # of iterations =  2.0

     negative rho (up, down):  8.125E-04 3.364E-03
 
     Adding external electric field

     Computed dipole along edir(3) : 
        Dipole                0.1188 Ry au,          0.3019 Debye
        Dipole field          0.0001 Ry au, 
 
        Potential amp.       -0.0079 Ry
        Total length         54.1761 bohr
 
 
     Adding external electric field

     Computed dipole along edir(3) : 
        Dipole                0.1188 Ry au,          0.3019 Debye
        Dipole field          0.0001 Ry au, 
 
        Potential amp.       -0.0079 Ry
        Total length         54.1761 bohr
 

     total cpu time spent up to now is     1494.0 secs

     total energy              =   -7024.91595531 Ry
     estimated scf accuracy    <       0.00651944 Ry

     total magnetization       =    71.82 Bohr mag/cell
     absolute magnetization    =    73.70 Bohr mag/cell

     iteration # 38     ecut=    50.00 Ry     beta= 0.30
     Davidson diagonalization with overlap
     ethr =  6.17E-07,  avg # of iterations =  2.5

     negative rho (up, down):  8.102E-04 3.610E-03
 
     Adding external electric field

     Computed dipole along edir(3) : 
        Dipole                0.1945 Ry au,          0.4945 Debye
        Dipole field          0.0001 Ry au, 
 
        Potential amp.       -0.0130 Ry
        Total length         54.1761 bohr
 
 
     Adding external electric field

     Computed dipole along edir(3) : 
        Dipole                0.1945 Ry au,          0.4945 Debye
        Dipole field          0.0001 Ry au, 
 
        Potential amp.       -0.0130 Ry
        Total length         54.1761 bohr
 

     total cpu time spent up to now is     1528.2 secs

     total energy              =   -7024.91535947 Ry
     estimated scf accuracy    <       0.01650548 Ry

     total magnetization       =    71.67 Bohr mag/cell
     absolute magnetization    =    73.45 Bohr mag/cell

     iteration # 39     ecut=    50.00 Ry     beta= 0.30
     Davidson diagonalization with overlap
     ethr =  6.17E-07,  avg # of iterations =  2.0

     negative rho (up, down):  8.197E-04 2.323E-03
 
     Adding external electric field

     Computed dipole along edir(3) : 
        Dipole                0.1668 Ry au,          0.4239 Debye
        Dipole field          0.0001 Ry au, 
 
        Potential amp.       -0.0111 Ry
        Total length         54.1761 bohr
 
 
     Adding external electric field

     Computed dipole along edir(3) : 
        Dipole                0.1668 Ry au,          0.4239 Debye
        Dipole field          0.0001 Ry au, 
 
        Potential amp.       -0.0111 Ry
        Total length         54.1761 bohr
 

     total cpu time spent up to now is     1561.9 secs

     total energy              =   -7024.91636633 Ry
     estimated scf accuracy    <       0.00571464 Ry

     total magnetization       =    71.73 Bohr mag/cell
     absolute magnetization    =    73.46 Bohr mag/cell

     iteration # 40     ecut=    50.00 Ry     beta= 0.30
     Davidson diagonalization with overlap
     ethr =  5.41E-07,  avg # of iterations =  2.0

     negative rho (up, down):  8.219E-04 2.045E-03
 
     Adding external electric field

     Computed dipole along edir(3) : 
        Dipole                0.1575 Ry au,          0.4003 Debye
        Dipole field          0.0001 Ry au, 
 
        Potential amp.       -0.0105 Ry
        Total length         54.1761 bohr
 
 
     Adding external electric field

     Computed dipole along edir(3) : 
        Dipole                0.1575 Ry au,          0.4003 Debye
        Dipole field          0.0001 Ry au, 
 
        Potential amp.       -0.0105 Ry
        Total length         54.1761 bohr
 

     total cpu time spent up to now is     1595.3 secs

     total energy              =   -7024.91674875 Ry
     estimated scf accuracy    <       0.00157636 Ry

     total magnetization       =    71.80 Bohr mag/cell
     absolute magnetization    =    73.54 Bohr mag/cell

     iteration # 41     ecut=    50.00 Ry     beta= 0.30
     Davidson diagonalization with overlap
     ethr =  1.49E-07,  avg # of iterations =  2.0

     negative rho (up, down):  8.277E-04 1.349E-03
 
     Adding external electric field

     Computed dipole along edir(3) : 
        Dipole                0.1478 Ry au,          0.3756 Debye
        Dipole field          0.0001 Ry au, 
 
        Potential amp.       -0.0099 Ry
        Total length         54.1761 bohr
 
 
     Adding external electric field

     Computed dipole along edir(3) : 
        Dipole                0.1478 Ry au,          0.3756 Debye
        Dipole field          0.0001 Ry au, 
 
        Potential amp.       -0.0099 Ry
        Total length         54.1761 bohr
 

     total cpu time spent up to now is     1628.7 secs

     total energy              =   -7024.91688244 Ry
     estimated scf accuracy    <       0.00053161 Ry

     total magnetization       =    71.79 Bohr mag/cell
     absolute magnetization    =    73.53 Bohr mag/cell

     iteration # 42     ecut=    50.00 Ry     beta= 0.30
     Davidson diagonalization with overlap
     ethr =  5.03E-08,  avg # of iterations =  2.0

     negative rho (up, down):  8.316E-04 9.736E-04
 
     Adding external electric field

     Computed dipole along edir(3) : 
        Dipole                0.1476 Ry au,          0.3752 Debye
        Dipole field          0.0001 Ry au, 
 
        Potential amp.       -0.0099 Ry
        Total length         54.1761 bohr
 
 
     Adding external electric field

     Computed dipole along edir(3) : 
        Dipole                0.1476 Ry au,          0.3752 Debye
        Dipole field          0.0001 Ry au, 
 
        Potential amp.       -0.0099 Ry
        Total length         54.1761 bohr
 

     total cpu time spent up to now is     1662.2 secs

     total energy              =   -7024.91691498 Ry
     estimated scf accuracy    <       0.00042526 Ry

     total magnetization       =    71.78 Bohr mag/cell
     absolute magnetization    =    73.49 Bohr mag/cell

     iteration # 43     ecut=    50.00 Ry     beta= 0.30
     Davidson diagonalization with overlap
     ethr =  4.03E-08,  avg # of iterations =  2.0

     negative rho (up, down):  8.335E-04 8.344E-04
 
     Adding external electric field

     Computed dipole along edir(3) : 
        Dipole                0.1420 Ry au,          0.3608 Debye
        Dipole field          0.0001 Ry au, 
 
        Potential amp.       -0.0095 Ry
        Total length         54.1761 bohr
 
 
     Adding external electric field

     Computed dipole along edir(3) : 
        Dipole                0.1420 Ry au,          0.3608 Debye
        Dipole field          0.0001 Ry au, 
 
        Potential amp.       -0.0095 Ry
        Total length         54.1761 bohr
 

     total cpu time spent up to now is     1695.6 secs

     total energy              =   -7024.91695574 Ry
     estimated scf accuracy    <       0.00015848 Ry

     total magnetization       =    71.78 Bohr mag/cell
     absolute magnetization    =    73.48 Bohr mag/cell

     iteration # 44     ecut=    50.00 Ry     beta= 0.30
     Davidson diagonalization with overlap
     ethr =  1.50E-08,  avg # of iterations =  2.0

     negative rho (up, down):  8.375E-04 5.829E-04
 
     Adding external electric field

     Computed dipole along edir(3) : 
        Dipole                0.1401 Ry au,          0.3560 Debye
        Dipole field          0.0001 Ry au, 
 
        Potential amp.       -0.0094 Ry
        Total length         54.1761 bohr
 
 
     Adding external electric field

     Computed dipole along edir(3) : 
        Dipole                0.1401 Ry au,          0.3560 Debye
        Dipole field          0.0001 Ry au, 
 
        Potential amp.       -0.0094 Ry
        Total length         54.1761 bohr
 

     total cpu time spent up to now is     1729.0 secs

     total energy              =   -7024.91697813 Ry
     estimated scf accuracy    <       0.00004824 Ry

     total magnetization       =    71.79 Bohr mag/cell
     absolute magnetization    =    73.49 Bohr mag/cell

     iteration # 45     ecut=    50.00 Ry     beta= 0.30
     Davidson diagonalization with overlap
     ethr =  4.57E-09,  avg # of iterations =  2.0

     negative rho (up, down):  8.376E-04 5.835E-04
 
     Adding external electric field

     Computed dipole along edir(3) : 
        Dipole                0.1417 Ry au,          0.3601 Debye
        Dipole field          0.0001 Ry au, 
 
        Potential amp.       -0.0095 Ry
        Total length         54.1761 bohr
 
 
     Adding external electric field

     Computed dipole along edir(3) : 
        Dipole                0.1417 Ry au,          0.3601 Debye
        Dipole field          0.0001 Ry au, 
 
        Potential amp.       -0.0095 Ry
        Total length         54.1761 bohr
 

     total cpu time spent up to now is     1762.6 secs

     total energy              =   -7024.91698140 Ry
     estimated scf accuracy    <       0.00001669 Ry

     total magnetization       =    71.79 Bohr mag/cell
     absolute magnetization    =    73.49 Bohr mag/cell

     iteration # 46     ecut=    50.00 Ry     beta= 0.30
     Davidson diagonalization with overlap
     ethr =  1.58E-09,  avg # of iterations =  2.0

     negative rho (up, down):  8.389E-04 5.147E-04
 
     Adding external electric field

     Computed dipole along edir(3) : 
        Dipole                0.1352 Ry au,          0.3435 Debye
        Dipole field          0.0001 Ry au, 
 
        Potential amp.       -0.0090 Ry
        Total length         54.1761 bohr
 
 
     Adding external electric field

     Computed dipole along edir(3) : 
        Dipole                0.1352 Ry au,          0.3435 Debye
        Dipole field          0.0001 Ry au, 
 
        Potential amp.       -0.0090 Ry
        Total length         54.1761 bohr
 

     total cpu time spent up to now is     1796.7 secs

     total energy              =   -7024.91698313 Ry
     estimated scf accuracy    <       0.00001473 Ry

     total magnetization       =    71.79 Bohr mag/cell
     absolute magnetization    =    73.49 Bohr mag/cell

     iteration # 47     ecut=    50.00 Ry     beta= 0.30
     Davidson diagonalization with overlap
     ethr =  1.39E-09,  avg # of iterations =  2.0

     negative rho (up, down):  8.388E-04 5.228E-04
 
     Adding external electric field

     Computed dipole along edir(3) : 
        Dipole                0.1405 Ry au,          0.3572 Debye
        Dipole field          0.0001 Ry au, 
 
        Potential amp.       -0.0094 Ry
        Total length         54.1761 bohr
 
 
     Adding external electric field

     Computed dipole along edir(3) : 
        Dipole                0.1405 Ry au,          0.3572 Debye
        Dipole field          0.0001 Ry au, 
 
        Potential amp.       -0.0094 Ry
        Total length         54.1761 bohr
 

     total cpu time spent up to now is     1830.3 secs

     total energy              =   -7024.91698346 Ry
     estimated scf accuracy    <       0.00003294 Ry

     total magnetization       =    71.79 Bohr mag/cell
     absolute magnetization    =    73.49 Bohr mag/cell

     iteration # 48     ecut=    50.00 Ry     beta= 0.30
     Davidson diagonalization with overlap
     ethr =  1.39E-09,  avg # of iterations =  2.0

     negative rho (up, down):  8.390E-04 5.175E-04
 
     Adding external electric field

     Computed dipole along edir(3) : 
        Dipole                0.1399 Ry au,          0.3555 Debye
        Dipole field          0.0001 Ry au, 
 
        Potential amp.       -0.0093 Ry
        Total length         54.1761 bohr
 
 
     Adding external electric field

     Computed dipole along edir(3) : 
        Dipole                0.1399 Ry au,          0.3555 Debye
        Dipole field          0.0001 Ry au, 
 
        Potential amp.       -0.0093 Ry
        Total length         54.1761 bohr
 

     total cpu time spent up to now is     1863.6 secs

     total energy              =   -7024.91698504 Ry
     estimated scf accuracy    <       0.00000289 Ry

     total magnetization       =    71.79 Bohr mag/cell
     absolute magnetization    =    73.50 Bohr mag/cell

     iteration # 49     ecut=    50.00 Ry     beta= 0.30
     Davidson diagonalization with overlap
     ethr =  2.74E-10,  avg # of iterations =  2.0

     negative rho (up, down):  8.388E-04 5.340E-04
 
     Adding external electric field

     Computed dipole along edir(3) : 
        Dipole                0.1326 Ry au,          0.3371 Debye
        Dipole field          0.0001 Ry au, 
 
        Potential amp.       -0.0089 Ry
        Total length         54.1761 bohr
 
 
     Adding external electric field

     Computed dipole along edir(3) : 
        Dipole                0.1326 Ry au,          0.3371 Debye
        Dipole field          0.0001 Ry au, 
 
        Potential amp.       -0.0089 Ry
        Total length         54.1761 bohr
 
 
     Magnetic moment per site  (integrated on atomic sphere of radius R)
     atom   1 (R=0.088)  charge=  7.5142  magn=  1.5061
     atom   2 (R=0.088)  charge=  7.5090  magn=  1.5954
     atom   3 (R=0.088)  charge=  7.5137  magn=  1.5066
     atom   4 (R=0.088)  charge=  7.5089  magn=  1.5954
     atom   5 (R=0.088)  charge=  7.5355  magn=  1.5451
     atom   6 (R=0.088)  charge=  7.5354  magn=  1.5452
     atom   7 (R=0.067)  charge=  0.8183  magn=  0.0061
     atom   8 (R=0.067)  charge=  0.8212  magn=  0.0030
     atom   9 (R=0.067)  charge=  0.8212  magn=  0.0030
     atom  10 (R=0.067)  charge=  0.8183  magn=  0.0061
     atom  11 (R=0.067)  charge=  4.1877  magn=  0.1427
     atom  12 (R=0.067)  charge=  4.1852  magn=  0.1806
     atom  13 (R=0.067)  charge=  4.1852  magn=  0.1806
     atom  14 (R=0.067)  charge=  4.1877  magn=  0.1427
     atom  15 (R=0.067)  charge=  4.2100  magn=  0.1048
     atom  16 (R=0.067)  charge=  4.1641  magn=  0.0942
     atom  17 (R=0.067)  charge=  4.1641  magn=  0.0941
     atom  18 (R=0.067)  charge=  4.2100  magn=  0.1048
     atom  19 (R=0.067)  charge=  4.2052  magn=  0.1049
     atom  20 (R=0.067)  charge=  4.2007  magn=  0.0999
     atom  21 (R=0.067)  charge=  4.2092  magn=  0.0901
     atom  22 (R=0.067)  charge=  4.2061  magn=  0.0898
     atom  23 (R=0.067)  charge=  4.2061  magn=  0.0898
     atom  24 (R=0.067)  charge=  4.2007  magn=  0.0998
     atom  25 (R=0.067)  charge=  4.2052  magn=  0.1049
     atom  26 (R=0.067)  charge=  4.2092  magn=  0.0901
     atom  27 (R=0.088)  charge=  7.5113  magn=  1.5918
     atom  28 (R=0.088)  charge=  7.5107  magn=  1.5917
     atom  29 (R=0.088)  charge=  7.5113  magn=  1.5918
     atom  30 (R=0.088)  charge=  7.5107  magn=  1.5917
     atom  31 (R=0.088)  charge=  7.5371  magn=  1.5476
     atom  32 (R=0.088)  charge=  7.5371  magn=  1.5475
     atom  33 (R=0.067)  charge=  0.8183  magn=  0.0062
     atom  34 (R=0.067)  charge=  0.8186  magn=  0.0062
     atom  35 (R=0.067)  charge=  0.8186  magn=  0.0062
     atom  36 (R=0.067)  charge=  0.8183  magn=  0.0062
     atom  37 (R=0.067)  charge=  4.1876  magn=  0.1494
     atom  38 (R=0.067)  charge=  4.1877  magn=  0.1493
     atom  39 (R=0.067)  charge=  4.1877  magn=  0.1493
     atom  40 (R=0.067)  charge=  4.1876  magn=  0.1494
     atom  41 (R=0.067)  charge=  4.2094  magn=  0.1043
     atom  42 (R=0.067)  charge=  4.2097  magn=  0.1057
     atom  43 (R=0.067)  charge=  4.2097  magn=  0.1057
     atom  44 (R=0.067)  charge=  4.2094  magn=  0.1043
     atom  45 (R=0.067)  charge=  4.2054  magn=  0.1049
     atom  46 (R=0.067)  charge=  4.2053  magn=  0.1054
     atom  47 (R=0.067)  charge=  4.2092  magn=  0.0904
     atom  48 (R=0.067)  charge=  4.2091  magn=  0.0905
     atom  49 (R=0.067)  charge=  4.2091  magn=  0.0905
     atom  50 (R=0.067)  charge=  4.2053  magn=  0.1054
     atom  51 (R=0.067)  charge=  4.2054  magn=  0.1049
     atom  52 (R=0.067)  charge=  4.2092  magn=  0.0904
     atom  53 (R=0.088)  charge=  7.5087  magn=  1.5982
     atom  54 (R=0.088)  charge=  7.5221  magn=  1.5226
     atom  55 (R=0.088)  charge=  7.5087  magn=  1.5982
     atom  56 (R=0.088)  charge=  7.5222  magn=  1.5225
     atom  57 (R=0.088)  charge=  7.5330  magn=  1.5457
     atom  58 (R=0.088)  charge=  7.5330  magn=  1.5458
     atom  59 (R=0.067)  charge=  0.8160  magn=  0.0043
     atom  60 (R=0.067)  charge=  0.8190  magn=  0.0058
     atom  61 (R=0.067)  charge=  0.8190  magn=  0.0058
     atom  62 (R=0.067)  charge=  0.8160  magn=  0.0043
     atom  63 (R=0.067)  charge=  4.1773  magn=  0.1923
     atom  64 (R=0.067)  charge=  4.1889  magn=  0.1428
     atom  65 (R=0.067)  charge=  4.1889  magn=  0.1428
     atom  66 (R=0.067)  charge=  4.1773  magn=  0.1923
     atom  67 (R=0.067)  charge=  4.1842  magn=  0.0850
     atom  68 (R=0.067)  charge=  4.2086  magn=  0.1029
     atom  69 (R=0.067)  charge=  4.2086  magn=  0.1029
     atom  70 (R=0.067)  charge=  4.1843  magn=  0.0850
     atom  71 (R=0.067)  charge=  4.1942  magn=  0.1013
     atom  72 (R=0.067)  charge=  4.2016  magn=  0.1072
     atom  73 (R=0.067)  charge=  4.2007  magn=  0.0904
     atom  74 (R=0.067)  charge=  4.2076  magn=  0.0894
     atom  75 (R=0.067)  charge=  4.2076  magn=  0.0894
     atom  76 (R=0.067)  charge=  4.2016  magn=  0.1072
     atom  77 (R=0.067)  charge=  4.1942  magn=  0.1013
     atom  78 (R=0.067)  charge=  4.2007  magn=  0.0904
     atom  79 (R=0.088)  charge=  7.5137  magn=  1.5066
     atom  80 (R=0.088)  charge=  7.5089  magn=  1.5954
     atom  81 (R=0.088)  charge=  7.5142  magn=  1.5061
     atom  82 (R=0.088)  charge=  7.5089  magn=  1.5954
     atom  83 (R=0.088)  charge=  7.5354  magn=  1.5452
     atom  84 (R=0.088)  charge=  7.5353  magn=  1.5452
     atom  85 (R=0.067)  charge=  0.8183  magn=  0.0061
     atom  86 (R=0.067)  charge=  0.8212  magn=  0.0030
     atom  87 (R=0.067)  charge=  0.8212  magn=  0.0030
     atom  88 (R=0.067)  charge=  0.8183  magn=  0.0061
     atom  89 (R=0.067)  charge=  4.1877  magn=  0.1427
     atom  90 (R=0.067)  charge=  4.1852  magn=  0.1806
     atom  91 (R=0.067)  charge=  4.1852  magn=  0.1806
     atom  92 (R=0.067)  charge=  4.1877  magn=  0.1427
     atom  93 (R=0.067)  charge=  4.2100  magn=  0.1048
     atom  94 (R=0.067)  charge=  4.1641  magn=  0.0941
     atom  95 (R=0.067)  charge=  4.1641  magn=  0.0941
     atom  96 (R=0.067)  charge=  4.2100  magn=  0.1048
     atom  97 (R=0.067)  charge=  4.2052  magn=  0.1049
     atom  98 (R=0.067)  charge=  4.2007  magn=  0.0998
     atom  99 (R=0.067)  charge=  4.2092  magn=  0.0901
     atom 100 (R=0.067)  charge=  4.2061  magn=  0.0898
     atom 101 (R=0.067)  charge=  4.2061  magn=  0.0898
     atom 102 (R=0.067)  charge=  4.2007  magn=  0.0998
     atom 103 (R=0.067)  charge=  4.2052  magn=  0.1049
     atom 104 (R=0.067)  charge=  4.2092  magn=  0.0902
     atom 105 (R=0.088)  charge=  7.5113  magn=  1.5918
     atom 106 (R=0.088)  charge=  7.5107  magn=  1.5917
     atom 107 (R=0.088)  charge=  7.5113  magn=  1.5918
     atom 108 (R=0.088)  charge=  7.5107  magn=  1.5917
     atom 109 (R=0.088)  charge=  7.5371  magn=  1.5475
     atom 110 (R=0.088)  charge=  7.5371  magn=  1.5475
     atom 111 (R=0.067)  charge=  0.8183  magn=  0.0062
     atom 112 (R=0.067)  charge=  0.8186  magn=  0.0062
     atom 113 (R=0.067)  charge=  0.8186  magn=  0.0062
     atom 114 (R=0.067)  charge=  0.8183  magn=  0.0062
     atom 115 (R=0.067)  charge=  4.1876  magn=  0.1494
     atom 116 (R=0.067)  charge=  4.1877  magn=  0.1493
     atom 117 (R=0.067)  charge=  4.1877  magn=  0.1493
     atom 118 (R=0.067)  charge=  4.1876  magn=  0.1494
     atom 119 (R=0.067)  charge=  4.2094  magn=  0.1043
     atom 120 (R=0.067)  charge=  4.2097  magn=  0.1057
     atom 121 (R=0.067)  charge=  4.2097  magn=  0.1057
     atom 122 (R=0.067)  charge=  4.2094  magn=  0.1043
     atom 123 (R=0.067)  charge=  4.2054  magn=  0.1049
     atom 124 (R=0.067)  charge=  4.2053  magn=  0.1054
     atom 125 (R=0.067)  charge=  4.2092  magn=  0.0904
     atom 126 (R=0.067)  charge=  4.2091  magn=  0.0905
     atom 127 (R=0.067)  charge=  4.2091  magn=  0.0905
     atom 128 (R=0.067)  charge=  4.2053  magn=  0.1054
     atom 129 (R=0.067)  charge=  4.2054  magn=  0.1049
     atom 130 (R=0.067)  charge=  4.2092  magn=  0.0904
     atom 131 (R=0.088)  charge=  7.5087  magn=  1.5982
     atom 132 (R=0.088)  charge=  7.5221  magn=  1.5226
     atom 133 (R=0.088)  charge=  7.5087  magn=  1.5982
     atom 134 (R=0.088)  charge=  7.5222  magn=  1.5225
     atom 135 (R=0.088)  charge=  7.5330  magn=  1.5457
     atom 136 (R=0.088)  charge=  7.5330  magn=  1.5457
     atom 137 (R=0.067)  charge=  0.8160  magn=  0.0043
     atom 138 (R=0.067)  charge=  0.8190  magn=  0.0058
     atom 139 (R=0.067)  charge=  0.8190  magn=  0.0058
     atom 140 (R=0.067)  charge=  0.8160  magn=  0.0043
     atom 141 (R=0.067)  charge=  4.1773  magn=  0.1922
     atom 142 (R=0.067)  charge=  4.1889  magn=  0.1428
     atom 143 (R=0.067)  charge=  4.1889  magn=  0.1428
     atom 144 (R=0.067)  charge=  4.1773  magn=  0.1923
     atom 145 (R=0.067)  charge=  4.1842  magn=  0.0850
     atom 146 (R=0.067)  charge=  4.2086  magn=  0.1029
     atom 147 (R=0.067)  charge=  4.2086  magn=  0.1029
     atom 148 (R=0.067)  charge=  4.1843  magn=  0.0850
     atom 149 (R=0.067)  charge=  4.1942  magn=  0.1013
     atom 150 (R=0.067)  charge=  4.2016  magn=  0.1072
     atom 151 (R=0.067)  charge=  4.2007  magn=  0.0904
     atom 152 (R=0.067)  charge=  4.2076  magn=  0.0894
     atom 153 (R=0.067)  charge=  4.2076  magn=  0.0894
     atom 154 (R=0.067)  charge=  4.2016  magn=  0.1072
     atom 155 (R=0.067)  charge=  4.1942  magn=  0.1013
     atom 156 (R=0.067)  charge=  4.2007  magn=  0.0904

     total cpu time spent up to now is     1897.0 secs

     End of self-consistent calculation

 ------ SPIN UP ------------


          k = 0.0000 0.0000 0.0000 ( 60910 PWs)   bands (ev):

   -21.4549 -21.3198 -21.2575 -21.2341 -21.1913 -21.1904 -21.1849 -21.1533
   -21.1145 -21.1131 -21.1052 -21.0326 -21.0309 -21.0270 -20.9650 -20.9648
   -20.8175 -20.7944 -20.7825 -20.7534 -20.7059 -20.6709 -20.6698 -20.6397
   -19.0404 -19.0403 -18.9843 -18.9828 -18.9594 -18.9511 -18.9211 -18.9204
   -18.8826 -18.8412 -18.8177 -18.8015 -18.7872 -18.7861 -18.7857 -18.7794
   -18.7474 -18.7326 -18.7166 -18.7162 -18.7146 -18.7099 -18.7018 -18.6961
   -18.6892 -18.6813 -18.6572 -18.6271 -18.6226 -18.6094 -18.5952 -18.5871
   -18.5785 -18.5722 -18.5613 -18.5574 -18.5543 -18.5525 -18.5430 -18.5258
   -18.5253 -18.5173 -18.5172 -18.5132 -18.5033 -18.5016 -18.4911 -18.4820
   -18.4719 -18.4631 -18.4602 -18.4548 -18.4222 -18.3982 -18.3981 -18.3695
   -18.3131 -18.3047 -18.3035 -18.2952 -18.2915 -18.2763 -18.2722 -18.2718
   -17.9003 -17.8837 -17.8821 -17.8759 -17.3979 -17.3767 -17.3730 -17.3585
    -8.9107  -8.7294  -8.5908  -8.5259  -8.5249  -8.4932  -8.4501  -8.4465
    -8.4163  -8.4101  -8.4064  -8.3819  -8.3488  -8.3450  -8.3432  -8.2704
    -8.2093  -8.1076  -8.0995  -8.0483  -8.0190  -7.9051  -7.8969  -7.8666
    -7.5509  -7.3221  -7.1628  -7.1531  -7.0496  -6.9681  -6.9217  -6.8516
    -6.7562  -6.7308  -6.6504  -6.6483  -6.6481  -6.5994  -6.5977  -6.5907
[...]
     atom   90 type  3   force =    -0.00537776   -0.00023704    0.02561509
     atom   91 type  3   force =     0.00532385   -0.00025156    0.02563970
     atom   92 type  3   force =     0.00163953    0.00004057   -0.00168891
     atom   93 type  3   force =    -0.00052735   -0.00136362    0.00084927
     atom   94 type  3   force =     0.00769793   -0.00039705    0.02937138
     atom   95 type  3   force =    -0.00774990   -0.00040079    0.02934993
     atom   96 type  3   force =     0.00051778   -0.00136278    0.00083345
     atom   97 type  3   force =    -0.00081657   -0.00012365    0.00073738
     atom   98 type  3   force =    -0.01413491   -0.03048333   -0.00058020
     atom   99 type  3   force =     0.00116661   -0.00080483    0.00170942
     atom  100 type  3   force =    -0.01744503    0.00080094    0.00249249
     atom  101 type  3   force =     0.01743903    0.00073735    0.00249167
     atom  102 type  3   force =     0.01407439   -0.03047747   -0.00058449
     atom  103 type  3   force =     0.00081310   -0.00010634    0.00073811
     atom  104 type  3   force =    -0.00118908   -0.00080549    0.00170625
     atom  105 type  1   force =     0.00042694   -0.00021526   -0.00109839
     atom  106 type  1   force =    -0.00061569   -0.00038216    0.00153099
     atom  107 type  1   force =    -0.00043090   -0.00021450   -0.00111631
     atom  108 type  1   force =     0.00060923   -0.00036610    0.00153399
     atom  109 type  1   force =    -0.00008464    0.00011221   -0.00025771
     atom  110 type  1   force =     0.00008776    0.00010867   -0.00025194
     atom  111 type  2   force =     0.00004426    0.00006519    0.00015640
     atom  112 type  2   force =     0.00000785    0.00010571   -0.00060693
     atom  113 type  2   force =    -0.00000688    0.00010583   -0.00060677
     atom  114 type  2   force =    -0.00004387    0.00006509    0.00015594
     atom  115 type  3   force =    -0.00013826   -0.00030483    0.00020169
     atom  116 type  3   force =    -0.00009214    0.00026636    0.00050647
     atom  117 type  3   force =     0.00008936    0.00026961    0.00050838
     atom  118 type  3   force =     0.00013810   -0.00030237    0.00020319
     atom  119 type  3   force =     0.00075999    0.00022155    0.00180706
     atom  120 type  3   force =     0.00001413    0.00032199    0.00024149
     atom  121 type  3   force =    -0.00002543    0.00032188    0.00024267
     atom  122 type  3   force =    -0.00076656    0.00022492    0.00180843
     atom  123 type  3   force =    -0.00110662    0.00058647    0.00042346
     atom  124 type  3   force =    -0.00070955   -0.00007553    0.00055351
     atom  125 type  3   force =     0.00057738   -0.00020016    0.00012542
     atom  126 type  3   force =     0.00052858    0.00018337    0.00024901
     atom  127 type  3   force =    -0.00052908    0.00018107    0.00025084
     atom  128 type  3   force =     0.00070436   -0.00007374    0.00055489
     atom  129 type  3   force =     0.00110375    0.00059080    0.00042321
     atom  130 type  3   force =    -0.00057526   -0.00020183    0.00012459
     atom  131 type  1   force =     0.00031571   -0.00018723   -0.00023459
     atom  132 type  1   force =     0.00030566    0.00004044    0.00006436
     atom  133 type  1   force =    -0.00031518   -0.00016395   -0.00026611
     atom  134 type  1   force =    -0.00033081    0.00005846    0.00008120
     atom  135 type  1   force =    -0.00015434   -0.00006578    0.00019882
     atom  136 type  1   force =     0.00014470   -0.00000047    0.00019273
     atom  137 type  2   force =    -0.00049535   -0.00032322    0.00046842
     atom  138 type  2   force =    -0.00045334    0.00046188   -0.00024403
     atom  139 type  2   force =     0.00041569    0.00042951   -0.00020100
     atom  140 type  2   force =     0.00068368   -0.00062688    0.00070052
     atom  141 type  3   force =     0.00010349   -0.00024935    0.00010308
     atom  142 type  3   force =     0.00017016   -0.00006828    0.00021462
     atom  143 type  3   force =    -0.00015289   -0.00005648    0.00020912
     atom  144 type  3   force =    -0.00011898   -0.00022510    0.00008121
     atom  145 type  3   force =     0.00000725    0.00039936   -0.00015221
     atom  146 type  3   force =     0.00047356   -0.00011520    0.00026812
     atom  147 type  3   force =    -0.00045954   -0.00008890    0.00023829
     atom  148 type  3   force =    -0.00010398    0.00057219   -0.00033747
     atom  149 type  3   force =    -0.00037538   -0.00005498    0.00005705
     atom  150 type  3   force =    -0.00037057    0.00001734   -0.00014509
     atom  151 type  3   force =    -0.00056782   -0.00004345    0.00013025
     atom  152 type  3   force =    -0.00038652    0.00016950    0.00022279
     atom  153 type  3   force =     0.00040624    0.00016432    0.00023731
     atom  154 type  3   force =     0.00037373    0.00001762   -0.00014004
     atom  155 type  3   force =     0.00037779   -0.00016252    0.00007284
     atom  156 type  3   force =     0.00048177   -0.00008573    0.00014827

     Total force =     0.003681     Total SCF correction =     0.000776
     SCF correction compared to forces is large: reduce conv_thr to get better values
     Energy error            =      7.9E-06 Ry
     Gradient error          =      7.0E-04 Ry/Bohr

     bfgs converged in   2 scf cycles and   1 bfgs steps
     (criteria: energy <  1.0E-04 Ry, force <  1.0E-03 Ry/Bohr)

     End of BFGS Geometry Optimization

     Final energy             =   -7024.9169930555 Ry

     File ./tmp/100.bfgs deleted, as requested
Begin final coordinates

ATOMIC_POSITIONS (angstrom)
Ni            2.2752103275        7.7744991153        1.1559810358    0   0   0
Ni            4.6198797432        7.2051492682        4.1240823221    0   0   0
Ni            0.0694590881        2.7170293120        1.1559810366    0   0   0
Ni            2.4141285038        2.1476794649        4.1240823229    0   0   0
Ni            0.0000000000       10.0185590959        2.6400316802    0   0   0
Ni            2.3446694157        4.9610892901        2.6400316794    0   0   0
P             1.9685982242        9.0252355943        4.1008002581    0   0   0
P             4.3132676399        5.9544127891        1.1792630999    0   0   0
P             2.7207406072        0.8969429859        1.1792631008    0   0   0
P             0.3760711915        3.9677657910        4.1008002588    0   0   0
O             1.2316913873        8.3674752863        2.8244644691    0   0   0
O             3.5763608030        6.6121730970        2.4555988888    0   0   0
O             3.4576474441        1.5547032937        2.4555988897    0   0   0
O             1.1129780284        3.3100054831        2.8244644699    0   0   0
O             1.3794229916        8.1964259052        5.2700633579    0   0   0
O             3.7240924073        6.7832224781        0.0100000000    0   0   0
O             3.3099158398        1.7257526749        0.0100000008    0   0   0
O             0.9652464241        3.1389561019        5.2700633588    0   0   0
O             0.9220154062        5.4266005208        4.0688980366    0   0   0
O             3.2666848219        9.5530478625        1.2111653213    0   0   0
O             3.5297276115        3.9094173676        4.0089148719    0   0   0
O             1.1850581958        0.9552914093        1.2711484876    0   0   0
O             1.1596112199        6.0127612125        1.2711484868    0   0   0
O             3.7673234252        4.4955780593        1.2111653223    0   0   0
O             1.4226540095        0.3691307176        4.0688980374    0   0   0
O             3.5042806356        8.9668871708        4.0089148712    0   0   0
Ni            2.2752103275        7.5817380907        6.9530310255    0   0   0
Ni            4.6198797432        7.0123882436        9.9211323118    0   0   0
Ni            0.0694590881        2.5242682875        6.9530310263    0   0   0
Ni            2.4141285038        1.9549184404        9.9211323126    0   0   0
Ni            0.0000000000        9.8257980713        8.4370816699    0   0   0
Ni            2.3446694157        4.7683282656        8.4370816691    0   0   0
P             1.9685982242        8.8324745698        9.8978502478    0   0   0
P             4.3132676399        5.7616517646        6.9763130896    0   0   0
P             2.7207406072        0.7041819613        6.9763130906    0   0   0
P             0.3760711915        3.7750047665        9.8978502485    0   0   0
O             1.2316913873        8.1747142618        8.6215144588    0   0   0
O             3.5763608030        6.4194120725        8.2526488786    0   0   0
O             3.4576474441        1.3619422692        8.2526488794    0   0   0
O             1.1129780284        3.1172444586        8.6215144596    0   0   0
O             1.3794229916        8.0036648807       11.0671133476    0   0   0
O             3.7240924073        6.5904614536        5.8070499897    0   0   0
O             3.3099158398        1.5329916503        5.8070499906    0   0   0
O             0.9652464241        2.9461950774       11.0671133485    0   0   0
O             0.9220154062        5.2338394963        9.8659480264    0   0   0
O             3.2666848219        9.3602868380        7.0082153110    0   0   0
O             3.5297276115        3.7166563430        9.8059648616    0   0   0
O             1.1850581958        0.7625303847        7.0681984774    0   0   0
O             1.1596112199        5.8200001880        7.0681984765    0   0   0
O             3.7673234252        4.3028170348        7.0082153120    0   0   0
O             1.4226540095        0.1763696930        9.8659480271    0   0   0
O             3.5042806356        8.7741261463        9.8059648609    0   0   0
Ni            2.2696241767        7.4053554958       12.7622066520
Ni            4.7169385601        6.8595630691       15.6086317906
Ni            0.0750503822        2.3478808924       12.7622056434
Ni            2.3170621478        1.8020726962       15.6086082284
Ni            0.0452266460        9.6506201151       14.2766242111
Ni            2.2994466003        4.5931596707       14.2766355983
P             2.0241926473        8.6166386094       15.7747161693
P             4.2866034941        5.5688681256       12.7799859044
P             2.7474122318        0.5114036598       12.7799684071
P             0.3204220210        3.5592478060       15.7746558073
O             1.2784669554        8.0425145966       14.4137870275
O             3.5558100860        6.2364590662       14.0576238343
O             3.4781979372        1.1789931494       14.0576122246
O             1.0661984380        2.9850594623       14.4137766947
O             1.4519190299        7.6969621908       16.8438546316
O             3.7090576791        6.3980222794       11.6047106517
O             3.3249536054        1.3405320722       11.6047087488
O             0.8927558467        2.6394342205       16.8438979447
O             0.8438956860        5.0376841387       15.7576263322
O             3.2981895157        9.1721419064       12.8193043727
O             3.4647627227        3.5194349508       15.6381463864
O             1.2122231881        0.5841834879       12.8928979782
O             1.1324391538        5.6416601575       12.8929013219
O             3.7358140238        4.1146800377       12.8192992100
O             1.5007615561       10.0951782927       15.7576156522
O             3.5692595697        8.5769037797       15.6381472408
Ni            6.9645491583        7.7744991153        1.1559810358    0   0   0
Ni            9.3092185740        7.2051492682        4.1240823221    0   0   0
Ni            4.7587979189        2.7170293120        1.1559810366    0   0   0
Ni            7.1034673346        2.1476794649        4.1240823229    0   0   0
Ni            4.6893388308       10.0185590959        2.6400316802    0   0   0
Ni            7.0340082465        4.9610892901        2.6400316794    0   0   0
P             6.6579370550        9.0252355943        4.1008002581    0   0   0
P             9.0026064707        5.9544127891        1.1792630999    0   0   0
P             7.4100794380        0.8969429859        1.1792631008    0   0   0
P             5.0654100223        3.9677657910        4.1008002588    0   0   0
O             5.9210302181        8.3674752863        2.8244644691    0   0   0
O             8.2656996338        6.6121730970        2.4555988888    0   0   0
O             8.1469862749        1.5547032937        2.4555988897    0   0   0
O             5.8023168592        3.3100054831        2.8244644699    0   0   0
O             6.0687618224        8.1964259052        5.2700633579    0   0   0
O             8.4134312381        6.7832224781        0.0100000000    0   0   0
O             7.9992546706        1.7257526749        0.0100000008    0   0   0
O             5.6545852549        3.1389561019        5.2700633588    0   0   0
O             5.6113542370        5.4266005208        4.0688980366    0   0   0
O             7.9560236527        9.5530478625        1.2111653213    0   0   0
O             8.2190664423        3.9094173676        4.0089148719    0   0   0
O             5.8743970266        0.9552914093        1.2711484876    0   0   0
O             5.8489500507        6.0127612125        1.2711484868    0   0   0
O             8.4566622560        4.4955780593        1.2111653223    0   0   0
O             6.1119928403        0.3691307176        4.0688980374    0   0   0
O             8.1936194664        8.9668871708        4.0089148712    0   0   0
Ni            6.9645491583        7.5817380907        6.9530310255    0   0   0
Ni            9.3092185740        7.0123882436        9.9211323118    0   0   0
Ni            4.7587979189        2.5242682875        6.9530310263    0   0   0
Ni            7.1034673346        1.9549184404        9.9211323126    0   0   0
Ni            4.6893388308        9.8257980713        8.4370816699    0   0   0
Ni            7.0340082465        4.7683282656        8.4370816691    0   0   0
P             6.6579370550        8.8324745698        9.8978502478    0   0   0
P             9.0026064707        5.7616517646        6.9763130896    0   0   0
P             7.4100794380        0.7041819613        6.9763130906    0   0   0
P             5.0654100223        3.7750047665        9.8978502485    0   0   0
O             5.9210302181        8.1747142618        8.6215144588    0   0   0
O             8.2656996338        6.4194120725        8.2526488786    0   0   0
O             8.1469862749        1.3619422692        8.2526488794    0   0   0
O             5.8023168592        3.1172444586        8.6215144596    0   0   0
O             6.0687618224        8.0036648807       11.0671133476    0   0   0
O             8.4134312381        6.5904614536        5.8070499897    0   0   0
O             7.9992546706        1.5329916503        5.8070499906    0   0   0
O             5.6545852549        2.9461950774       11.0671133485    0   0   0
O             5.6113542370        5.2338394963        9.8659480264    0   0   0
O             7.9560236527        9.3602868380        7.0082153110    0   0   0
O             8.2190664423        3.7166563430        9.8059648616    0   0   0
O             5.8743970266        0.7625303847        7.0681984774    0   0   0
O             5.8489500507        5.8200001880        7.0681984765    0   0   0
O             8.4566622560        4.3028170348        7.0082153120    0   0   0
O             6.1119928403        0.1763696930        9.8659480271    0   0   0
O             8.1936194664        8.7741261463        9.8059648609    0   0   0
Ni            6.9589540891        7.4053534555       12.7622083305
Ni            0.0276029589        6.8595537843       15.6086294701
Ni            4.7643866317        2.3478802456       12.7622093877
Ni            7.0063981845        1.8020783084       15.6086099136
Ni            4.7345650104        9.6506133826       14.2766280605
Ni            6.9887753761        4.5931573542       14.2766316290
P             6.7135302563        8.6166381298       15.7747162974
P             8.9759431592        5.5688682418       12.7799854947
P             7.4367508767        0.5114040335       12.7799689094
P             5.0097611588        3.5592474262       15.7746556545
O             5.9678041927        8.0425153310       14.4137904263
O             8.2451490820        6.2364587449       14.0576232865
O             8.1675358660        1.1789934577       14.0576145192
O             5.7555347938        2.9850573224       14.4137760434
O             6.1412547837        7.6969615313       16.8438517455
O             8.3983964478        6.3980208767       11.6047088899
O             8.0142897679        1.3405317057       11.6047078139
O             5.5820968321        2.6394343882       16.8438966755
O             5.5332292600        5.0376863917       15.7576278972
O             7.9875294246        9.1721433615       12.8193045318
O             8.1540991289        3.5194335778       15.6381470364
O             5.9015600196        0.5841859985       12.8928985834
O             5.8217739606        5.6416599195       12.8929028059
O             8.4251514890        4.1146793966       12.8192980629
O             6.1901001720       10.0951793530       15.7576160330
O             8.2585981668        8.5769059779       15.6381466589
End final coordinates



     Writing all to output data dir ./tmp/100.save/
 
     init_run     :     17.62s CPU     18.44s WALL (       1 calls)
     electrons    :   2065.27s CPU   2127.19s WALL (       2 calls)
     update_pot   :      2.69s CPU      2.75s WALL (       1 calls)
     forces       :     20.79s CPU     22.33s WALL (       2 calls)
     force_london :      0.34s CPU      0.34s WALL (       2 calls)

     Called by init_run:
     wfcinit      :     10.81s CPU     11.05s WALL (       1 calls)
     potinit      :      1.50s CPU      1.61s WALL (       1 calls)
     hinit0       :      2.51s CPU      2.58s WALL (       1 calls)

     Called by electrons:
     c_bands      :   1501.20s CPU   1519.80s WALL (      56 calls)
     sum_band     :    429.64s CPU    451.92s WALL (      56 calls)
     v_of_rho     :     39.38s CPU     41.85s WALL (      57 calls)
     newd         :     82.82s CPU    100.46s WALL (      57 calls)
     mix_rho      :     10.45s CPU     11.29s WALL (      56 calls)
     energy_londo :      0.30s CPU      0.30s WALL (       2 calls)

     Called by c_bands:
     init_us_2    :     16.77s CPU     16.90s WALL (     230 calls)
     init_us_2:cp :     16.77s CPU     16.89s WALL (     230 calls)
     regterg      :   1467.21s CPU   1485.52s WALL (     113 calls)

     Called by *egterg:
     rdiaghg      :    241.71s CPU    242.59s WALL (     499 calls)
     h_psi        :    774.24s CPU    779.39s WALL (     505 calls)
     s_psi        :    116.08s CPU    116.59s WALL (     505 calls)
     g_psi        :      2.79s CPU      2.80s WALL (     390 calls)

     Called by h_psi:
     h_psi:calbec :    121.44s CPU    121.99s WALL (     505 calls)
     vloc_psi     :    529.62s CPU    532.79s WALL (     505 calls)
     add_vuspsi   :    115.50s CPU    116.87s WALL (     505 calls)

     General routines
     calbec       :    176.44s CPU    177.24s WALL (     633 calls)
     fft          :     29.27s CPU     33.57s WALL (    1216 calls)
     ffts         :      0.79s CPU      0.79s WALL (     226 calls)
     fftw         :    320.42s CPU    322.33s WALL (  201736 calls)
     interpolate  :      3.65s CPU      4.03s WALL (     114 calls)
 
     Parallel routines
 
     PWSCF        :  35m10.79s CPU  36m18.69s WALL

 
   This run was terminated on:  17:23:55   4Oct2023            

=------------------------------------------------------------------------------=
   JOB DONE.
=------------------------------------------------------------------------------=
