
     Program PWSCF v.7.2 starts on 17Nov2025 at 23:36: 1 

     This program is part of the open-source Quantum ESPRESSO suite
     for quantum simulation of materials; please cite
         "P. Giannozzi et al., J. Phys.:Condens. Matter 21 395502 (2009);
         "P. Giannozzi et al., J. Phys.:Condens. Matter 29 465901 (2017);
         "P. Giannozzi et al., J. Chem. Phys. 152 154105 (2020);
          URL http://www.quantum-espresso.org", 
     in publications or presentations arising from this work. More details at
     http://www.quantum-espresso.org/quote

     Parallel version (MPI), running on    64 processors

     MPI processes distributed on     4 nodes
     447639 MiB available memory on the printing compute node when the environment starts
 
     Reading input from PWINPUT_atm158_xm

     Current dimensions of program PWSCF are:
     Max number of different atomic species (ntypx) = 10
     Max number of k-points (npk) =  40000
     Max angular momentum in pseudopotentials (lmaxx) =  4
     Presently no symmetry can be used with electric field

     file Ni.pbe-n-rrkjus_psl.1.0.0.UPF: wavefunction(s)  3D renormalized
     file Mn.pbe-spn-rrkjus_psl.0.3.1.UPF: wavefunction(s)  3D renormalized
     file O.pbe-rrkjus.UPF: wavefunction(s)  2S renormalized
     file H.pbe-rrkjus.UPF: wavefunction(s)  1S renormalized

     gamma-point specific algorithms are used
 
     R & G space division:  proc/nbgrp/npool/nimage =      64
     Subspace diagonalization in iterative solution of the eigenvalue problem:
     one sub-group per band group will be used
     custom distributed-memory algorithm (size of sub-group:  7*  7 procs)

 
     Parallelization info
     --------------------
     sticks:   dense  smooth     PW     G-vecs:    dense   smooth      PW
     Min         214      85     20                61830    15614    1928
     Max         216      86     22                61864    15658    1982
     Sum       13727    5503   1375              3958051  1001255  125211
 
     Using Slab Decomposition
 


     bravais-lattice index     =            0
     lattice parameter (alat)  =      17.8532  a.u.
     unit-cell volume          =   20962.6682 (a.u.)^3
     number of atoms/cell      =          158
     number of atomic types    =            5
     number of electrons       =      1108.00
     number of Kohn-Sham states=          665
     kinetic-energy cutoff     =      50.0000  Ry
     charge density cutoff     =     500.0000  Ry
     scf convergence threshold =      1.0E-06
     mixing beta               =       0.2000
     number of iterations used =            8  local-TF  mixing
     Exchange-correlation=  SLA  PW   PBE  PBE
                           (   1   4   3   4   0   0   0)

     celldm(1)=  17.853155  celldm(2)=   0.000000  celldm(3)=   0.000000
     celldm(4)=   0.000000  celldm(5)=   0.000000  celldm(6)=   0.000000

     crystal axes: (cart. coord. in units of alat)
               a(1) = (   1.000000   0.000000   0.000000 )  
               a(2) = (   0.003237   1.081997   0.000000 )  
               a(3) = (   0.000000   0.000000   3.404673 )  

     reciprocal axes: (cart. coord. in units 2 pi/alat)
               b(1) = (  1.000000 -0.002992  0.000000 )  
               b(2) = (  0.000000  0.924217  0.000000 )  
               b(3) = (  0.000000  0.000000  0.293714 )  


     PseudoPot. # 1 for Ni read from file:
     ~/PSEUDO/Ni.pbe-n-rrkjus_psl.1.0.0.UPF
     MD5 check sum: Not computed, couldn't open file
     Pseudo is Ultrasoft + core correction, Zval = 10.0
     Generated using "atomic" code by A. Dal Corso  v.5.1.2
     Using radial grid of 1195 points,  6 beta functions with: 
                l(1) =   0
                l(2) =   0
                l(3) =   1
                l(4) =   1
                l(5) =   2
                l(6) =   2
     Q(r) pseudized with 0 coefficients 


     PseudoPot. # 2 for Mn read from file:
     ~/PSEUDO/Mn.pbe-spn-rrkjus_psl.0.3.1.UPF
     MD5 check sum: Not computed, couldn't open file
     Pseudo is Ultrasoft + core correction, Zval = 15.0
     Generated using &quot;atomic&quot; code by A. Dal Corso  v.6.2.2
     Using radial grid of 1187 points,  6 beta functions with: 
                l(1) =   0
                l(2) =   0
                l(3) =   1
                l(4) =   1
                l(5) =   2
                l(6) =   2
     Q(r) pseudized with 0 coefficients 


     PseudoPot. # 3 for P  read from file:
     ~/PSEUDO/P.pbe-n-rrkjus_psl.1.0.0.UPF
     MD5 check sum: Not computed, couldn't open file
     Pseudo is Ultrasoft + core correction, Zval =  5.0
     Generated using "atomic" code by A. Dal Corso  v.5.1
     Using radial grid of 1147 points,  6 beta functions with: 
                l(1) =   0
                l(2) =   0
                l(3) =   1
                l(4) =   1
                l(5) =   2
                l(6) =   2
     Q(r) pseudized with 0 coefficients 


     PseudoPot. # 4 for O  read from file:
     ~/PSEUDO/O.pbe-rrkjus.UPF
     MD5 check sum: Not computed, couldn't open file
     Pseudo is Ultrasoft, Zval =  6.0
     Generated by new atomic code, or converted to UPF format
     Using radial grid of 1269 points,  4 beta functions with: 
                l(1) =   0
                l(2) =   0
                l(3) =   1
                l(4) =   1
     Q(r) pseudized with 0 coefficients 


     PseudoPot. # 5 for H  read from file:
     ~/PSEUDO/H.pbe-rrkjus.UPF
     MD5 check sum: Not computed, couldn't open file
     Pseudo is Ultrasoft, Zval =  1.0
     Generated by new atomic code, or converted to UPF format
     Using radial grid of 1061 points,  2 beta functions with: 
                l(1) =   0
                l(2) =   0
     Q(r) pseudized with 0 coefficients 


     atomic species   valence    mass     pseudopotential
     Ni               10.00    58.69300     Ni( 1.00)
     Mn               15.00    54.93800     Mn( 1.00)
     P                 5.00    30.97300     P ( 1.00)
     O                 6.00    15.99900     O ( 1.00)
     H                 1.00     1.00790     H ( 1.00)

     Starting magnetic structure 
     atomic species   magnetization
     Ni              1.000
     Mn              1.000
     P               1.000
     O               1.000
     H               0.000

     No symmetry found



   Cartesian axes

     site n.     atom                  positions (alat units)
         1        Ni     tau(   1) = (   0.2543225   0.8313870   1.6793668  )
         2        Ni     tau(   2) = (   0.4936098   0.7712751   1.3753531  )
         3        Mn     tau(   3) = (   0.0006860   0.2911226   1.7027072  )
         4        Ni     tau(   4) = (   0.2606585   0.2273372   1.3798175  )
         5        Ni     tau(   5) = (   0.9994008   1.0715220   1.5369837  )
         6        Ni     tau(   6) = (   0.2545729   0.5328500   1.5373447  )
         7        Ni     tau(   7) = (   0.7507737   0.8282717   1.6811415  )
         8        Mn     tau(   8) = (   0.9883889   0.7675371   1.3725924  )
         9        Mn     tau(   9) = (   0.4980977   0.2903973   1.7090653  )
        10        Ni     tau(  10) = (   0.7545187   0.2253996   1.3777585  )
        11        Ni     tau(  11) = (   0.4976426   1.0726516   1.5389427  )
        12        Ni     tau(  12) = (   0.7528337   0.5277877   1.5449104  )
        13        P      tau(  13) = (   0.2132289   0.9703461   1.3797005  )
        14        P      tau(  14) = (   0.4643593   0.6442400   1.6938346  )
        15        P      tau(  15) = (   0.2841587   0.0960848   1.7008509  )
        16        P      tau(  16) = (   0.0411047   0.4212367   1.3873316  )
        17        O      tau(  17) = (   0.1349283   0.9013560   1.5143976  )
        18        O      tau(  18) = (   0.3861291   0.7042380   1.5488927  )
        19        O      tau(  19) = (   0.3656599   0.1691817   1.5650371  )
        20        O      tau(  20) = (   0.1200799   0.3555271   1.5222191  )
        21        O      tau(  21) = (   0.1532998   0.8826075   1.2547996  )
        22        O      tau(  22) = (   0.4047365   0.7410193   1.8076950  )
        23        O      tau(  23) = (   0.3388828   0.1871954   1.8224511  )
        24        O      tau(  24) = (   0.0996136   0.3313027   1.2636839  )
        25        O      tau(  25) = (   0.0982475   0.5756432   1.3839303  )
        26        O      tau(  26) = (   0.3445548   1.0232506   1.6933208  )
        27        O      tau(  27) = (   0.3791300   0.4168042   1.3928156  )
        28        O      tau(  28) = (   0.1208947   0.1012566   1.6847757  )
        29        O      tau(  29) = (   0.1298687   0.6510170   1.6821372  )
        30        O      tau(  30) = (   0.4048797   0.4885295   1.6889145  )
        31        O      tau(  31) = (   0.1516361   0.0428342   1.3845433  )
        32        O      tau(  32) = (   0.3759308   0.9628073   1.3915760  )
        33        P      tau(  33) = (   0.7066777   0.9681768   1.3784026  )
        34        P      tau(  34) = (   0.9665573   0.6462099   1.7021029  )
        35        P      tau(  35) = (   0.7834317   0.0914400   1.6930753  )
        36        P      tau(  36) = (   0.5424223   0.4259167   1.3855585  )
        37        O      tau(  37) = (   0.6302223   0.8970607   1.5136635  )
        38        O      tau(  38) = (   0.8856905   0.6990046   1.5578663  )
        39        O      tau(  39) = (   0.8594036   0.1560940   1.5527589  )
        40        O      tau(  40) = (   0.6188906   0.3547386   1.5195219  )
        41        O      tau(  41) = (   0.6482905   0.8785231   1.2537859  )
        42        O      tau(  42) = (   0.9062711   0.7448203   1.8139613  )
        43        O      tau(  43) = (   0.8424157   0.1845535   1.8127077  )
        44        O      tau(  44) = (   0.6030560   0.3374862   1.2610477  )
        45        O      tau(  45) = (   0.6002319   0.5801662   1.3862498  )
        46        O      tau(  46) = (   0.8431552   1.0184616   1.6925684  )
        47        O      tau(  47) = (   0.8783423   0.4135099   1.3998625  )
        48        O      tau(  48) = (   0.6197718   0.0991933   1.6835405  )
        49        O      tau(  49) = (   0.6280075   0.6476069   1.6801066  )
        50        O      tau(  50) = (   0.9149851   0.4882065   1.7072857  )
        51        O      tau(  51) = (   0.6437954   0.0399516   1.3816221  )
        52        O      tau(  52) = (   0.8694028   0.9616471   1.3910153  )
        53        Ni     tau(  53) = (   0.2420320   0.8169913   1.0699082  )
        54        Ni     tau(  54) = (   0.4893084   0.7542727   0.7477128  )
        55        Mn     tau(  55) = (   0.0085152   0.2729728   1.0755565  )
        56        Ni     tau(  56) = (   0.2558246   0.2079345   0.7498450  )
        57        Ni     tau(  57) = (   0.9991959   1.0516583   0.9080455  )
        58        Ni     tau(  58) = (   0.2490231   0.5149840   0.9092594  )
        59        Ni     tau(  59) = (   0.7373131   0.8159965   1.0690453  )
        60        Mn     tau(  60) = (   0.9859093   0.7511625   0.7423903  )
        61        Mn     tau(  61) = (   0.5085552   0.2755447   1.0757185  )
        62        Ni     tau(  62) = (   0.7532989   0.2074622   0.7493279  )
        63        Ni     tau(  63) = (   0.4981517   1.0523018   0.9093468  )
        64        Ni     tau(  64) = (   0.7469109   0.5147379   0.9081681  )
        65        P      tau(  65) = (   0.2119924   0.9497675   0.7533413  )
        66        P      tau(  66) = (   0.4579509   0.6252695   1.0650744  )
        67        P      tau(  67) = (   0.2855349   0.0724244   1.0650326  )
        68        P      tau(  68) = (   0.0381112   0.4032615   0.7561117  )
        69        O      tau(  69) = (   0.1352995   0.8818598   0.8892857  )
        70        O      tau(  70) = (   0.3789570   0.6924463   0.9291468  )
        71        O      tau(  71) = (   0.3610496   0.1419327   0.9291660  )
        72        O      tau(  72) = (   0.1179700   0.3356534   0.8894858  )
        73        O      tau(  73) = (   0.1524325   0.8608343   0.6290918  )
        74        O      tau(  74) = (   0.3994952   0.7128748   1.1905493  )
        75        O      tau(  75) = (   0.3426976   0.1634744   1.1889742  )
        76        O      tau(  76) = (   0.0989151   0.3155758   0.6321220  )
        77        O      tau(  77) = (   0.0942206   0.5581494   0.7569623  )
        78        O      tau(  78) = (   0.3506297   1.0014456   1.0645371  )
        79        O      tau(  79) = (   0.3750155   0.3983181   0.7655049  )
        80        O      tau(  80) = (   0.1228303   0.0764842   1.0543924  )
        81        O      tau(  81) = (   0.1204299   0.6293201   1.0530905  )
        82        O      tau(  82) = (   0.4000664   0.4708612   1.0626359  )
        83        O      tau(  83) = (   0.1483182   0.0216333   0.7546099  )
        84        O      tau(  84) = (   0.3748687   0.9435072   0.7627918  )
        85        P      tau(  85) = (   0.7056901   0.9492898   0.7521526  )
        86        P      tau(  86) = (   0.9575286   0.6220438   1.0623609  )
        87        P      tau(  87) = (   0.7847866   0.0710549   1.0641979  )
        88        P      tau(  88) = (   0.5377283   0.4083400   0.7551622  )
        89        O      tau(  89) = (   0.6295714   0.8788409   0.8879407  )
        90        O      tau(  90) = (   0.8781778   0.6902700   0.9288966  )
        91        O      tau(  91) = (   0.8603186   0.1398018   0.9279591  )
        92        O      tau(  92) = (   0.6174712   0.3389159   0.8881839  )
        93        O      tau(  93) = (   0.6471291   0.8583376   0.6285166  )
        94        O      tau(  94) = (   0.8962302   0.7094244   1.1861651  )
        95        O      tau(  95) = (   0.8420493   0.1616933   1.1885419  )
        96        O      tau(  96) = (   0.5995227   0.3203391   0.6315608  )
        97        O      tau(  97) = (   0.5932354   0.5636910   0.7569738  )
        98        O      tau(  98) = (   0.8487155   0.9994995   1.0634446  )
        99        O      tau(  99) = (   0.8751772   0.3959680   0.7655094  )
       100        O      tau( 100) = (   0.6223291   0.0767949   1.0539182  )
       101        O      tau( 101) = (   0.6209785   0.6292365   1.0537708  )
       102        O      tau( 102) = (   0.9010178   0.4674118   1.0608723  )
       103        O      tau( 103) = (   0.6430869   0.0213354   0.7538098  )
       104        O      tau( 104) = (   0.8684566   0.9446034   0.7630440  )
       105        Ni     tau( 105) = (   0.2392451   0.7980692   0.4424501  )
       106        Ni     tau( 106) = (   0.4865215   0.7353506   0.1202547  )
       107        Mn     tau( 107) = (   0.0057284   0.2540508   0.4480984  )
       108        Ni     tau( 108) = (   0.2530377   0.1890124   0.1223869  )
       109        Ni     tau( 109) = (   0.9964090   1.0327362   0.2805874  )
       110        Ni     tau( 110) = (   0.2462362   0.4960619   0.2818013  )
       111        Ni     tau( 111) = (   0.7345262   0.7970744   0.4415872  )
       112        Mn     tau( 112) = (   0.9831224   0.7322404   0.1149322  )
       113        Mn     tau( 113) = (   0.5057684   0.2566226   0.4482604  )
       114        Ni     tau( 114) = (   0.7505120   0.1885401   0.1218698  )
       115        Ni     tau( 115) = (   0.4953648   1.0333797   0.2818887  )
       116        Ni     tau( 116) = (   0.7441241   0.4958159   0.2807100  )
       117        P      tau( 117) = (   0.2092055   0.9308455   0.1258832  )
       118        P      tau( 118) = (   0.4551640   0.6063475   0.4376163  )
       119        P      tau( 119) = (   0.2827481   0.0535023   0.4375745  )
       120        P      tau( 120) = (   0.0353243   0.3843395   0.1286536  )
       121        O      tau( 121) = (   0.1325127   0.8629378   0.2618276  )
       122        O      tau( 122) = (   0.3761702   0.6735242   0.3016887  )
       123        O      tau( 123) = (   0.3582627   0.1230106   0.3017079  )
       124        O      tau( 124) = (   0.1151831   0.3167313   0.2620277  )
       125        O      tau( 125) = (   0.1496456   0.8419122   0.0016337  )
       126        O      tau( 126) = (   0.3967083   0.6939527   0.5630912  )
       127        O      tau( 127) = (   0.3399107   0.1445523   0.5615161  )
       128        O      tau( 128) = (   0.0961282   0.2966537   0.0046639  )
       129        O      tau( 129) = (   0.0914337   0.5392273   0.1295042  )
       130        O      tau( 130) = (   0.3478428   0.9825235   0.4370790  )
       131        O      tau( 131) = (   0.3722287   0.3793961   0.1380469  )
       132        O      tau( 132) = (   0.1200434   0.0575621   0.4269343  )
       133        O      tau( 133) = (   0.1176431   0.6103980   0.4256324  )
       134        O      tau( 134) = (   0.3972796   0.4519391   0.4351778  )
       135        O      tau( 135) = (   0.1455313   0.0027113   0.1271518  )
       136        O      tau( 136) = (   0.3720819   0.9245852   0.1353338  )
       137        P      tau( 137) = (   0.7029032   0.9303678   0.1246945  )
       138        P      tau( 138) = (   0.9547417   0.6031217   0.4349028  )
       139        P      tau( 139) = (   0.7819997   0.0521328   0.4367398  )
       140        P      tau( 140) = (   0.5349415   0.3894179   0.1277041  )
       141        O      tau( 141) = (   0.6267846   0.8599188   0.2604826  )
       142        O      tau( 142) = (   0.8753909   0.6713480   0.3014385  )
       143        O      tau( 143) = (   0.8575317   0.1208797   0.3005010  )
       144        O      tau( 144) = (   0.6146843   0.3199938   0.2607258  )
       145        O      tau( 145) = (   0.6443422   0.8394155   0.0010585  )
       146        O      tau( 146) = (   0.8934434   0.6905023   0.5587070  )
       147        O      tau( 147) = (   0.8392624   0.1427713   0.5610838  )
       148        O      tau( 148) = (   0.5967359   0.3014171   0.0041027  )
       149        O      tau( 149) = (   0.5904485   0.5447689   0.1295157  )
       150        O      tau( 150) = (   0.8459286   0.9805774   0.4359865  )
       151        O      tau( 151) = (   0.8723903   0.3770459   0.1380513  )
       152        O      tau( 152) = (   0.6195422   0.0578729   0.4264602  )
       153        O      tau( 153) = (   0.6181917   0.6103144   0.4263127  )
       154        O      tau( 154) = (   0.8982309   0.4484897   0.4334142  )
       155        O      tau( 155) = (   0.6403000   0.0024133   0.1263517  )
       156        O      tau( 156) = (   0.8656697   0.9256814   0.1355859  )
       157        O      tau( 157) = (   0.6083472   0.3612432   1.8423921  )
       158        H      tau( 158) = (   0.6946715   0.3052087   1.8587579  )

     -------------------------------------------------
     Parameters for Dispersion (Grimme-D2) Correction:
     -------------------------------------------------
       atom      VdW radius       C_6     

        Ni         2.952        374.666
        Mn         2.952        374.666
        P          3.222        271.980
        O          2.536         24.284
        H          1.892          4.857

     number of k points=     1  Gaussian smearing, width (Ry)=  0.0100
                       cart. coord. in units 2pi/alat
        k(    1) = (   0.0000000   0.0000000   0.0000000), wk =   1.0000000

     Dense  grid:  1979026 G-vectors     FFT dimensions: ( 128, 144, 450)

     Smooth grid:   500628 G-vectors     FFT dimensions: (  81,  90, 288)

     Estimated max dynamical RAM per process >     333.40 MB

     Estimated total dynamical RAM >      20.84 GB

     Check: negative core charge=   -0.000002
     Generating pointlists ...
     new r_m :   0.0873 (alat units)  1.5594 (a.u.) for type    1
     new r_m :   0.0771 (alat units)  1.3768 (a.u.) for type    2
     new r_m :   0.0663 (alat units)  1.1845 (a.u.) for type    3
     new r_m :   0.0430 (alat units)  0.7674 (a.u.) for type    4
     new r_m :   0.0430 (alat units)  0.7674 (a.u.) for type    5

     Initial potential from superposition of free atoms

     starting charge    1107.8886, renormalised to    1108.0000

     negative rho (up, down):  1.541E-03 4.665E-04
 
     Adding external electric field

     Computed dipole along edir(3) : 
        Dipole                1.6165 Ry au,          4.1087 Debye
        Dipole field          0.0010 Ry au, 
 
        Potential amp.       -0.1060 Ry
        Total length         54.7057 bohr
 
 
     Adding external electric field

     Computed dipole along edir(3) : 
        Dipole                1.6165 Ry au,          4.1087 Debye
        Dipole field          0.0010 Ry au, 
 
        Potential amp.       -0.1060 Ry
        Total length         54.7057 bohr
 
     Starting wfcs are  818 randomized atomic wfcs

     total cpu time spent up to now is       14.0 secs

     Self-consistent Calculation

     iteration #  1     ecut=    50.00 Ry     beta= 0.20
     Davidson diagonalization with overlap
     ethr =  1.00E-02,  avg # of iterations =  5.5

     negative rho (up, down):  1.001E+00 4.849E-07
 
     Adding external electric field

     Computed dipole along edir(3) : 
        Dipole               -8.6967 Ry au,        -22.1049 Debye
        Dipole field         -0.0052 Ry au, 
 
        Potential amp.        0.5704 Ry
        Total length         54.7057 bohr
 
 
     Adding external electric field

     Computed dipole along edir(3) : 
        Dipole               -8.6967 Ry au,        -22.1049 Debye
        Dipole field         -0.0052 Ry au, 
 
        Potential amp.        0.5704 Ry
        Total length         54.7057 bohr
 

     total cpu time spent up to now is       53.0 secs

     total energy              =   -7875.17940414 Ry
     estimated scf accuracy    <     714.26852826 Ry

     total magnetization       =   222.00 Bohr mag/cell
     absolute magnetization    =   319.73 Bohr mag/cell

     iteration #  2     ecut=    50.00 Ry     beta= 0.20
     Davidson diagonalization with overlap
     ethr =  1.00E-02,  avg # of iterations =  2.5

     negative rho (up, down):  9.306E-01 1.879E-07
 
     Adding external electric field

     Computed dipole along edir(3) : 
        Dipole               -4.3034 Ry au,        -10.9382 Debye
        Dipole field         -0.0026 Ry au, 
 
        Potential amp.        0.2823 Ry
        Total length         54.7057 bohr
 
 
     Adding external electric field

     Computed dipole along edir(3) : 
        Dipole               -4.3034 Ry au,        -10.9382 Debye
        Dipole field         -0.0026 Ry au, 
 
        Potential amp.        0.2823 Ry
        Total length         54.7057 bohr
 

     total cpu time spent up to now is       80.7 secs

     total energy              =   -7973.69240490 Ry
     estimated scf accuracy    <     771.49522440 Ry

     total magnetization       =   153.26 Bohr mag/cell
     absolute magnetization    =   203.54 Bohr mag/cell

     iteration #  3     ecut=    50.00 Ry     beta= 0.20
     Davidson diagonalization with overlap
     ethr =  1.00E-02,  avg # of iterations =  1.5

     negative rho (up, down):  7.696E-01 2.877E-07
 
     Adding external electric field

     Computed dipole along edir(3) : 
        Dipole               -4.2598 Ry au,        -10.8273 Debye
        Dipole field         -0.0026 Ry au, 
 
        Potential amp.        0.2794 Ry
        Total length         54.7057 bohr
 
 
     Adding external electric field

     Computed dipole along edir(3) : 
        Dipole               -4.2598 Ry au,        -10.8273 Debye
        Dipole field         -0.0026 Ry au, 
 
        Potential amp.        0.2794 Ry
        Total length         54.7057 bohr
 

     total cpu time spent up to now is      100.2 secs

     total energy              =   -8003.69712284 Ry
     estimated scf accuracy    <     102.83828016 Ry

     total magnetization       =   137.91 Bohr mag/cell
     absolute magnetization    =   186.54 Bohr mag/cell

     iteration #  4     ecut=    50.00 Ry     beta= 0.20
     Davidson diagonalization with overlap
     ethr =  9.28E-03,  avg # of iterations =  1.0

     negative rho (up, down):  4.641E-01 7.091E-09
 
     Adding external electric field

     Computed dipole along edir(3) : 
        Dipole               -2.1662 Ry au,         -5.5058 Debye
        Dipole field         -0.0013 Ry au, 
 
        Potential amp.        0.1421 Ry
        Total length         54.7057 bohr
 
 
     Adding external electric field

     Computed dipole along edir(3) : 
        Dipole               -2.1662 Ry au,         -5.5058 Debye
        Dipole field         -0.0013 Ry au, 
 
        Potential amp.        0.1421 Ry
        Total length         54.7057 bohr
 

     total cpu time spent up to now is      118.4 secs

     total energy              =   -8043.77051439 Ry
     estimated scf accuracy    <     113.64906472 Ry

     total magnetization       =   115.44 Bohr mag/cell
     absolute magnetization    =   166.46 Bohr mag/cell

     iteration #  5     ecut=    50.00 Ry     beta= 0.20
     Davidson diagonalization with overlap
     ethr =  9.28E-03,  avg # of iterations =  1.0

     negative rho (up, down):  2.137E-01 7.002E-09
 
     Adding external electric field

     Computed dipole along edir(3) : 
        Dipole               -1.7504 Ry au,         -4.4491 Debye
        Dipole field         -0.0010 Ry au, 
 
        Potential amp.        0.1148 Ry
        Total length         54.7057 bohr
 
 
     Adding external electric field

     Computed dipole along edir(3) : 
        Dipole               -1.7504 Ry au,         -4.4491 Debye
        Dipole field         -0.0010 Ry au, 
 
        Potential amp.        0.1148 Ry
        Total length         54.7057 bohr
 

     total cpu time spent up to now is      136.8 secs

     total energy              =   -8064.24744215 Ry
     estimated scf accuracy    <      75.98014099 Ry

     total magnetization       =   103.43 Bohr mag/cell
     absolute magnetization    =   145.26 Bohr mag/cell

     iteration #  6     ecut=    50.00 Ry     beta= 0.20
     Davidson diagonalization with overlap
     ethr =  6.86E-03,  avg # of iterations =  1.0

     negative rho (up, down):  6.053E-03 7.001E-03
 
     Adding external electric field

     Computed dipole along edir(3) : 
        Dipole               -0.4431 Ry au,         -1.1262 Debye
        Dipole field         -0.0003 Ry au, 
 
        Potential amp.        0.0291 Ry
        Total length         54.7057 bohr
 
 
     Adding external electric field

     Computed dipole along edir(3) : 
        Dipole               -0.4431 Ry au,         -1.1262 Debye
        Dipole field         -0.0003 Ry au, 
 
        Potential amp.        0.0291 Ry
        Total length         54.7057 bohr
 

     total cpu time spent up to now is      154.7 secs

     total energy              =   -8076.30476630 Ry
     estimated scf accuracy    <      24.95019320 Ry

     total magnetization       =   100.00 Bohr mag/cell
     absolute magnetization    =   129.92 Bohr mag/cell

     iteration #  7     ecut=    50.00 Ry     beta= 0.20
     Davidson diagonalization with overlap
     ethr =  2.25E-03,  avg # of iterations =  2.5

     negative rho (up, down):  5.116E-03 5.524E-03
 
     Adding external electric field

     Computed dipole along edir(3) : 
        Dipole               -0.5717 Ry au,         -1.4532 Debye
        Dipole field         -0.0003 Ry au, 
 
        Potential amp.        0.0375 Ry
        Total length         54.7057 bohr
 
 
     Adding external electric field

     Computed dipole along edir(3) : 
        Dipole               -0.5717 Ry au,         -1.4532 Debye
        Dipole field         -0.0003 Ry au, 
 
        Potential amp.        0.0375 Ry
        Total length         54.7057 bohr
 

     total cpu time spent up to now is      176.6 secs

     total energy              =   -8078.38720366 Ry
     estimated scf accuracy    <      35.07349886 Ry

     total magnetization       =    67.49 Bohr mag/cell
     absolute magnetization    =    85.23 Bohr mag/cell

     iteration #  8     ecut=    50.00 Ry     beta= 0.20
     Davidson diagonalization with overlap
     ethr =  2.25E-03,  avg # of iterations =  1.5

     negative rho (up, down):  2.687E-03 4.649E-03
 
     Adding external electric field

     Computed dipole along edir(3) : 
        Dipole               -0.9465 Ry au,         -2.4057 Debye
        Dipole field         -0.0006 Ry au, 
 
        Potential amp.        0.0621 Ry
        Total length         54.7057 bohr
 
 
     Adding external electric field

     Computed dipole along edir(3) : 
        Dipole               -0.9465 Ry au,         -2.4057 Debye
        Dipole field         -0.0006 Ry au, 
 
        Potential amp.        0.0621 Ry
        Total length         54.7057 bohr
 

     total cpu time spent up to now is      196.1 secs

     total energy              =   -8077.98975271 Ry
     estimated scf accuracy    <      26.89000665 Ry

     total magnetization       =    71.35 Bohr mag/cell
     absolute magnetization    =    87.64 Bohr mag/cell

     iteration #  9     ecut=    50.00 Ry     beta= 0.20
     Davidson diagonalization with overlap
     ethr =  2.25E-03,  avg # of iterations =  1.5

     negative rho (up, down):  1.312E-03 1.729E-03
 
     Adding external electric field

     Computed dipole along edir(3) : 
        Dipole               -1.1849 Ry au,         -3.0117 Debye
        Dipole field         -0.0007 Ry au, 
 
        Potential amp.        0.0777 Ry
        Total length         54.7057 bohr
 
 
     Adding external electric field

     Computed dipole along edir(3) : 
        Dipole               -1.1849 Ry au,         -3.0117 Debye
        Dipole field         -0.0007 Ry au, 
 
        Potential amp.        0.0777 Ry
        Total length         54.7057 bohr
 

     total cpu time spent up to now is      215.7 secs

     total energy              =   -8078.06453440 Ry
     estimated scf accuracy    <       6.59309918 Ry

     total magnetization       =    86.41 Bohr mag/cell
     absolute magnetization    =    98.68 Bohr mag/cell

     iteration # 10     ecut=    50.00 Ry     beta= 0.20
     Davidson diagonalization with overlap
     ethr =  5.95E-04,  avg # of iterations =  5.5

     negative rho (up, down):  5.069E-04 1.582E-03
 
     Adding external electric field

     Computed dipole along edir(3) : 
        Dipole               -1.1043 Ry au,         -2.8070 Debye
        Dipole field         -0.0007 Ry au, 
 
        Potential amp.        0.0724 Ry
        Total length         54.7057 bohr
 
 
     Adding external electric field

     Computed dipole along edir(3) : 
        Dipole               -1.1043 Ry au,         -2.8070 Debye
        Dipole field         -0.0007 Ry au, 
 
        Potential amp.        0.0724 Ry
        Total length         54.7057 bohr
 

     total cpu time spent up to now is      244.0 secs

     total energy              =   -8078.37598928 Ry
     estimated scf accuracy    <       1.36855041 Ry

     total magnetization       =    96.55 Bohr mag/cell
     absolute magnetization    =   105.39 Bohr mag/cell

     iteration # 11     ecut=    50.00 Ry     beta= 0.20
     Davidson diagonalization with overlap
     c_bands:  1 eigenvalues not converged
     ethr =  1.24E-04,  avg # of iterations = 11.0

     negative rho (up, down):  1.484E-04 6.924E-04
 
     Adding external electric field

     Computed dipole along edir(3) : 
        Dipole               -1.0269 Ry au,         -2.6101 Debye
        Dipole field         -0.0006 Ry au, 
 
        Potential amp.        0.0674 Ry
        Total length         54.7057 bohr
 
 
     Adding external electric field

     Computed dipole along edir(3) : 
        Dipole               -1.0269 Ry au,         -2.6101 Debye
        Dipole field         -0.0006 Ry au, 
 
        Potential amp.        0.0674 Ry
        Total length         54.7057 bohr
 

     total cpu time spent up to now is      276.1 secs

     total energy              =   -8078.45089485 Ry
     estimated scf accuracy    <       0.68328585 Ry

     total magnetization       =    96.96 Bohr mag/cell
     absolute magnetization    =   104.04 Bohr mag/cell

     iteration # 12     ecut=    50.00 Ry     beta= 0.20
     Davidson diagonalization with overlap
     ethr =  6.17E-05,  avg # of iterations =  2.0

     negative rho (up, down):  9.614E-06 4.688E-05
 
     Adding external electric field

     Computed dipole along edir(3) : 
        Dipole               -0.9928 Ry au,         -2.5235 Debye
        Dipole field         -0.0006 Ry au, 
 
        Potential amp.        0.0651 Ry
        Total length         54.7057 bohr
 
 
     Adding external electric field

     Computed dipole along edir(3) : 
        Dipole               -0.9928 Ry au,         -2.5235 Debye
        Dipole field         -0.0006 Ry au, 
 
        Potential amp.        0.0651 Ry
        Total length         54.7057 bohr
 

     total cpu time spent up to now is      296.1 secs

     total energy              =   -8078.52543374 Ry
     estimated scf accuracy    <       0.42662606 Ry

     total magnetization       =    96.40 Bohr mag/cell
     absolute magnetization    =   102.11 Bohr mag/cell

     iteration # 13     ecut=    50.00 Ry     beta= 0.20
     Davidson diagonalization with overlap
     ethr =  3.85E-05,  avg # of iterations =  2.0

     negative rho (up, down):  4.653E-07 1.413E-05
 
     Adding external electric field

     Computed dipole along edir(3) : 
        Dipole               -0.9419 Ry au,         -2.3940 Debye
        Dipole field         -0.0006 Ry au, 
 
        Potential amp.        0.0618 Ry
        Total length         54.7057 bohr
 
 
     Adding external electric field

     Computed dipole along edir(3) : 
        Dipole               -0.9419 Ry au,         -2.3940 Debye
        Dipole field         -0.0006 Ry au, 
 
        Potential amp.        0.0618 Ry
        Total length         54.7057 bohr
 

     total cpu time spent up to now is      315.5 secs

     total energy              =   -8078.55663308 Ry
     estimated scf accuracy    <       0.35282717 Ry

     total magnetization       =    96.36 Bohr mag/cell
     absolute magnetization    =   100.39 Bohr mag/cell

     iteration # 14     ecut=    50.00 Ry     beta= 0.20
     Davidson diagonalization with overlap
     ethr =  3.18E-05,  avg # of iterations =  1.5

     negative rho (up, down):  6.957E-08 1.052E-06
 
     Adding external electric field

     Computed dipole along edir(3) : 
        Dipole               -0.9320 Ry au,         -2.3689 Debye
        Dipole field         -0.0006 Ry au, 
 
        Potential amp.        0.0611 Ry
        Total length         54.7057 bohr
 
 
     Adding external electric field

     Computed dipole along edir(3) : 
        Dipole               -0.9320 Ry au,         -2.3689 Debye
        Dipole field         -0.0006 Ry au, 
 
        Potential amp.        0.0611 Ry
        Total length         54.7057 bohr
 

     total cpu time spent up to now is      333.9 secs

     total energy              =   -8078.58980415 Ry
     estimated scf accuracy    <       0.32037072 Ry

     total magnetization       =    95.38 Bohr mag/cell
     absolute magnetization    =    98.19 Bohr mag/cell

     iteration # 15     ecut=    50.00 Ry     beta= 0.20
     Davidson diagonalization with overlap
     ethr =  2.89E-05,  avg # of iterations =  1.5

     negative rho (up, down):  3.388E-08 7.341E-07
 
     Adding external electric field

     Computed dipole along edir(3) : 
        Dipole               -0.8992 Ry au,         -2.2855 Debye
        Dipole field         -0.0005 Ry au, 
 
        Potential amp.        0.0590 Ry
        Total length         54.7057 bohr
 
 
     Adding external electric field

     Computed dipole along edir(3) : 
        Dipole               -0.8992 Ry au,         -2.2855 Debye
        Dipole field         -0.0005 Ry au, 
 
        Potential amp.        0.0590 Ry
        Total length         54.7057 bohr
 

     total cpu time spent up to now is      352.2 secs

     total energy              =   -8078.59784022 Ry
     estimated scf accuracy    <       0.16420094 Ry

     total magnetization       =    95.84 Bohr mag/cell
     absolute magnetization    =    97.86 Bohr mag/cell

     iteration # 16     ecut=    50.00 Ry     beta= 0.20
     Davidson diagonalization with overlap
     ethr =  1.48E-05,  avg # of iterations =  2.0

     negative rho (up, down):  2.647E-08 2.336E-07
 
     Adding external electric field

     Computed dipole along edir(3) : 
        Dipole               -0.8500 Ry au,         -2.1606 Debye
        Dipole field         -0.0005 Ry au, 
 
        Potential amp.        0.0558 Ry
        Total length         54.7057 bohr
 
 
     Adding external electric field

     Computed dipole along edir(3) : 
        Dipole               -0.8500 Ry au,         -2.1606 Debye
        Dipole field         -0.0005 Ry au, 
 
        Potential amp.        0.0558 Ry
        Total length         54.7057 bohr
 

     total cpu time spent up to now is      372.0 secs

     total energy              =   -8078.60184769 Ry
     estimated scf accuracy    <       0.17840604 Ry

     total magnetization       =    95.52 Bohr mag/cell
     absolute magnetization    =    97.31 Bohr mag/cell

     iteration # 17     ecut=    50.00 Ry     beta= 0.20
     Davidson diagonalization with overlap
     ethr =  1.48E-05,  avg # of iterations =  2.0

     negative rho (up, down):  7.435E-08 7.235E-08
 
     Adding external electric field

     Computed dipole along edir(3) : 
        Dipole               -0.7795 Ry au,         -1.9812 Debye
        Dipole field         -0.0005 Ry au, 
 
        Potential amp.        0.0511 Ry
        Total length         54.7057 bohr
 
 
     Adding external electric field

     Computed dipole along edir(3) : 
        Dipole               -0.7795 Ry au,         -1.9812 Debye
        Dipole field         -0.0005 Ry au, 
 
        Potential amp.        0.0511 Ry
        Total length         54.7057 bohr
 

     total cpu time spent up to now is      390.6 secs

     total energy              =   -8078.60354743 Ry
     estimated scf accuracy    <       0.11733391 Ry

     total magnetization       =    95.46 Bohr mag/cell
     absolute magnetization    =    96.94 Bohr mag/cell

     iteration # 18     ecut=    50.00 Ry     beta= 0.20
     Davidson diagonalization with overlap
     ethr =  1.06E-05,  avg # of iterations = 18.5

     negative rho (up, down):  7.500E-08 2.549E-08
 
     Adding external electric field

     Computed dipole along edir(3) : 
        Dipole               -0.6778 Ry au,         -1.7227 Debye
        Dipole field         -0.0004 Ry au, 
 
        Potential amp.        0.0445 Ry
        Total length         54.7057 bohr
 
 
     Adding external electric field

     Computed dipole along edir(3) : 
        Dipole               -0.6778 Ry au,         -1.7227 Debye
        Dipole field         -0.0004 Ry au, 
 
        Potential amp.        0.0445 Ry
        Total length         54.7057 bohr
 

     total cpu time spent up to now is      430.0 secs

     total energy              =   -8078.60363600 Ry
     estimated scf accuracy    <       0.07579475 Ry

     total magnetization       =    95.93 Bohr mag/cell
     absolute magnetization    =    97.42 Bohr mag/cell

     iteration # 19     ecut=    50.00 Ry     beta= 0.20
     Davidson diagonalization with overlap
     c_bands:  1 eigenvalues not converged
     c_bands:  1 eigenvalues not converged
     ethr =  6.84E-06,  avg # of iterations = 20.0

     negative rho (up, down):  6.112E-08 2.318E-08
 
     Adding external electric field

     Computed dipole along edir(3) : 
        Dipole               -0.6874 Ry au,         -1.7471 Debye
        Dipole field         -0.0004 Ry au, 
 
        Potential amp.        0.0451 Ry
        Total length         54.7057 bohr
 
 
     Adding external electric field

     Computed dipole along edir(3) : 
        Dipole               -0.6874 Ry au,         -1.7471 Debye
        Dipole field         -0.0004 Ry au, 
 
        Potential amp.        0.0451 Ry
        Total length         54.7057 bohr
 

     total cpu time spent up to now is      470.6 secs

     total energy              =   -8078.60496317 Ry
     estimated scf accuracy    <       0.10716076 Ry

     total magnetization       =    95.81 Bohr mag/cell
     absolute magnetization    =    97.14 Bohr mag/cell

     iteration # 20     ecut=    50.00 Ry     beta= 0.20
     Davidson diagonalization with overlap
     ethr =  6.84E-06,  avg # of iterations =  2.0
 
     Adding external electric field

     Computed dipole along edir(3) : 
        Dipole               -0.7878 Ry au,         -2.0025 Debye
        Dipole field         -0.0005 Ry au, 
 
        Potential amp.        0.0517 Ry
        Total length         54.7057 bohr
 
 
     Adding external electric field

     Computed dipole along edir(3) : 
        Dipole               -0.7878 Ry au,         -2.0025 Debye
        Dipole field         -0.0005 Ry au, 
 
        Potential amp.        0.0517 Ry
        Total length         54.7057 bohr
 

     total cpu time spent up to now is      490.6 secs

     total energy              =   -8078.60578538 Ry
     estimated scf accuracy    <       0.10213130 Ry

     total magnetization       =    95.78 Bohr mag/cell
     absolute magnetization    =    97.09 Bohr mag/cell

     iteration # 21     ecut=    50.00 Ry     beta= 0.20
     Davidson diagonalization with overlap
     ethr =  6.84E-06,  avg # of iterations =  1.5
 
     Adding external electric field

     Computed dipole along edir(3) : 
        Dipole               -0.9347 Ry au,         -2.3757 Debye
        Dipole field         -0.0006 Ry au, 
 
        Potential amp.        0.0613 Ry
        Total length         54.7057 bohr
 
 
     Adding external electric field

     Computed dipole along edir(3) : 
        Dipole               -0.9347 Ry au,         -2.3757 Debye
        Dipole field         -0.0006 Ry au, 
 
        Potential amp.        0.0613 Ry
        Total length         54.7057 bohr
 

     total cpu time spent up to now is      509.1 secs

     total energy              =   -8078.60632767 Ry
     estimated scf accuracy    <       0.11278188 Ry

     total magnetization       =    95.65 Bohr mag/cell
     absolute magnetization    =    96.94 Bohr mag/cell

     iteration # 22     ecut=    50.00 Ry     beta= 0.20
     Davidson diagonalization with overlap
     ethr =  6.84E-06,  avg # of iterations =  2.0
 
     Adding external electric field

     Computed dipole along edir(3) : 
        Dipole               -0.9747 Ry au,         -2.4773 Debye
        Dipole field         -0.0006 Ry au, 
 
        Potential amp.        0.0639 Ry
        Total length         54.7057 bohr
 
 
     Adding external electric field

     Computed dipole along edir(3) : 
        Dipole               -0.9747 Ry au,         -2.4773 Debye
        Dipole field         -0.0006 Ry au, 
 
        Potential amp.        0.0639 Ry
        Total length         54.7057 bohr
 

     total cpu time spent up to now is      528.9 secs

     total energy              =   -8078.60705391 Ry
     estimated scf accuracy    <       0.08150611 Ry

     total magnetization       =    95.73 Bohr mag/cell
     absolute magnetization    =    96.98 Bohr mag/cell

     iteration # 23     ecut=    50.00 Ry     beta= 0.20
     Davidson diagonalization with overlap
     ethr =  6.84E-06,  avg # of iterations =  1.5
 
     Adding external electric field

     Computed dipole along edir(3) : 
        Dipole               -1.0107 Ry au,         -2.5689 Debye
        Dipole field         -0.0006 Ry au, 
 
        Potential amp.        0.0663 Ry
        Total length         54.7057 bohr
 
 
     Adding external electric field

     Computed dipole along edir(3) : 
        Dipole               -1.0107 Ry au,         -2.5689 Debye
        Dipole field         -0.0006 Ry au, 
 
        Potential amp.        0.0663 Ry
        Total length         54.7057 bohr
 

     total cpu time spent up to now is      547.1 secs

     total energy              =   -8078.60772785 Ry
     estimated scf accuracy    <       0.07492547 Ry

     total magnetization       =    95.78 Bohr mag/cell
     absolute magnetization    =    97.04 Bohr mag/cell

     iteration # 24     ecut=    50.00 Ry     beta= 0.20
     Davidson diagonalization with overlap
     ethr =  6.76E-06,  avg # of iterations =  2.0
 
     Adding external electric field

     Computed dipole along edir(3) : 
        Dipole               -1.0292 Ry au,         -2.6159 Debye
        Dipole field         -0.0006 Ry au, 
 
        Potential amp.        0.0675 Ry
        Total length         54.7057 bohr
 
 
     Adding external electric field

     Computed dipole along edir(3) : 
        Dipole               -1.0292 Ry au,         -2.6159 Debye
        Dipole field         -0.0006 Ry au, 
 
        Potential amp.        0.0675 Ry
        Total length         54.7057 bohr
 

     total cpu time spent up to now is      567.1 secs

     total energy              =   -8078.60716050 Ry
     estimated scf accuracy    <       0.07495727 Ry

     total magnetization       =    95.79 Bohr mag/cell
     absolute magnetization    =    97.10 Bohr mag/cell

     iteration # 25     ecut=    50.00 Ry     beta= 0.20
     Davidson diagonalization with overlap
     ethr =  6.76E-06,  avg # of iterations =  1.5
 
     Adding external electric field

     Computed dipole along edir(3) : 
        Dipole               -1.0607 Ry au,         -2.6959 Debye
        Dipole field         -0.0006 Ry au, 
 
        Potential amp.        0.0696 Ry
        Total length         54.7057 bohr
 
 
     Adding external electric field

     Computed dipole along edir(3) : 
        Dipole               -1.0607 Ry au,         -2.6959 Debye
        Dipole field         -0.0006 Ry au, 
 
        Potential amp.        0.0696 Ry
        Total length         54.7057 bohr
 

     total cpu time spent up to now is      585.7 secs

     total energy              =   -8078.60752343 Ry
     estimated scf accuracy    <       0.07809307 Ry

     total magnetization       =    95.83 Bohr mag/cell
     absolute magnetization    =    97.19 Bohr mag/cell

     iteration # 26     ecut=    50.00 Ry     beta= 0.20
     Davidson diagonalization with overlap
     ethr =  6.76E-06,  avg # of iterations =  2.0

     negative rho (up, down):  1.206E-08 4.523E-10
 
     Adding external electric field

     Computed dipole along edir(3) : 
        Dipole               -0.9371 Ry au,         -2.3818 Debye
        Dipole field         -0.0006 Ry au, 
 
        Potential amp.        0.0615 Ry
        Total length         54.7057 bohr
 
 
     Adding external electric field

     Computed dipole along edir(3) : 
        Dipole               -0.9371 Ry au,         -2.3818 Debye
        Dipole field         -0.0006 Ry au, 
 
        Potential amp.        0.0615 Ry
        Total length         54.7057 bohr
 

     total cpu time spent up to now is      605.8 secs

     total energy              =   -8078.60599635 Ry
     estimated scf accuracy    <       0.05981185 Ry

     total magnetization       =    95.84 Bohr mag/cell
     absolute magnetization    =    97.18 Bohr mag/cell

     iteration # 27     ecut=    50.00 Ry     beta= 0.20
     Davidson diagonalization with overlap
     ethr =  5.40E-06,  avg # of iterations =  1.5

     negative rho (up, down):  6.586E-08 5.822E-09
 
     Adding external electric field

     Computed dipole along edir(3) : 
        Dipole               -0.8964 Ry au,         -2.2785 Debye
        Dipole field         -0.0005 Ry au, 
 
        Potential amp.        0.0588 Ry
        Total length         54.7057 bohr
 
 
     Adding external electric field

     Computed dipole along edir(3) : 
        Dipole               -0.8964 Ry au,         -2.2785 Debye
        Dipole field         -0.0005 Ry au, 
 
        Potential amp.        0.0588 Ry
        Total length         54.7057 bohr
 

     total cpu time spent up to now is      623.5 secs

     total energy              =   -8078.60504013 Ry
     estimated scf accuracy    <       0.06310423 Ry

     total magnetization       =    95.84 Bohr mag/cell
     absolute magnetization    =    97.17 Bohr mag/cell

     iteration # 28     ecut=    50.00 Ry     beta= 0.20
     Davidson diagonalization with overlap
     ethr =  5.40E-06,  avg # of iterations =  1.5

     negative rho (up, down):  8.452E-07 1.418E-07
 
     Adding external electric field

     Computed dipole along edir(3) : 
        Dipole               -0.8044 Ry au,         -2.0445 Debye
        Dipole field         -0.0005 Ry au, 
 
        Potential amp.        0.0528 Ry
        Total length         54.7057 bohr
 
 
     Adding external electric field

     Computed dipole along edir(3) : 
        Dipole               -0.8044 Ry au,         -2.0445 Debye
        Dipole field         -0.0005 Ry au, 
 
        Potential amp.        0.0528 Ry
        Total length         54.7057 bohr
 

     total cpu time spent up to now is      641.8 secs

     total energy              =   -8078.60220645 Ry
     estimated scf accuracy    <       0.05746504 Ry

     total magnetization       =    95.87 Bohr mag/cell
     absolute magnetization    =    97.18 Bohr mag/cell

     iteration # 29     ecut=    50.00 Ry     beta= 0.20
     Davidson diagonalization with overlap
     ethr =  5.19E-06,  avg # of iterations =  1.5

     negative rho (up, down):  1.314E-06 3.660E-07
 
     Adding external electric field

     Computed dipole along edir(3) : 
        Dipole               -0.8668 Ry au,         -2.2031 Debye
        Dipole field         -0.0005 Ry au, 
 
        Potential amp.        0.0568 Ry
        Total length         54.7057 bohr
 
 
     Adding external electric field

     Computed dipole along edir(3) : 
        Dipole               -0.8668 Ry au,         -2.2031 Debye
        Dipole field         -0.0005 Ry au, 
 
        Potential amp.        0.0568 Ry
        Total length         54.7057 bohr
 

     total cpu time spent up to now is      660.0 secs

     total energy              =   -8078.60231193 Ry
     estimated scf accuracy    <       0.05326062 Ry

     total magnetization       =    95.89 Bohr mag/cell
     absolute magnetization    =    97.18 Bohr mag/cell

     iteration # 30     ecut=    50.00 Ry     beta= 0.20
     Davidson diagonalization with overlap
     ethr =  4.81E-06,  avg # of iterations =  1.5

     negative rho (up, down):  4.035E-07 1.746E-07
 
     Adding external electric field

     Computed dipole along edir(3) : 
        Dipole               -0.9658 Ry au,         -2.4549 Debye
        Dipole field         -0.0006 Ry au, 
 
        Potential amp.        0.0633 Ry
        Total length         54.7057 bohr
 
 
     Adding external electric field

     Computed dipole along edir(3) : 
        Dipole               -0.9658 Ry au,         -2.4549 Debye
        Dipole field         -0.0006 Ry au, 
 
        Potential amp.        0.0633 Ry
        Total length         54.7057 bohr
 

     total cpu time spent up to now is      678.2 secs

     total energy              =   -8078.60416558 Ry
     estimated scf accuracy    <       0.03806011 Ry

     total magnetization       =    95.91 Bohr mag/cell
     absolute magnetization    =    97.17 Bohr mag/cell

     iteration # 31     ecut=    50.00 Ry     beta= 0.20
     Davidson diagonalization with overlap
     ethr =  3.44E-06,  avg # of iterations =  2.0

     negative rho (up, down):  4.869E-07 2.200E-07
 
     Adding external electric field

     Computed dipole along edir(3) : 
        Dipole               -0.9622 Ry au,         -2.4457 Debye
        Dipole field         -0.0006 Ry au, 
 
        Potential amp.        0.0631 Ry
        Total length         54.7057 bohr
 
 
     Adding external electric field

     Computed dipole along edir(3) : 
        Dipole               -0.9622 Ry au,         -2.4457 Debye
        Dipole field         -0.0006 Ry au, 
 
        Potential amp.        0.0631 Ry
        Total length         54.7057 bohr
 

     total cpu time spent up to now is      698.9 secs

     total energy              =   -8078.60445121 Ry
     estimated scf accuracy    <       0.04047817 Ry

     total magnetization       =    95.86 Bohr mag/cell
     absolute magnetization    =    97.09 Bohr mag/cell

     iteration # 32     ecut=    50.00 Ry     beta= 0.20
     Davidson diagonalization with overlap
     ethr =  3.44E-06,  avg # of iterations =  1.0

     negative rho (up, down):  1.046E-06 5.942E-07
 
     Adding external electric field

     Computed dipole along edir(3) : 
        Dipole               -0.9524 Ry au,         -2.4209 Debye
        Dipole field         -0.0006 Ry au, 
 
        Potential amp.        0.0625 Ry
        Total length         54.7057 bohr
 
 
     Adding external electric field

     Computed dipole along edir(3) : 
        Dipole               -0.9524 Ry au,         -2.4209 Debye
        Dipole field         -0.0006 Ry au, 
 
        Potential amp.        0.0625 Ry
        Total length         54.7057 bohr
 

     total cpu time spent up to now is      716.4 secs

     total energy              =   -8078.60434607 Ry
     estimated scf accuracy    <       0.03993803 Ry

     total magnetization       =    95.87 Bohr mag/cell
     absolute magnetization    =    97.10 Bohr mag/cell

     iteration # 33     ecut=    50.00 Ry     beta= 0.20
     Davidson diagonalization with overlap
     ethr =  3.44E-06,  avg # of iterations =  1.5

     negative rho (up, down):  3.936E-06 2.670E-06
 
     Adding external electric field

     Computed dipole along edir(3) : 
        Dipole               -0.8810 Ry au,         -2.2392 Debye
        Dipole field         -0.0005 Ry au, 
 
        Potential amp.        0.0578 Ry
        Total length         54.7057 bohr
 
 
     Adding external electric field

     Computed dipole along edir(3) : 
        Dipole               -0.8810 Ry au,         -2.2392 Debye
        Dipole field         -0.0005 Ry au, 
 
        Potential amp.        0.0578 Ry
        Total length         54.7057 bohr
 

     total cpu time spent up to now is      734.3 secs

     total energy              =   -8078.60363145 Ry
     estimated scf accuracy    <       0.03654615 Ry

     total magnetization       =    95.89 Bohr mag/cell
     absolute magnetization    =    97.16 Bohr mag/cell

     iteration # 34     ecut=    50.00 Ry     beta= 0.20
     Davidson diagonalization with overlap
     ethr =  3.30E-06,  avg # of iterations =  1.5

     negative rho (up, down):  1.923E-05 1.285E-05
 
     Adding external electric field

     Computed dipole along edir(3) : 
        Dipole               -0.6777 Ry au,         -1.7226 Debye
        Dipole field         -0.0004 Ry au, 
 
        Potential amp.        0.0445 Ry
        Total length         54.7057 bohr
 
 
     Adding external electric field

     Computed dipole along edir(3) : 
        Dipole               -0.6777 Ry au,         -1.7226 Debye
        Dipole field         -0.0004 Ry au, 
 
        Potential amp.        0.0445 Ry
        Total length         54.7057 bohr
 

     total cpu time spent up to now is      753.3 secs

     total energy              =   -8078.60235753 Ry
     estimated scf accuracy    <       0.03228751 Ry

     total magnetization       =    95.90 Bohr mag/cell
     absolute magnetization    =    97.23 Bohr mag/cell

     iteration # 35     ecut=    50.00 Ry     beta= 0.20
     Davidson diagonalization with overlap
     ethr =  2.91E-06,  avg # of iterations =  2.5

     negative rho (up, down):  1.017E-03 9.735E-04
 
     Adding external electric field

     Computed dipole along edir(3) : 
        Dipole               -0.2961 Ry au,         -0.7527 Debye
        Dipole field         -0.0002 Ry au, 
 
        Potential amp.        0.0194 Ry
        Total length         54.7057 bohr
 
 
     Adding external electric field

     Computed dipole along edir(3) : 
        Dipole               -0.2961 Ry au,         -0.7527 Debye
        Dipole field         -0.0002 Ry au, 
 
        Potential amp.        0.0194 Ry
        Total length         54.7057 bohr
 

     total cpu time spent up to now is      773.2 secs

     total energy              =   -8078.59919916 Ry
     estimated scf accuracy    <       0.02614576 Ry

     total magnetization       =    95.88 Bohr mag/cell
     absolute magnetization    =    97.24 Bohr mag/cell

     iteration # 36     ecut=    50.00 Ry     beta= 0.20
     Davidson diagonalization with overlap
     c_bands:  2 eigenvalues not converged
     c_bands:  3 eigenvalues not converged
     ethr =  2.36E-06,  avg # of iterations = 20.0

     negative rho (up, down):  2.473E-03 2.379E-03
 
     Adding external electric field

     Computed dipole along edir(3) : 
        Dipole                0.0467 Ry au,          0.1187 Debye
        Dipole field          0.0000 Ry au, 
 
        Potential amp.       -0.0031 Ry
        Total length         54.7057 bohr
 
 
     Adding external electric field

     Computed dipole along edir(3) : 
        Dipole                0.0467 Ry au,          0.1187 Debye
        Dipole field          0.0000 Ry au, 
 
        Potential amp.       -0.0031 Ry
        Total length         54.7057 bohr
 

     total cpu time spent up to now is      816.2 secs

     total energy              =   -8078.59788870 Ry
     estimated scf accuracy    <       0.01168436 Ry

     total magnetization       =    95.81 Bohr mag/cell
     absolute magnetization    =    97.13 Bohr mag/cell

     iteration # 37     ecut=    50.00 Ry     beta= 0.20
     Davidson diagonalization with overlap
     ethr =  1.05E-06,  avg # of iterations =  3.5

     negative rho (up, down):  4.275E-03 3.998E-03
 
     Adding external electric field

     Computed dipole along edir(3) : 
        Dipole                0.1963 Ry au,          0.4989 Debye
        Dipole field          0.0001 Ry au, 
 
        Potential amp.       -0.0129 Ry
        Total length         54.7057 bohr
 
 
     Adding external electric field

     Computed dipole along edir(3) : 
        Dipole                0.1963 Ry au,          0.4989 Debye
        Dipole field          0.0001 Ry au, 
 
        Potential amp.       -0.0129 Ry
        Total length         54.7057 bohr
 

     total cpu time spent up to now is      838.1 secs

     total energy              =   -8078.59789853 Ry
     estimated scf accuracy    <       0.00400647 Ry

     total magnetization       =    95.80 Bohr mag/cell
     absolute magnetization    =    97.14 Bohr mag/cell

     iteration # 38     ecut=    50.00 Ry     beta= 0.20
     Davidson diagonalization with overlap
     ethr =  3.62E-07,  avg # of iterations =  6.0

     negative rho (up, down):  3.705E-03 3.534E-03
 
     Adding external electric field

     Computed dipole along edir(3) : 
        Dipole                0.2407 Ry au,          0.6118 Debye
        Dipole field          0.0001 Ry au, 
 
        Potential amp.       -0.0158 Ry
        Total length         54.7057 bohr
 
 
     Adding external electric field

     Computed dipole along edir(3) : 
        Dipole                0.2407 Ry au,          0.6118 Debye
        Dipole field          0.0001 Ry au, 
 
        Potential amp.       -0.0158 Ry
        Total length         54.7057 bohr
 

     total cpu time spent up to now is      861.1 secs

     total energy              =   -8078.59801945 Ry
     estimated scf accuracy    <       0.00253409 Ry

     total magnetization       =    95.82 Bohr mag/cell
     absolute magnetization    =    97.20 Bohr mag/cell

     iteration # 39     ecut=    50.00 Ry     beta= 0.20
     Davidson diagonalization with overlap
     ethr =  2.29E-07,  avg # of iterations =  2.0

     negative rho (up, down):  2.402E-03 2.432E-03
 
     Adding external electric field

     Computed dipole along edir(3) : 
        Dipole                0.2173 Ry au,          0.5523 Debye
        Dipole field          0.0001 Ry au, 
 
        Potential amp.       -0.0143 Ry
        Total length         54.7057 bohr
 
 
     Adding external electric field

     Computed dipole along edir(3) : 
        Dipole                0.2173 Ry au,          0.5523 Debye
        Dipole field          0.0001 Ry au, 
 
        Potential amp.       -0.0143 Ry
        Total length         54.7057 bohr
 

     total cpu time spent up to now is      880.9 secs

     total energy              =   -8078.59805737 Ry
     estimated scf accuracy    <       0.00238727 Ry

     total magnetization       =    95.82 Bohr mag/cell
     absolute magnetization    =    97.22 Bohr mag/cell

     iteration # 40     ecut=    50.00 Ry     beta= 0.20
     Davidson diagonalization with overlap
     ethr =  2.15E-07,  avg # of iterations =  2.0

     negative rho (up, down):  1.526E-03 1.631E-03
 
     Adding external electric field

     Computed dipole along edir(3) : 
        Dipole                0.2328 Ry au,          0.5918 Debye
        Dipole field          0.0001 Ry au, 
 
        Potential amp.       -0.0153 Ry
        Total length         54.7057 bohr
 
 
     Adding external electric field

     Computed dipole along edir(3) : 
        Dipole                0.2328 Ry au,          0.5918 Debye
        Dipole field          0.0001 Ry au, 
 
        Potential amp.       -0.0153 Ry
        Total length         54.7057 bohr
 

     total cpu time spent up to now is      900.5 secs

     total energy              =   -8078.59813395 Ry
     estimated scf accuracy    <       0.00171367 Ry

     total magnetization       =    95.81 Bohr mag/cell
     absolute magnetization    =    97.20 Bohr mag/cell

     iteration # 41     ecut=    50.00 Ry     beta= 0.20
     Davidson diagonalization with overlap
     ethr =  1.55E-07,  avg # of iterations =  2.0

     negative rho (up, down):  1.145E-03 1.025E-03
 
     Adding external electric field

     Computed dipole along edir(3) : 
        Dipole                0.2461 Ry au,          0.6256 Debye
        Dipole field          0.0001 Ry au, 
 
        Potential amp.       -0.0161 Ry
        Total length         54.7057 bohr
 
 
     Adding external electric field

     Computed dipole along edir(3) : 
        Dipole                0.2461 Ry au,          0.6256 Debye
        Dipole field          0.0001 Ry au, 
 
        Potential amp.       -0.0161 Ry
        Total length         54.7057 bohr
 

     total cpu time spent up to now is      920.1 secs

     total energy              =   -8078.59829979 Ry
     estimated scf accuracy    <       0.00139877 Ry

     total magnetization       =    95.81 Bohr mag/cell
     absolute magnetization    =    97.20 Bohr mag/cell

     iteration # 42     ecut=    50.00 Ry     beta= 0.20
     Davidson diagonalization with overlap
     ethr =  1.26E-07,  avg # of iterations =  2.0

     negative rho (up, down):  9.449E-05 4.757E-05
 
     Adding external electric field

     Computed dipole along edir(3) : 
        Dipole                0.1761 Ry au,          0.4475 Debye
        Dipole field          0.0001 Ry au, 
 
        Potential amp.       -0.0115 Ry
        Total length         54.7057 bohr
 
 
     Adding external electric field

     Computed dipole along edir(3) : 
        Dipole                0.1761 Ry au,          0.4475 Debye
        Dipole field          0.0001 Ry au, 
 
        Potential amp.       -0.0115 Ry
        Total length         54.7057 bohr
 

     total cpu time spent up to now is      939.4 secs

     total energy              =   -8078.59834671 Ry
     estimated scf accuracy    <       0.00174644 Ry

     total magnetization       =    95.81 Bohr mag/cell
     absolute magnetization    =    97.19 Bohr mag/cell

     iteration # 43     ecut=    50.00 Ry     beta= 0.20
     Davidson diagonalization with overlap
     ethr =  1.26E-07,  avg # of iterations =  2.0

     negative rho (up, down):  3.641E-05 7.632E-06
 
     Adding external electric field

     Computed dipole along edir(3) : 
        Dipole                0.1349 Ry au,          0.3428 Debye
        Dipole field          0.0001 Ry au, 
 
        Potential amp.       -0.0088 Ry
        Total length         54.7057 bohr
 
 
     Adding external electric field

     Computed dipole along edir(3) : 
        Dipole                0.1349 Ry au,          0.3428 Debye
        Dipole field          0.0001 Ry au, 
 
        Potential amp.       -0.0088 Ry
        Total length         54.7057 bohr
 

     total cpu time spent up to now is      959.8 secs

     total energy              =   -8078.59835474 Ry
     estimated scf accuracy    <       0.00123336 Ry

     total magnetization       =    95.81 Bohr mag/cell
     absolute magnetization    =    97.16 Bohr mag/cell

     iteration # 44     ecut=    50.00 Ry     beta= 0.20
     Davidson diagonalization with overlap
     ethr =  1.11E-07,  avg # of iterations =  3.5

     negative rho (up, down):  3.438E-05 9.912E-06
 
     Adding external electric field

     Computed dipole along edir(3) : 
        Dipole                0.1217 Ry au,          0.3093 Debye
        Dipole field          0.0001 Ry au, 
 
        Potential amp.       -0.0080 Ry
        Total length         54.7057 bohr
 
 
     Adding external electric field

     Computed dipole along edir(3) : 
        Dipole                0.1217 Ry au,          0.3093 Debye
        Dipole field          0.0001 Ry au, 
 
        Potential amp.       -0.0080 Ry
        Total length         54.7057 bohr
 

     total cpu time spent up to now is      981.8 secs

     total energy              =   -8078.59835357 Ry
     estimated scf accuracy    <       0.00099223 Ry

     total magnetization       =    95.81 Bohr mag/cell
     absolute magnetization    =    97.15 Bohr mag/cell

     iteration # 45     ecut=    50.00 Ry     beta= 0.20
     Davidson diagonalization with overlap
     ethr =  8.96E-08,  avg # of iterations =  2.0

     negative rho (up, down):  5.590E-04 6.134E-04
 
     Adding external electric field

     Computed dipole along edir(3) : 
        Dipole                0.1742 Ry au,          0.4428 Debye
        Dipole field          0.0001 Ry au, 
 
        Potential amp.       -0.0114 Ry
        Total length         54.7057 bohr
 
 
     Adding external electric field

     Computed dipole along edir(3) : 
        Dipole                0.1742 Ry au,          0.4428 Debye
        Dipole field          0.0001 Ry au, 
 
        Potential amp.       -0.0114 Ry
        Total length         54.7057 bohr
 

     total cpu time spent up to now is     1000.3 secs

     total energy              =   -8078.59841656 Ry
     estimated scf accuracy    <       0.00074914 Ry

     total magnetization       =    95.80 Bohr mag/cell
     absolute magnetization    =    97.13 Bohr mag/cell

     iteration # 46     ecut=    50.00 Ry     beta= 0.20
     Davidson diagonalization with overlap
     ethr =  6.76E-08,  avg # of iterations =  2.0

     negative rho (up, down):  5.626E-04 6.133E-04
 
     Adding external electric field

     Computed dipole along edir(3) : 
        Dipole                0.1739 Ry au,          0.4420 Debye
        Dipole field          0.0001 Ry au, 
 
        Potential amp.       -0.0114 Ry
        Total length         54.7057 bohr
 
 
     Adding external electric field

     Computed dipole along edir(3) : 
        Dipole                0.1739 Ry au,          0.4420 Debye
        Dipole field          0.0001 Ry au, 
 
        Potential amp.       -0.0114 Ry
        Total length         54.7057 bohr
 

     total cpu time spent up to now is     1020.8 secs

     total energy              =   -8078.59842894 Ry
     estimated scf accuracy    <       0.00110375 Ry

     total magnetization       =    95.80 Bohr mag/cell
     absolute magnetization    =    97.13 Bohr mag/cell

     iteration # 47     ecut=    50.00 Ry     beta= 0.20
     Davidson diagonalization with overlap
     ethr =  6.76E-08,  avg # of iterations =  1.0

     negative rho (up, down):  6.477E-04 7.081E-04
 
     Adding external electric field

     Computed dipole along edir(3) : 
        Dipole                0.1824 Ry au,          0.4636 Debye
        Dipole field          0.0001 Ry au, 
 
        Potential amp.       -0.0120 Ry
        Total length         54.7057 bohr
 
 
     Adding external electric field

     Computed dipole along edir(3) : 
        Dipole                0.1824 Ry au,          0.4636 Debye
        Dipole field          0.0001 Ry au, 
 
        Potential amp.       -0.0120 Ry
        Total length         54.7057 bohr
 

     total cpu time spent up to now is     1037.8 secs

     total energy              =   -8078.59843961 Ry
     estimated scf accuracy    <       0.00116510 Ry

     total magnetization       =    95.80 Bohr mag/cell
     absolute magnetization    =    97.13 Bohr mag/cell

     iteration # 48     ecut=    50.00 Ry     beta= 0.20
     Davidson diagonalization with overlap
     ethr =  6.76E-08,  avg # of iterations =  1.5

     negative rho (up, down):  6.706E-04 7.889E-04
 
     Adding external electric field

     Computed dipole along edir(3) : 
        Dipole                0.1841 Ry au,          0.4680 Debye
        Dipole field          0.0001 Ry au, 
 
        Potential amp.       -0.0121 Ry
        Total length         54.7057 bohr
 
 
     Adding external electric field

     Computed dipole along edir(3) : 
        Dipole                0.1841 Ry au,          0.4680 Debye
        Dipole field          0.0001 Ry au, 
 
        Potential amp.       -0.0121 Ry
        Total length         54.7057 bohr
 

     total cpu time spent up to now is     1055.7 secs

     total energy              =   -8078.59842521 Ry
     estimated scf accuracy    <       0.00116657 Ry

     total magnetization       =    95.80 Bohr mag/cell
     absolute magnetization    =    97.13 Bohr mag/cell

     iteration # 49     ecut=    50.00 Ry     beta= 0.20
     Davidson diagonalization with overlap
     ethr =  6.76E-08,  avg # of iterations =  1.0

     negative rho (up, down):  4.880E-04 5.433E-04
 
     Adding external electric field

     Computed dipole along edir(3) : 
        Dipole                0.1741 Ry au,          0.4426 Debye
        Dipole field          0.0001 Ry au, 
 
        Potential amp.       -0.0114 Ry
        Total length         54.7057 bohr
 
 
     Adding external electric field

     Computed dipole along edir(3) : 
        Dipole                0.1741 Ry au,          0.4426 Debye
        Dipole field          0.0001 Ry au, 
 
        Potential amp.       -0.0114 Ry
        Total length         54.7057 bohr
 

     total cpu time spent up to now is     1072.7 secs

     total energy              =   -8078.59841637 Ry
     estimated scf accuracy    <       0.00100539 Ry

     total magnetization       =    95.80 Bohr mag/cell
     absolute magnetization    =    97.13 Bohr mag/cell

     iteration # 50     ecut=    50.00 Ry     beta= 0.20
     Davidson diagonalization with overlap
     ethr =  6.76E-08,  avg # of iterations =  1.0

     negative rho (up, down):  1.392E-04 1.160E-04
 
     Adding external electric field

     Computed dipole along edir(3) : 
        Dipole                0.1541 Ry au,          0.3917 Debye
        Dipole field          0.0001 Ry au, 
 
        Potential amp.       -0.0101 Ry
        Total length         54.7057 bohr
 
 
     Adding external electric field

     Computed dipole along edir(3) : 
        Dipole                0.1541 Ry au,          0.3917 Debye
        Dipole field          0.0001 Ry au, 
 
        Potential amp.       -0.0101 Ry
        Total length         54.7057 bohr
 

     total cpu time spent up to now is     1089.7 secs

     total energy              =   -8078.59838388 Ry
     estimated scf accuracy    <       0.00090060 Ry

     total magnetization       =    95.81 Bohr mag/cell
     absolute magnetization    =    97.13 Bohr mag/cell

     iteration # 51     ecut=    50.00 Ry     beta= 0.20
     Davidson diagonalization with overlap
     ethr =  6.76E-08,  avg # of iterations =  1.0

     negative rho (up, down):  1.946E-04 1.875E-04
 
     Adding external electric field

     Computed dipole along edir(3) : 
        Dipole                0.1560 Ry au,          0.3964 Debye
        Dipole field          0.0001 Ry au, 
 
        Potential amp.       -0.0102 Ry
        Total length         54.7057 bohr
 
 
     Adding external electric field

     Computed dipole along edir(3) : 
        Dipole                0.1560 Ry au,          0.3964 Debye
        Dipole field          0.0001 Ry au, 
 
        Potential amp.       -0.0102 Ry
        Total length         54.7057 bohr
 

     total cpu time spent up to now is     1107.6 secs

     total energy              =   -8078.59838477 Ry
     estimated scf accuracy    <       0.00062990 Ry

     total magnetization       =    95.80 Bohr mag/cell
     absolute magnetization    =    97.13 Bohr mag/cell

     iteration # 52     ecut=    50.00 Ry     beta= 0.20
     Davidson diagonalization with overlap
     ethr =  5.69E-08,  avg # of iterations =  1.0

     negative rho (up, down):  2.779E-04 2.946E-04
 
     Adding external electric field

     Computed dipole along edir(3) : 
        Dipole                0.1746 Ry au,          0.4438 Debye
        Dipole field          0.0001 Ry au, 
 
        Potential amp.       -0.0115 Ry
        Total length         54.7057 bohr
 
 
     Adding external electric field

     Computed dipole along edir(3) : 
        Dipole                0.1746 Ry au,          0.4438 Debye
        Dipole field          0.0001 Ry au, 
 
        Potential amp.       -0.0115 Ry
        Total length         54.7057 bohr
 

     total cpu time spent up to now is     1125.2 secs

     total energy              =   -8078.59840452 Ry
     estimated scf accuracy    <       0.00052050 Ry

     total magnetization       =    95.80 Bohr mag/cell
     absolute magnetization    =    97.14 Bohr mag/cell

     iteration # 53     ecut=    50.00 Ry     beta= 0.20
     Davidson diagonalization with overlap
     ethr =  4.70E-08,  avg # of iterations =  1.5

     negative rho (up, down):  6.724E-04 7.410E-04
 
     Adding external electric field

     Computed dipole along edir(3) : 
        Dipole                0.2050 Ry au,          0.5211 Debye
        Dipole field          0.0001 Ry au, 
 
        Potential amp.       -0.0134 Ry
        Total length         54.7057 bohr
 
 
     Adding external electric field

     Computed dipole along edir(3) : 
        Dipole                0.2050 Ry au,          0.5211 Debye
        Dipole field          0.0001 Ry au, 
 
        Potential amp.       -0.0134 Ry
        Total length         54.7057 bohr
 

     total cpu time spent up to now is     1143.7 secs

     total energy              =   -8078.59845181 Ry
     estimated scf accuracy    <       0.00045070 Ry

     total magnetization       =    95.81 Bohr mag/cell
     absolute magnetization    =    97.15 Bohr mag/cell

     iteration # 54     ecut=    50.00 Ry     beta= 0.20
     Davidson diagonalization with overlap
     ethr =  4.07E-08,  avg # of iterations =  2.0

     negative rho (up, down):  5.213E-04 4.746E-04
 
     Adding external electric field

     Computed dipole along edir(3) : 
        Dipole                0.1885 Ry au,          0.4792 Debye
        Dipole field          0.0001 Ry au, 
 
        Potential amp.       -0.0124 Ry
        Total length         54.7057 bohr
 
 
     Adding external electric field

     Computed dipole along edir(3) : 
        Dipole                0.1885 Ry au,          0.4792 Debye
        Dipole field          0.0001 Ry au, 
 
        Potential amp.       -0.0124 Ry
        Total length         54.7057 bohr
 

     total cpu time spent up to now is     1163.3 secs

     total energy              =   -8078.59847266 Ry
     estimated scf accuracy    <       0.00038454 Ry

     total magnetization       =    95.82 Bohr mag/cell
     absolute magnetization    =    97.18 Bohr mag/cell

     iteration # 55     ecut=    50.00 Ry     beta= 0.20
     Davidson diagonalization with overlap
     ethr =  3.47E-08,  avg # of iterations =  2.0

     negative rho (up, down):  3.872E-04 2.561E-04
 
     Adding external electric field

     Computed dipole along edir(3) : 
        Dipole                0.1652 Ry au,          0.4198 Debye
        Dipole field          0.0001 Ry au, 
 
        Potential amp.       -0.0108 Ry
        Total length         54.7057 bohr
 
 
     Adding external electric field

     Computed dipole along edir(3) : 
        Dipole                0.1652 Ry au,          0.4198 Debye
        Dipole field          0.0001 Ry au, 
 
        Potential amp.       -0.0108 Ry
        Total length         54.7057 bohr
 

     total cpu time spent up to now is     1182.5 secs

     total energy              =   -8078.59848201 Ry
     estimated scf accuracy    <       0.00027763 Ry

     total magnetization       =    95.82 Bohr mag/cell
     absolute magnetization    =    97.17 Bohr mag/cell

     iteration # 56     ecut=    50.00 Ry     beta= 0.20
     Davidson diagonalization with overlap
     ethr =  2.51E-08,  avg # of iterations =  1.5

     negative rho (up, down):  6.746E-04 5.083E-04
 
     Adding external electric field

     Computed dipole along edir(3) : 
        Dipole                0.1636 Ry au,          0.4159 Debye
        Dipole field          0.0001 Ry au, 
 
        Potential amp.       -0.0107 Ry
        Total length         54.7057 bohr
 
 
     Adding external electric field

     Computed dipole along edir(3) : 
        Dipole                0.1636 Ry au,          0.4159 Debye
        Dipole field          0.0001 Ry au, 
 
        Potential amp.       -0.0107 Ry
        Total length         54.7057 bohr
 

     total cpu time spent up to now is     1201.6 secs

     total energy              =   -8078.59848954 Ry
     estimated scf accuracy    <       0.00015049 Ry

     total magnetization       =    95.81 Bohr mag/cell
     absolute magnetization    =    97.16 Bohr mag/cell

     iteration # 57     ecut=    50.00 Ry     beta= 0.20
     Davidson diagonalization with overlap
     ethr =  1.36E-08,  avg # of iterations =  1.0

     negative rho (up, down):  9.010E-04 6.990E-04
 
     Adding external electric field

     Computed dipole along edir(3) : 
        Dipole                0.1692 Ry au,          0.4300 Debye
        Dipole field          0.0001 Ry au, 
 
        Potential amp.       -0.0111 Ry
        Total length         54.7057 bohr
 
 
     Adding external electric field

     Computed dipole along edir(3) : 
        Dipole                0.1692 Ry au,          0.4300 Debye
        Dipole field          0.0001 Ry au, 
 
        Potential amp.       -0.0111 Ry
        Total length         54.7057 bohr
 

     total cpu time spent up to now is     1218.9 secs

     total energy              =   -8078.59850353 Ry
     estimated scf accuracy    <       0.00005342 Ry

     total magnetization       =    95.81 Bohr mag/cell
     absolute magnetization    =    97.16 Bohr mag/cell

     iteration # 58     ecut=    50.00 Ry     beta= 0.20
     Davidson diagonalization with overlap
     ethr =  4.82E-09,  avg # of iterations =  1.5

     negative rho (up, down):  1.238E-03 8.459E-04
 
     Adding external electric field

     Computed dipole along edir(3) : 
        Dipole                0.1812 Ry au,          0.4606 Debye
        Dipole field          0.0001 Ry au, 
 
        Potential amp.       -0.0119 Ry
        Total length         54.7057 bohr
 
 
     Adding external electric field

     Computed dipole along edir(3) : 
[...]
    -6.0192  -6.0118  -5.9974  -5.9575  -5.9293  -5.9207  -5.9009  -5.8832
    -5.8785  -5.8519  -5.8239  -5.7997  -5.7892  -5.7673  -5.7538  -5.7376
    -5.7103  -5.7037  -5.6668  -5.6458  -5.6285  -5.6136  -5.6008  -5.5721
    -5.5611  -5.5482  -5.5315  -5.5062  -5.5021  -5.4900  -5.4617  -5.4224
    -5.4099  -5.3878  -5.3367  -5.3186  -5.2719  -5.2357  -5.2127  -5.2059
    -5.2011  -5.1949  -5.1379  -5.1047  -5.0305  -4.9943  -4.9825  -4.9528
    -4.9466  -4.9310  -4.8904  -4.8337  -4.8271  -4.7647  -4.7509  -4.7413
    -4.7188  -4.6851  -4.6318  -4.6141  -4.5960  -4.5362  -4.4899  -4.4459
    -4.4257  -4.4038  -4.3894  -4.3625  -4.3261  -4.2964  -4.2679  -4.2194
    -4.1656  -4.1509  -4.1328  -4.1007  -4.0905  -4.0625  -4.0333  -3.9943
    -3.9293  -3.9041  -3.8920  -3.8536  -3.8328  -3.8041  -3.7838  -3.7756
    -3.7462  -3.7359  -3.7140  -3.6475  -3.6361  -3.6245  -3.6208  -3.6086
    -3.5999  -3.5778  -3.5441  -3.5369  -3.5331  -3.5166  -3.5088  -3.4744
    -3.4638  -3.4473  -3.4355  -3.4200  -3.3630  -3.3592  -3.3492  -3.3358
    -3.3271  -3.3182  -3.3003  -3.2805  -3.2534  -3.2339  -3.2227  -3.2174
    -3.1580  -3.1503  -3.1040  -3.0779  -3.0552  -3.0488  -3.0338  -3.0312
    -3.0168  -3.0003  -2.9620  -2.9372  -2.9205  -2.8975  -2.8788  -2.8541
    -2.8366  -2.8347  -2.7543  -2.7463  -2.7313  -2.7210  -2.7144  -2.7039
    -2.6892  -2.6744  -2.6660  -2.6546  -2.6343  -2.6274  -2.6259  -2.6112
    -2.5980  -2.5824  -2.5667  -2.5539  -2.5303  -2.5278  -2.5186  -2.5107
    -2.4644  -2.4601  -2.4395  -2.4198  -2.3856  -2.3703  -2.3568  -2.3465
    -2.3199  -2.3165  -2.3034  -2.2893  -2.2708  -2.2444  -2.2408  -2.2189
    -2.2047  -2.1584  -2.1438  -2.1371  -2.1257  -2.1036  -2.0840  -2.0768
    -2.0696  -2.0239  -2.0105  -1.9895  -1.9674  -1.9607  -1.9405  -1.9150
    -1.9052  -1.8943  -1.8831  -1.8700  -1.8605  -1.8314  -1.8219  -1.8001
    -1.7730  -1.7609  -1.7477  -1.7338  -1.7234  -1.6863  -1.6556  -1.6340
    -1.6243  -1.6121  -1.5973  -1.5514  -1.5458  -1.5282  -1.5007  -1.4818
    -1.4719  -1.4471  -1.4327  -1.4133  -1.4015  -1.3882  -1.3721  -1.3466
    -1.3314  -1.3206  -1.3134  -1.2658  -1.2539  -1.2135  -1.1799  -1.1682
    -1.1531  -1.1480  -1.1098  -1.0362  -0.9736  -0.8574  -0.8519  -0.8009
    -0.7989  -0.7021  -0.6802  -0.5571  -0.5179  -0.3693  -0.3074  -0.2063
     0.1494   0.1615   0.2056   0.2206   0.2324   0.2451   0.2647   0.2697
     0.3021   0.3097   0.3311   0.3374   0.3604   0.3667   0.3750   0.3785
     0.3812   0.3831   0.3895   0.4077   0.4098   0.4148   0.4267   0.4346
     0.4405   0.4449   0.4560   0.4632   0.4702   0.4811   0.4851   0.4999
     0.5028   0.5182   0.5188   0.5442   0.5467   0.5515   0.5540   0.5555
     0.5749   0.5815   0.5997   0.6052   0.6140   0.6270   0.6318   0.6342
     0.6514   0.6628   0.6656   0.6774   0.6835   0.6981   0.6997   0.7090
     0.7252   0.7392   0.7479   0.7610   0.7627   0.7705   0.7779   0.7921
     0.7958   0.8011   0.8126   0.8329   0.8429   0.8464   0.8555   0.8788
     0.9124   0.9638   0.9738   0.9755   1.0050   1.0331   1.0720   1.1381
     1.1882   1.7384   1.7470   1.7571   1.7616   1.7833   1.7887   1.8083
     1.8305   1.8513   1.8709   1.9062   1.9138   1.9320   1.9368   1.9851
     2.0220   2.0397   2.0532   2.0586   2.0746   2.0844   2.1176   2.1362
     2.1410   2.1535   2.1727   2.2034   2.2369   2.2402   2.2615   2.2737
     2.2960   2.3055   2.3079   2.3164   2.3243   2.3460   2.3553   2.3795
     2.3870   2.4066   2.4302   2.4701   2.4893   2.5045   2.5265   2.5751
     2.6129   2.6162   2.7270   2.7501   2.8069   2.8238   2.8635   3.3141
     3.5043   3.6044   3.6703   3.6894   3.7132   3.7596   3.8595   3.8918
     3.9140   3.9196   3.9366   3.9580   3.9679   3.9791   4.0300   4.0504
     4.0606   4.0843   4.1198   4.1358   4.1427   4.1863   4.1967   4.2176
     4.2230   4.2314   4.2543   4.2955   4.3810   4.4478   4.5697   4.7496
     4.7568   4.7896   4.8545   4.8640   4.9375   4.9616   5.0349   5.0403
     5.0821   5.0942   5.1286   5.1557   5.1915   5.2100   5.3389   6.1707
     6.3095   6.4090   6.4993   6.6360   6.6618   6.6769   6.7995   6.8209
     6.9261   6.9469   6.9669   7.0107   7.1953   7.2365   7.3208   7.3343
     7.3630   7.4587   7.4776   7.5188   7.5311   7.6198   7.6286   7.7222
     7.7847   7.7998   7.8769   7.9035   7.9183   7.9576   7.9809   8.0012
     8.0417   8.0595   8.0999   8.1305   8.1506   8.2117   8.2215   8.2467
     8.2763   8.2971   8.3321   8.3489   8.3757   8.3989   8.4101   8.4185
     8.4240   8.4698   8.5155   8.5243   8.5340   8.5696   8.5817   8.6054
     8.6091

     the Fermi energy is     1.6635 ev

!    total energy              =   -8078.59852443 Ry
     estimated scf accuracy    <       0.00000071 Ry
     smearing contrib. (-TS)   =      -0.02304452 Ry
     internal energy E=F+TS    =   -8078.57547991 Ry

     The total energy is F=E-TS. E is the sum of the following terms:
     one-electron contribution =  -94668.49427527 Ry
     hartree contribution      =   47917.39968976 Ry
     xc contribution           =   -2177.34430017 Ry
     ewald contribution        =   40851.63233473 Ry
     Dispersion Correction     =      -1.76895251 Ry
     electric field correction =       0.00002355 Ry

     total magnetization       =    95.81 Bohr mag/cell
     absolute magnetization    =    97.16 Bohr mag/cell

     convergence has been achieved in  65 iterations

     negative rho (up, down):  1.160E-03 6.322E-04

     Forces acting on atoms (cartesian axes, Ry/au):

     atom    1 type  1   force =    -0.00015418    0.00006652    0.00014615
     atom    2 type  1   force =    -0.00032303   -0.00025831    0.00021998
     atom    3 type  2   force =    -0.00073134   -0.00031593    0.00055620
     atom    4 type  1   force =     0.00008654    0.00040810    0.00030173
     atom    5 type  1   force =    -0.00050416   -0.00011581    0.00041074
     atom    6 type  1   force =    -0.00030613   -0.00015052    0.00006734
     atom    7 type  1   force =     0.00056319    0.00083547    0.00027663
     atom    8 type  2   force =    -0.00037254   -0.00033127    0.00026744
     atom    9 type  2   force =    -0.00068519   -0.00069553   -0.00035245
     atom   10 type  1   force =    -0.00049685    0.00022158    0.00015834
     atom   11 type  1   force =     0.00018903    0.00017021   -0.00005940
     atom   12 type  1   force =    -0.00013888   -0.00008511   -0.00000101
     atom   13 type  3   force =     0.00014285    0.00013889    0.00016493
     atom   14 type  3   force =    -0.00035533    0.00021656   -0.00019756
     atom   15 type  3   force =    -0.00019671   -0.00062315   -0.00100415
     atom   16 type  3   force =    -0.00007288   -0.00013185   -0.00000659
     atom   17 type  4   force =    -0.00008172   -0.00018196    0.00005937
     atom   18 type  4   force =     0.00017835    0.00043491   -0.00040965
     atom   19 type  4   force =     0.00016772    0.00020532   -0.00029471
     atom   20 type  4   force =     0.00016010    0.00000093   -0.00008570
     atom   21 type  4   force =     0.00000056   -0.00031134    0.00000580
     atom   22 type  4   force =     0.00005203    0.00044904    0.00014569
     atom   23 type  4   force =    -0.00029113   -0.00013660    0.00009163
     atom   24 type  4   force =    -0.00012276   -0.00019673    0.00005197
     atom   25 type  4   force =    -0.00056696   -0.00026877    0.00013019
     atom   26 type  4   force =     0.00016407    0.00030590   -0.00081280
     atom   27 type  4   force =     0.00001491   -0.00021091    0.00062862
     atom   28 type  4   force =     0.00055248    0.00006891   -0.00011682
     atom   29 type  4   force =     0.00001902   -0.00032817    0.00009765
     atom   30 type  4   force =     0.00038838    0.00004224    0.00019749
     atom   31 type  4   force =    -0.00027752    0.00020076    0.00000660
     atom   32 type  4   force =    -0.00061966   -0.00011936   -0.00032264
     atom   33 type  3   force =    -0.00049632    0.00019307    0.00019581
     atom   34 type  3   force =    -0.00027706    0.00016169    0.00027986
     atom   35 type  3   force =     0.00113990   -0.00017546    0.00045966
     atom   36 type  3   force =    -0.00019743   -0.00012801   -0.00011948
     atom   37 type  4   force =    -0.00023827   -0.00022018   -0.00006972
     atom   38 type  4   force =    -0.00037412   -0.00024078    0.00029461
     atom   39 type  4   force =    -0.00012885    0.00006072    0.00012306
     atom   40 type  4   force =    -0.00046257    0.00014526    0.00005870
     atom   41 type  4   force =     0.00015618    0.00017496   -0.00010080
     atom   42 type  4   force =    -0.00017945   -0.00012687   -0.00079289
     atom   43 type  4   force =    -0.00051443   -0.00041860   -0.00080508
     atom   44 type  4   force =    -0.00008637   -0.00053248   -0.00015385
     atom   45 type  4   force =    -0.00037982   -0.00048264   -0.00005537
     atom   46 type  4   force =    -0.00047498   -0.00057444   -0.00017322
     atom   47 type  4   force =    -0.00026442    0.00005092   -0.00019733
     atom   48 type  4   force =     0.00049348   -0.00011855   -0.00014900
     atom   49 type  4   force =    -0.00090083   -0.00050003    0.00024462
     atom   50 type  4   force =     0.00019027   -0.00008031   -0.00026786
     atom   51 type  4   force =    -0.00022861   -0.00004930   -0.00016273
     atom   52 type  4   force =    -0.00020086   -0.00030769    0.00003892
     atom   53 type  1   force =     0.00086276    0.00115999    0.00073930
     atom   54 type  1   force =     0.00089223    0.00070261   -0.00164222
     atom   55 type  2   force =     0.00153774    0.00100956    0.00558001
     atom   56 type  1   force =    -0.00051146   -0.00105651   -0.00094380
     atom   57 type  1   force =     0.00023497    0.00006317    0.00013345
     atom   58 type  1   force =     0.00012696   -0.00002224    0.00023024
     atom   59 type  1   force =     0.00177267   -0.00018041   -0.00070112
     atom   60 type  2   force =    -0.00007066    0.00010537   -0.00176015
     atom   61 type  2   force =     0.00086368    0.00123023    0.00504007
     atom   62 type  1   force =    -0.00051385   -0.00069604   -0.00107128
     atom   63 type  1   force =    -0.00017691    0.00033755    0.00006405
     atom   64 type  1   force =     0.00011023   -0.00004678    0.00034842
     atom   65 type  3   force =    -0.00021211   -0.00074430   -0.00254541
     atom   66 type  3   force =     0.00020850   -0.00159026    0.00181736
     atom   67 type  3   force =     0.00079395    0.00179821    0.00179718
     atom   68 type  3   force =    -0.00068427    0.00058628   -0.00102841
     atom   69 type  4   force =    -0.00075909    0.00028475    0.00090806
     atom   70 type  4   force =    -0.00038181    0.00017371   -0.00023587
     atom   71 type  4   force =    -0.00014299   -0.00005818   -0.00088483
     atom   72 type  4   force =     0.00020823   -0.00044317    0.00156593
     atom   73 type  4   force =    -0.00084798    0.00064450    0.00180521
     atom   74 type  4   force =     0.00044373   -0.00078368   -0.00015259
     atom   75 type  4   force =    -0.00056666    0.00043277    0.00082398
     atom   76 type  4   force =     0.00006369   -0.00070160    0.00125746
     atom   77 type  4   force =    -0.00039916    0.00011093    0.00067161
     atom   78 type  4   force =     0.00014446   -0.00020385   -0.00068776
     atom   79 type  4   force =     0.00024347    0.00033049    0.00057181
     atom   80 type  4   force =    -0.00005456    0.00076749   -0.00021597
     atom   81 type  4   force =     0.00007486   -0.00043482   -0.00061139
     atom   82 type  4   force =     0.00074484   -0.00037966   -0.00002919
     atom   83 type  4   force =    -0.00009861    0.00066021    0.00041367
     atom   84 type  4   force =    -0.00048734    0.00019264    0.00060962
     atom   85 type  3   force =    -0.00022156   -0.00092390   -0.00260593
     atom   86 type  3   force =     0.00026152    0.00083253    0.00289796
     atom   87 type  3   force =    -0.00004833    0.00068679    0.00103472
     atom   88 type  3   force =    -0.00079390    0.00082925   -0.00060472
     atom   89 type  4   force =    -0.00014243   -0.00017509    0.00047283
     atom   90 type  4   force =    -0.00026961   -0.00046667   -0.00112486
     atom   91 type  4   force =     0.00037973    0.00016521   -0.00104201
     atom   92 type  4   force =     0.00040847   -0.00043218    0.00110371
     atom   93 type  4   force =    -0.00016000    0.00104967    0.00097522
     atom   94 type  4   force =     0.00099526    0.00119545    0.00167134
     atom   95 type  4   force =    -0.00099683   -0.00051349    0.00084762
     atom   96 type  4   force =    -0.00000933   -0.00044062    0.00100455
     atom   97 type  4   force =    -0.00007062   -0.00044111    0.00071111
     atom   98 type  4   force =    -0.00028238    0.00001934   -0.00039538
     atom   99 type  4   force =     0.00052528   -0.00009036    0.00069294
     atom  100 type  4   force =     0.00052788    0.00030143   -0.00048234
     atom  101 type  4   force =    -0.00060682   -0.00023346   -0.00020760
     atom  102 type  4   force =     0.00146798   -0.00134963    0.00040792
     atom  103 type  4   force =     0.00032800    0.00038237    0.00027486
     atom  104 type  4   force =     0.00003076   -0.00057505   -0.00013715
     atom  105 type  1   force =    -0.00074896    0.00195246   -0.00660292
     atom  106 type  1   force =     0.02825067    0.01366570    0.02192993
     atom  107 type  2   force =     0.00170375    0.00037532   -0.01034922
     atom  108 type  1   force =    -0.03107037    0.02303793    0.01669475
     atom  109 type  1   force =     0.00408871   -0.00292703   -0.00343750
     atom  110 type  1   force =    -0.00128916   -0.00645259   -0.00544518
     atom  111 type  1   force =    -0.00377421    0.00229826   -0.00581683
     atom  112 type  2   force =     0.03229140    0.01649148   -0.01044507
     atom  113 type  2   force =     0.00149222    0.00112132   -0.00997339
     atom  114 type  1   force =    -0.03191965    0.02431535    0.01762798
     atom  115 type  1   force =     0.00358335   -0.00481153   -0.00439622
     atom  116 type  1   force =    -0.00490595   -0.00807460   -0.00659465
     atom  117 type  3   force =    -0.02899853   -0.03570836   -0.06281833
     atom  118 type  3   force =     0.00317080    0.00035505   -0.00703213
     atom  119 type  3   force =     0.00073502   -0.00063873   -0.00915355
     atom  120 type  3   force =     0.02798428   -0.05775237   -0.08377218
     atom  121 type  4   force =    -0.00658982   -0.00329530    0.03056634
     atom  122 type  4   force =    -0.00149249   -0.00106222    0.00245290
     atom  123 type  4   force =     0.00167443   -0.00089478    0.00470715
     atom  124 type  4   force =     0.00362298    0.00307031    0.03408534
     atom  125 type  4   force =    -0.00229322   -0.00233640    0.03384628
     atom  126 type  4   force =    -0.00091836    0.00075557    0.00310024
     atom  127 type  4   force =     0.00224335    0.00317928    0.00440187
     atom  128 type  4   force =    -0.00310316   -0.00180408    0.02205075
     atom  129 type  4   force =    -0.01240933    0.03653304    0.00488279
     atom  130 type  4   force =    -0.00140418    0.00019226    0.00238213
     atom  131 type  4   force =    -0.01961540    0.00356943    0.00988160
     atom  132 type  4   force =    -0.00125016    0.00352725    0.00433304
     atom  133 type  4   force =    -0.00275045    0.00063554    0.00241749
     atom  134 type  4   force =     0.00141994   -0.00448267    0.00354252
     atom  135 type  4   force =     0.01370222    0.02376025   -0.00098645
     atom  136 type  4   force =     0.01338355   -0.00062419    0.00233423
     atom  137 type  3   force =    -0.03818913   -0.04126828   -0.06623130
     atom  138 type  3   force =     0.00646913   -0.00302275   -0.00146491
     atom  139 type  3   force =     0.00027359   -0.00159020   -0.00949126
     atom  140 type  3   force =     0.02906655   -0.05119585   -0.08333707
     atom  141 type  4   force =    -0.00109487    0.00266413    0.02943599
     atom  142 type  4   force =     0.00039491    0.00244134   -0.00641258
     atom  143 type  4   force =     0.00171169   -0.00075833    0.00413073
     atom  144 type  4   force =     0.00428633    0.00175111    0.03468307
     atom  145 type  4   force =     0.00894710    0.00376889    0.03100863
     atom  146 type  4   force =    -0.00036270    0.00061447    0.00185192
     atom  147 type  4   force =     0.00274892    0.00351367    0.00408833
     atom  148 type  4   force =    -0.00390672   -0.00145023    0.02198784
     atom  149 type  4   force =    -0.00988524    0.03031418    0.00417551
     atom  150 type  4   force =    -0.00183170    0.00027794    0.00282872
     atom  151 type  4   force =    -0.01870276    0.00504335    0.00984545
     atom  152 type  4   force =    -0.00097815    0.00343947    0.00433812
     atom  153 type  4   force =    -0.00115720    0.00024941    0.00297912
     atom  154 type  4   force =     0.00205783   -0.00267188    0.00284235
     atom  155 type  4   force =     0.01465247    0.02478667    0.00008200
     atom  156 type  4   force =     0.02253673   -0.00364652    0.00138100
     atom  157 type  4   force =    -0.01103669    0.00667807   -0.00263173
     atom  158 type  5   force =     0.01148636   -0.00711439    0.00316515

     Total force =     0.238395     Total SCF correction =     0.004536
 
     init_run     :     10.83s CPU     11.50s WALL (       1 calls)
     electrons    :   1306.62s CPU   1353.91s WALL (       1 calls)
     forces       :      6.04s CPU      6.53s WALL (       1 calls)
     force_london :      0.09s CPU      0.09s WALL (       1 calls)

     Called by init_run:
     wfcinit      :      6.37s CPU      6.60s WALL (       1 calls)
     potinit      :      0.61s CPU      0.81s WALL (       1 calls)
     hinit0       :      2.00s CPU      2.06s WALL (       1 calls)

     Called by electrons:
     c_bands      :   1010.43s CPU   1035.38s WALL (      65 calls)
     sum_band     :    178.42s CPU    190.10s WALL (      65 calls)
     v_of_rho     :     21.46s CPU     23.02s WALL (      66 calls)
     newd         :     69.69s CPU     78.82s WALL (      66 calls)
     mix_rho      :     25.37s CPU     25.49s WALL (      65 calls)
     energy_londo :      0.09s CPU      0.09s WALL (       1 calls)

     Called by c_bands:
     init_us_2    :      2.23s CPU      2.28s WALL (     264 calls)
     init_us_2:cp :      2.23s CPU      2.28s WALL (     264 calls)
     regterg      :    990.50s CPU   1015.18s WALL (     131 calls)

     Called by *egterg:
     rdiaghg      :    257.17s CPU    269.53s WALL (     503 calls)
     h_psi        :    381.39s CPU    387.05s WALL (     505 calls)
     s_psi        :     55.02s CPU     55.08s WALL (     505 calls)
     g_psi        :      0.40s CPU      0.40s WALL (     372 calls)

     Called by h_psi:
     h_psi:calbec :     96.31s CPU    100.59s WALL (     505 calls)
     vloc_psi     :    229.11s CPU    229.89s WALL (     505 calls)
     add_vuspsi   :     55.22s CPU     55.81s WALL (     505 calls)

     General routines
     calbec       :    141.55s CPU    148.11s WALL (     643 calls)
     fft          :     48.68s CPU     50.84s WALL (    1201 calls)
     ffts         :     13.72s CPU     13.75s WALL (    8055 calls)
     fftw         :    258.70s CPU    259.53s WALL (  225068 calls)
     interpolate  :      2.09s CPU      2.21s WALL (     132 calls)
 
     Parallel routines
 
     PWSCF        :  22m 5.84s CPU  22m54.59s WALL

 
   This run was terminated on:  23:58:55  17Nov2025            

=------------------------------------------------------------------------------=
   JOB DONE.
=------------------------------------------------------------------------------=
