
     Program PWSCF v.7.2 starts on 17Nov2025 at 23:59: 0 

     This program is part of the open-source Quantum ESPRESSO suite
     for quantum simulation of materials; please cite
         "P. Giannozzi et al., J. Phys.:Condens. Matter 21 395502 (2009);
         "P. Giannozzi et al., J. Phys.:Condens. Matter 29 465901 (2017);
         "P. Giannozzi et al., J. Chem. Phys. 152 154105 (2020);
          URL http://www.quantum-espresso.org", 
     in publications or presentations arising from this work. More details at
     http://www.quantum-espresso.org/quote

     Parallel version (MPI), running on    64 processors

     MPI processes distributed on     4 nodes
     451980 MiB available memory on the printing compute node when the environment starts
 
     Reading input from PWINPUT_atm158_yp

     Current dimensions of program PWSCF are:
     Max number of different atomic species (ntypx) = 10
     Max number of k-points (npk) =  40000
     Max angular momentum in pseudopotentials (lmaxx) =  4
     Presently no symmetry can be used with electric field

     file Ni.pbe-n-rrkjus_psl.1.0.0.UPF: wavefunction(s)  3D renormalized
     file Mn.pbe-spn-rrkjus_psl.0.3.1.UPF: wavefunction(s)  3D renormalized
     file O.pbe-rrkjus.UPF: wavefunction(s)  2S renormalized
     file H.pbe-rrkjus.UPF: wavefunction(s)  1S renormalized

     gamma-point specific algorithms are used
 
     R & G space division:  proc/nbgrp/npool/nimage =      64
     Subspace diagonalization in iterative solution of the eigenvalue problem:
     one sub-group per band group will be used
     custom distributed-memory algorithm (size of sub-group:  7*  7 procs)

 
     Parallelization info
     --------------------
     sticks:   dense  smooth     PW     G-vecs:    dense   smooth      PW
     Min         214      85     20                61830    15614    1928
     Max         216      86     22                61864    15658    1982
     Sum       13727    5503   1375              3958051  1001255  125211
 
     Using Slab Decomposition
 


     bravais-lattice index     =            0
     lattice parameter (alat)  =      17.8532  a.u.
     unit-cell volume          =   20962.6682 (a.u.)^3
     number of atoms/cell      =          158
     number of atomic types    =            5
     number of electrons       =      1108.00
     number of Kohn-Sham states=          665
     kinetic-energy cutoff     =      50.0000  Ry
     charge density cutoff     =     500.0000  Ry
     scf convergence threshold =      1.0E-06
     mixing beta               =       0.2000
     number of iterations used =            8  local-TF  mixing
     Exchange-correlation=  SLA  PW   PBE  PBE
                           (   1   4   3   4   0   0   0)

     celldm(1)=  17.853155  celldm(2)=   0.000000  celldm(3)=   0.000000
     celldm(4)=   0.000000  celldm(5)=   0.000000  celldm(6)=   0.000000

     crystal axes: (cart. coord. in units of alat)
               a(1) = (   1.000000   0.000000   0.000000 )  
               a(2) = (   0.003237   1.081997   0.000000 )  
               a(3) = (   0.000000   0.000000   3.404673 )  

     reciprocal axes: (cart. coord. in units 2 pi/alat)
               b(1) = (  1.000000 -0.002992  0.000000 )  
               b(2) = (  0.000000  0.924217  0.000000 )  
               b(3) = (  0.000000  0.000000  0.293714 )  


     PseudoPot. # 1 for Ni read from file:
     ~/PSEUDO/Ni.pbe-n-rrkjus_psl.1.0.0.UPF
     MD5 check sum: Not computed, couldn't open file
     Pseudo is Ultrasoft + core correction, Zval = 10.0
     Generated using "atomic" code by A. Dal Corso  v.5.1.2
     Using radial grid of 1195 points,  6 beta functions with: 
                l(1) =   0
                l(2) =   0
                l(3) =   1
                l(4) =   1
                l(5) =   2
                l(6) =   2
     Q(r) pseudized with 0 coefficients 


     PseudoPot. # 2 for Mn read from file:
     ~/PSEUDO/Mn.pbe-spn-rrkjus_psl.0.3.1.UPF
     MD5 check sum: Not computed, couldn't open file
     Pseudo is Ultrasoft + core correction, Zval = 15.0
     Generated using &quot;atomic&quot; code by A. Dal Corso  v.6.2.2
     Using radial grid of 1187 points,  6 beta functions with: 
                l(1) =   0
                l(2) =   0
                l(3) =   1
                l(4) =   1
                l(5) =   2
                l(6) =   2
     Q(r) pseudized with 0 coefficients 


     PseudoPot. # 3 for P  read from file:
     ~/PSEUDO/P.pbe-n-rrkjus_psl.1.0.0.UPF
     MD5 check sum: Not computed, couldn't open file
     Pseudo is Ultrasoft + core correction, Zval =  5.0
     Generated using "atomic" code by A. Dal Corso  v.5.1
     Using radial grid of 1147 points,  6 beta functions with: 
                l(1) =   0
                l(2) =   0
                l(3) =   1
                l(4) =   1
                l(5) =   2
                l(6) =   2
     Q(r) pseudized with 0 coefficients 


     PseudoPot. # 4 for O  read from file:
     ~/PSEUDO/O.pbe-rrkjus.UPF
     MD5 check sum: Not computed, couldn't open file
     Pseudo is Ultrasoft, Zval =  6.0
     Generated by new atomic code, or converted to UPF format
     Using radial grid of 1269 points,  4 beta functions with: 
                l(1) =   0
                l(2) =   0
                l(3) =   1
                l(4) =   1
     Q(r) pseudized with 0 coefficients 


     PseudoPot. # 5 for H  read from file:
     ~/PSEUDO/H.pbe-rrkjus.UPF
     MD5 check sum: Not computed, couldn't open file
     Pseudo is Ultrasoft, Zval =  1.0
     Generated by new atomic code, or converted to UPF format
     Using radial grid of 1061 points,  2 beta functions with: 
                l(1) =   0
                l(2) =   0
     Q(r) pseudized with 0 coefficients 


     atomic species   valence    mass     pseudopotential
     Ni               10.00    58.69300     Ni( 1.00)
     Mn               15.00    54.93800     Mn( 1.00)
     P                 5.00    30.97300     P ( 1.00)
     O                 6.00    15.99900     O ( 1.00)
     H                 1.00     1.00790     H ( 1.00)

     Starting magnetic structure 
     atomic species   magnetization
     Ni              1.000
     Mn              1.000
     P               1.000
     O               1.000
     H               0.000

     No symmetry found



   Cartesian axes

     site n.     atom                  positions (alat units)
         1        Ni     tau(   1) = (   0.2543225   0.8313870   1.6793668  )
         2        Ni     tau(   2) = (   0.4936098   0.7712751   1.3753531  )
         3        Mn     tau(   3) = (   0.0006860   0.2911226   1.7027072  )
         4        Ni     tau(   4) = (   0.2606585   0.2273372   1.3798175  )
         5        Ni     tau(   5) = (   0.9994008   1.0715220   1.5369837  )
         6        Ni     tau(   6) = (   0.2545729   0.5328500   1.5373447  )
         7        Ni     tau(   7) = (   0.7507737   0.8282717   1.6811415  )
         8        Mn     tau(   8) = (   0.9883889   0.7675371   1.3725924  )
         9        Mn     tau(   9) = (   0.4980977   0.2903973   1.7090653  )
        10        Ni     tau(  10) = (   0.7545187   0.2253996   1.3777585  )
        11        Ni     tau(  11) = (   0.4976426   1.0726516   1.5389427  )
        12        Ni     tau(  12) = (   0.7528337   0.5277877   1.5449104  )
        13        P      tau(  13) = (   0.2132289   0.9703461   1.3797005  )
        14        P      tau(  14) = (   0.4643593   0.6442400   1.6938346  )
        15        P      tau(  15) = (   0.2841587   0.0960848   1.7008509  )
        16        P      tau(  16) = (   0.0411047   0.4212367   1.3873316  )
        17        O      tau(  17) = (   0.1349283   0.9013560   1.5143976  )
        18        O      tau(  18) = (   0.3861291   0.7042380   1.5488927  )
        19        O      tau(  19) = (   0.3656599   0.1691817   1.5650371  )
        20        O      tau(  20) = (   0.1200799   0.3555271   1.5222191  )
        21        O      tau(  21) = (   0.1532998   0.8826075   1.2547996  )
        22        O      tau(  22) = (   0.4047365   0.7410193   1.8076950  )
        23        O      tau(  23) = (   0.3388828   0.1871954   1.8224511  )
        24        O      tau(  24) = (   0.0996136   0.3313027   1.2636839  )
        25        O      tau(  25) = (   0.0982475   0.5756432   1.3839303  )
        26        O      tau(  26) = (   0.3445548   1.0232506   1.6933208  )
        27        O      tau(  27) = (   0.3791300   0.4168042   1.3928156  )
        28        O      tau(  28) = (   0.1208947   0.1012566   1.6847757  )
        29        O      tau(  29) = (   0.1298687   0.6510170   1.6821372  )
        30        O      tau(  30) = (   0.4048797   0.4885295   1.6889145  )
        31        O      tau(  31) = (   0.1516361   0.0428342   1.3845433  )
        32        O      tau(  32) = (   0.3759308   0.9628073   1.3915760  )
        33        P      tau(  33) = (   0.7066777   0.9681768   1.3784026  )
        34        P      tau(  34) = (   0.9665573   0.6462099   1.7021029  )
        35        P      tau(  35) = (   0.7834317   0.0914400   1.6930753  )
        36        P      tau(  36) = (   0.5424223   0.4259167   1.3855585  )
        37        O      tau(  37) = (   0.6302223   0.8970607   1.5136635  )
        38        O      tau(  38) = (   0.8856905   0.6990046   1.5578663  )
        39        O      tau(  39) = (   0.8594036   0.1560940   1.5527589  )
        40        O      tau(  40) = (   0.6188906   0.3547386   1.5195219  )
        41        O      tau(  41) = (   0.6482905   0.8785231   1.2537859  )
        42        O      tau(  42) = (   0.9062711   0.7448203   1.8139613  )
        43        O      tau(  43) = (   0.8424157   0.1845535   1.8127077  )
        44        O      tau(  44) = (   0.6030560   0.3374862   1.2610477  )
        45        O      tau(  45) = (   0.6002319   0.5801662   1.3862498  )
        46        O      tau(  46) = (   0.8431552   1.0184616   1.6925684  )
        47        O      tau(  47) = (   0.8783423   0.4135099   1.3998625  )
        48        O      tau(  48) = (   0.6197718   0.0991933   1.6835405  )
        49        O      tau(  49) = (   0.6280075   0.6476069   1.6801066  )
        50        O      tau(  50) = (   0.9149851   0.4882065   1.7072857  )
        51        O      tau(  51) = (   0.6437954   0.0399516   1.3816221  )
        52        O      tau(  52) = (   0.8694028   0.9616471   1.3910153  )
        53        Ni     tau(  53) = (   0.2420320   0.8169913   1.0699082  )
        54        Ni     tau(  54) = (   0.4893084   0.7542727   0.7477128  )
        55        Mn     tau(  55) = (   0.0085152   0.2729728   1.0755565  )
        56        Ni     tau(  56) = (   0.2558246   0.2079345   0.7498450  )
        57        Ni     tau(  57) = (   0.9991959   1.0516583   0.9080455  )
        58        Ni     tau(  58) = (   0.2490231   0.5149840   0.9092594  )
        59        Ni     tau(  59) = (   0.7373131   0.8159965   1.0690453  )
        60        Mn     tau(  60) = (   0.9859093   0.7511625   0.7423903  )
        61        Mn     tau(  61) = (   0.5085552   0.2755447   1.0757185  )
        62        Ni     tau(  62) = (   0.7532989   0.2074622   0.7493279  )
        63        Ni     tau(  63) = (   0.4981517   1.0523018   0.9093468  )
        64        Ni     tau(  64) = (   0.7469109   0.5147379   0.9081681  )
        65        P      tau(  65) = (   0.2119924   0.9497675   0.7533413  )
        66        P      tau(  66) = (   0.4579509   0.6252695   1.0650744  )
        67        P      tau(  67) = (   0.2855349   0.0724244   1.0650326  )
        68        P      tau(  68) = (   0.0381112   0.4032615   0.7561117  )
        69        O      tau(  69) = (   0.1352995   0.8818598   0.8892857  )
        70        O      tau(  70) = (   0.3789570   0.6924463   0.9291468  )
        71        O      tau(  71) = (   0.3610496   0.1419327   0.9291660  )
        72        O      tau(  72) = (   0.1179700   0.3356534   0.8894858  )
        73        O      tau(  73) = (   0.1524325   0.8608343   0.6290918  )
        74        O      tau(  74) = (   0.3994952   0.7128748   1.1905493  )
        75        O      tau(  75) = (   0.3426976   0.1634744   1.1889742  )
        76        O      tau(  76) = (   0.0989151   0.3155758   0.6321220  )
        77        O      tau(  77) = (   0.0942206   0.5581494   0.7569623  )
        78        O      tau(  78) = (   0.3506297   1.0014456   1.0645371  )
        79        O      tau(  79) = (   0.3750155   0.3983181   0.7655049  )
        80        O      tau(  80) = (   0.1228303   0.0764842   1.0543924  )
        81        O      tau(  81) = (   0.1204299   0.6293201   1.0530905  )
        82        O      tau(  82) = (   0.4000664   0.4708612   1.0626359  )
        83        O      tau(  83) = (   0.1483182   0.0216333   0.7546099  )
        84        O      tau(  84) = (   0.3748687   0.9435072   0.7627918  )
        85        P      tau(  85) = (   0.7056901   0.9492898   0.7521526  )
        86        P      tau(  86) = (   0.9575286   0.6220438   1.0623609  )
        87        P      tau(  87) = (   0.7847866   0.0710549   1.0641979  )
        88        P      tau(  88) = (   0.5377283   0.4083400   0.7551622  )
        89        O      tau(  89) = (   0.6295714   0.8788409   0.8879407  )
        90        O      tau(  90) = (   0.8781778   0.6902700   0.9288966  )
        91        O      tau(  91) = (   0.8603186   0.1398018   0.9279591  )
        92        O      tau(  92) = (   0.6174712   0.3389159   0.8881839  )
        93        O      tau(  93) = (   0.6471291   0.8583376   0.6285166  )
        94        O      tau(  94) = (   0.8962302   0.7094244   1.1861651  )
        95        O      tau(  95) = (   0.8420493   0.1616933   1.1885419  )
        96        O      tau(  96) = (   0.5995227   0.3203391   0.6315608  )
        97        O      tau(  97) = (   0.5932354   0.5636910   0.7569738  )
        98        O      tau(  98) = (   0.8487155   0.9994995   1.0634446  )
        99        O      tau(  99) = (   0.8751772   0.3959680   0.7655094  )
       100        O      tau( 100) = (   0.6223291   0.0767949   1.0539182  )
       101        O      tau( 101) = (   0.6209785   0.6292365   1.0537708  )
       102        O      tau( 102) = (   0.9010178   0.4674118   1.0608723  )
       103        O      tau( 103) = (   0.6430869   0.0213354   0.7538098  )
       104        O      tau( 104) = (   0.8684566   0.9446034   0.7630440  )
       105        Ni     tau( 105) = (   0.2392451   0.7980692   0.4424501  )
       106        Ni     tau( 106) = (   0.4865215   0.7353506   0.1202547  )
       107        Mn     tau( 107) = (   0.0057284   0.2540508   0.4480984  )
       108        Ni     tau( 108) = (   0.2530377   0.1890124   0.1223869  )
       109        Ni     tau( 109) = (   0.9964090   1.0327362   0.2805874  )
       110        Ni     tau( 110) = (   0.2462362   0.4960619   0.2818013  )
       111        Ni     tau( 111) = (   0.7345262   0.7970744   0.4415872  )
       112        Mn     tau( 112) = (   0.9831224   0.7322404   0.1149322  )
       113        Mn     tau( 113) = (   0.5057684   0.2566226   0.4482604  )
       114        Ni     tau( 114) = (   0.7505120   0.1885401   0.1218698  )
       115        Ni     tau( 115) = (   0.4953648   1.0333797   0.2818887  )
       116        Ni     tau( 116) = (   0.7441241   0.4958159   0.2807100  )
       117        P      tau( 117) = (   0.2092055   0.9308455   0.1258832  )
       118        P      tau( 118) = (   0.4551640   0.6063475   0.4376163  )
       119        P      tau( 119) = (   0.2827481   0.0535023   0.4375745  )
       120        P      tau( 120) = (   0.0353243   0.3843395   0.1286536  )
       121        O      tau( 121) = (   0.1325127   0.8629378   0.2618276  )
       122        O      tau( 122) = (   0.3761702   0.6735242   0.3016887  )
       123        O      tau( 123) = (   0.3582627   0.1230106   0.3017079  )
       124        O      tau( 124) = (   0.1151831   0.3167313   0.2620277  )
       125        O      tau( 125) = (   0.1496456   0.8419122   0.0016337  )
       126        O      tau( 126) = (   0.3967083   0.6939527   0.5630912  )
       127        O      tau( 127) = (   0.3399107   0.1445523   0.5615161  )
       128        O      tau( 128) = (   0.0961282   0.2966537   0.0046639  )
       129        O      tau( 129) = (   0.0914337   0.5392273   0.1295042  )
       130        O      tau( 130) = (   0.3478428   0.9825235   0.4370790  )
       131        O      tau( 131) = (   0.3722287   0.3793961   0.1380469  )
       132        O      tau( 132) = (   0.1200434   0.0575621   0.4269343  )
       133        O      tau( 133) = (   0.1176431   0.6103980   0.4256324  )
       134        O      tau( 134) = (   0.3972796   0.4519391   0.4351778  )
       135        O      tau( 135) = (   0.1455313   0.0027113   0.1271518  )
       136        O      tau( 136) = (   0.3720819   0.9245852   0.1353338  )
       137        P      tau( 137) = (   0.7029032   0.9303678   0.1246945  )
       138        P      tau( 138) = (   0.9547417   0.6031217   0.4349028  )
       139        P      tau( 139) = (   0.7819997   0.0521328   0.4367398  )
       140        P      tau( 140) = (   0.5349415   0.3894179   0.1277041  )
       141        O      tau( 141) = (   0.6267846   0.8599188   0.2604826  )
       142        O      tau( 142) = (   0.8753909   0.6713480   0.3014385  )
       143        O      tau( 143) = (   0.8575317   0.1208797   0.3005010  )
       144        O      tau( 144) = (   0.6146843   0.3199938   0.2607258  )
       145        O      tau( 145) = (   0.6443422   0.8394155   0.0010585  )
       146        O      tau( 146) = (   0.8934434   0.6905023   0.5587070  )
       147        O      tau( 147) = (   0.8392624   0.1427713   0.5610838  )
       148        O      tau( 148) = (   0.5967359   0.3014171   0.0041027  )
       149        O      tau( 149) = (   0.5904485   0.5447689   0.1295157  )
       150        O      tau( 150) = (   0.8459286   0.9805774   0.4359865  )
       151        O      tau( 151) = (   0.8723903   0.3770459   0.1380513  )
       152        O      tau( 152) = (   0.6195422   0.0578729   0.4264602  )
       153        O      tau( 153) = (   0.6181917   0.6103144   0.4263127  )
       154        O      tau( 154) = (   0.8982309   0.4484897   0.4334142  )
       155        O      tau( 155) = (   0.6403000   0.0024133   0.1263517  )
       156        O      tau( 156) = (   0.8656697   0.9256814   0.1355859  )
       157        O      tau( 157) = (   0.6083472   0.3612432   1.8423921  )
       158        H      tau( 158) = (   0.6957300   0.3062672   1.8587579  )

     -------------------------------------------------
     Parameters for Dispersion (Grimme-D2) Correction:
     -------------------------------------------------
       atom      VdW radius       C_6     

        Ni         2.952        374.666
        Mn         2.952        374.666
        P          3.222        271.980
        O          2.536         24.284
        H          1.892          4.857

     number of k points=     1  Gaussian smearing, width (Ry)=  0.0100
                       cart. coord. in units 2pi/alat
        k(    1) = (   0.0000000   0.0000000   0.0000000), wk =   1.0000000

     Dense  grid:  1979026 G-vectors     FFT dimensions: ( 128, 144, 450)

     Smooth grid:   500628 G-vectors     FFT dimensions: (  81,  90, 288)

     Estimated max dynamical RAM per process >     333.40 MB

     Estimated total dynamical RAM >      20.84 GB

     Check: negative core charge=   -0.000002
     Generating pointlists ...
     new r_m :   0.0873 (alat units)  1.5594 (a.u.) for type    1
     new r_m :   0.0771 (alat units)  1.3768 (a.u.) for type    2
     new r_m :   0.0663 (alat units)  1.1845 (a.u.) for type    3
     new r_m :   0.0431 (alat units)  0.7698 (a.u.) for type    4
     new r_m :   0.0431 (alat units)  0.7698 (a.u.) for type    5

     Initial potential from superposition of free atoms

     starting charge    1107.8886, renormalised to    1108.0000

     negative rho (up, down):  1.541E-03 4.687E-04
 
     Adding external electric field

     Computed dipole along edir(3) : 
        Dipole                1.6165 Ry au,          4.1087 Debye
        Dipole field          0.0010 Ry au, 
 
        Potential amp.       -0.1060 Ry
        Total length         54.7057 bohr
 
 
     Adding external electric field

     Computed dipole along edir(3) : 
        Dipole                1.6165 Ry au,          4.1087 Debye
        Dipole field          0.0010 Ry au, 
 
        Potential amp.       -0.1060 Ry
        Total length         54.7057 bohr
 
     Starting wfcs are  818 randomized atomic wfcs

     total cpu time spent up to now is       14.8 secs

     Self-consistent Calculation

     iteration #  1     ecut=    50.00 Ry     beta= 0.20
     Davidson diagonalization with overlap
     ethr =  1.00E-02,  avg # of iterations =  5.5

     negative rho (up, down):  1.028E+00 6.699E-07
 
     Adding external electric field

     Computed dipole along edir(3) : 
        Dipole               -8.0799 Ry au,        -20.5370 Debye
        Dipole field         -0.0048 Ry au, 
 
        Potential amp.        0.5299 Ry
        Total length         54.7057 bohr
 
 
     Adding external electric field

     Computed dipole along edir(3) : 
        Dipole               -8.0799 Ry au,        -20.5370 Debye
        Dipole field         -0.0048 Ry au, 
 
        Potential amp.        0.5299 Ry
        Total length         54.7057 bohr
 

     total cpu time spent up to now is       55.4 secs

     total energy              =   -7877.76448268 Ry
     estimated scf accuracy    <     714.70363914 Ry

     total magnetization       =   222.00 Bohr mag/cell
     absolute magnetization    =   319.75 Bohr mag/cell

     iteration #  2     ecut=    50.00 Ry     beta= 0.20
     Davidson diagonalization with overlap
     ethr =  1.00E-02,  avg # of iterations =  2.5

     negative rho (up, down):  9.377E-01 2.461E-07
 
     Adding external electric field

     Computed dipole along edir(3) : 
        Dipole               -4.0878 Ry au,        -10.3902 Debye
        Dipole field         -0.0025 Ry au, 
 
        Potential amp.        0.2681 Ry
        Total length         54.7057 bohr
 
 
     Adding external electric field

     Computed dipole along edir(3) : 
        Dipole               -4.0878 Ry au,        -10.3902 Debye
        Dipole field         -0.0025 Ry au, 
 
        Potential amp.        0.2681 Ry
        Total length         54.7057 bohr
 

     total cpu time spent up to now is       82.3 secs

     total energy              =   -7973.97697725 Ry
     estimated scf accuracy    <     726.76094685 Ry

     total magnetization       =   151.47 Bohr mag/cell
     absolute magnetization    =   202.07 Bohr mag/cell

     iteration #  3     ecut=    50.00 Ry     beta= 0.20
     Davidson diagonalization with overlap
     ethr =  1.00E-02,  avg # of iterations =  1.0

     negative rho (up, down):  7.759E-01 6.129E-07
 
     Adding external electric field

     Computed dipole along edir(3) : 
        Dipole               -4.1074 Ry au,        -10.4401 Debye
        Dipole field         -0.0025 Ry au, 
 
        Potential amp.        0.2694 Ry
        Total length         54.7057 bohr
 
 
     Adding external electric field

     Computed dipole along edir(3) : 
        Dipole               -4.1074 Ry au,        -10.4401 Debye
        Dipole field         -0.0025 Ry au, 
 
        Potential amp.        0.2694 Ry
        Total length         54.7057 bohr
 

     total cpu time spent up to now is      100.7 secs

     total energy              =   -8004.07921444 Ry
     estimated scf accuracy    <     105.18961689 Ry

     total magnetization       =   136.76 Bohr mag/cell
     absolute magnetization    =   185.67 Bohr mag/cell

     iteration #  4     ecut=    50.00 Ry     beta= 0.20
     Davidson diagonalization with overlap
     ethr =  9.49E-03,  avg # of iterations =  1.0

     negative rho (up, down):  4.822E-01 2.591E-09
 
     Adding external electric field

     Computed dipole along edir(3) : 
        Dipole               -2.4624 Ry au,         -6.2589 Debye
        Dipole field         -0.0015 Ry au, 
 
        Potential amp.        0.1615 Ry
        Total length         54.7057 bohr
 
 
     Adding external electric field

     Computed dipole along edir(3) : 
        Dipole               -2.4624 Ry au,         -6.2589 Debye
        Dipole field         -0.0015 Ry au, 
 
        Potential amp.        0.1615 Ry
        Total length         54.7057 bohr
 

     total cpu time spent up to now is      119.1 secs

     total energy              =   -8042.34617230 Ry
     estimated scf accuracy    <     102.55680814 Ry

     total magnetization       =   114.01 Bohr mag/cell
     absolute magnetization    =   165.64 Bohr mag/cell

     iteration #  5     ecut=    50.00 Ry     beta= 0.20
     Davidson diagonalization with overlap
     ethr =  9.26E-03,  avg # of iterations =  1.0

     negative rho (up, down):  2.189E-01 1.474E-07
 
     Adding external electric field

     Computed dipole along edir(3) : 
        Dipole               -2.0174 Ry au,         -5.1276 Debye
        Dipole field         -0.0012 Ry au, 
 
        Potential amp.        0.1323 Ry
        Total length         54.7057 bohr
 
 
     Adding external electric field

     Computed dipole along edir(3) : 
        Dipole               -2.0174 Ry au,         -5.1276 Debye
        Dipole field         -0.0012 Ry au, 
 
        Potential amp.        0.1323 Ry
        Total length         54.7057 bohr
 

     total cpu time spent up to now is      137.6 secs

     total energy              =   -8063.91885018 Ry
     estimated scf accuracy    <      65.66279340 Ry

     total magnetization       =   103.84 Bohr mag/cell
     absolute magnetization    =   146.13 Bohr mag/cell

     iteration #  6     ecut=    50.00 Ry     beta= 0.20
     Davidson diagonalization with overlap
     ethr =  5.93E-03,  avg # of iterations =  1.0

     negative rho (up, down):  5.948E-03 3.187E-03
 
     Adding external electric field

     Computed dipole along edir(3) : 
        Dipole               -0.9080 Ry au,         -2.3079 Debye
        Dipole field         -0.0005 Ry au, 
 
        Potential amp.        0.0596 Ry
        Total length         54.7057 bohr
 
 
     Adding external electric field

     Computed dipole along edir(3) : 
        Dipole               -0.9080 Ry au,         -2.3079 Debye
        Dipole field         -0.0005 Ry au, 
 
        Potential amp.        0.0596 Ry
        Total length         54.7057 bohr
 

     total cpu time spent up to now is      155.9 secs

     total energy              =   -8076.29883072 Ry
     estimated scf accuracy    <      23.47367500 Ry

     total magnetization       =   100.00 Bohr mag/cell
     absolute magnetization    =   130.30 Bohr mag/cell

     iteration #  7     ecut=    50.00 Ry     beta= 0.20
     Davidson diagonalization with overlap
     ethr =  2.12E-03,  avg # of iterations =  2.5

     negative rho (up, down):  4.248E-03 3.120E-03
 
     Adding external electric field

     Computed dipole along edir(3) : 
        Dipole               -1.0116 Ry au,         -2.5711 Debye
        Dipole field         -0.0006 Ry au, 
 
        Potential amp.        0.0663 Ry
        Total length         54.7057 bohr
 
 
     Adding external electric field

     Computed dipole along edir(3) : 
        Dipole               -1.0116 Ry au,         -2.5711 Debye
        Dipole field         -0.0006 Ry au, 
 
        Potential amp.        0.0663 Ry
        Total length         54.7057 bohr
 

     total cpu time spent up to now is      177.7 secs

     total energy              =   -8078.13869581 Ry
     estimated scf accuracy    <      31.52548866 Ry

     total magnetization       =    69.45 Bohr mag/cell
     absolute magnetization    =    87.25 Bohr mag/cell

     iteration #  8     ecut=    50.00 Ry     beta= 0.20
     Davidson diagonalization with overlap
     ethr =  2.12E-03,  avg # of iterations =  1.5

     negative rho (up, down):  1.642E-03 1.803E-03
 
     Adding external electric field

     Computed dipole along edir(3) : 
        Dipole               -1.2411 Ry au,         -3.1547 Debye
        Dipole field         -0.0007 Ry au, 
 
        Potential amp.        0.0814 Ry
        Total length         54.7057 bohr
 
 
     Adding external electric field

     Computed dipole along edir(3) : 
        Dipole               -1.2411 Ry au,         -3.1547 Debye
        Dipole field         -0.0007 Ry au, 
 
        Potential amp.        0.0814 Ry
        Total length         54.7057 bohr
 

     total cpu time spent up to now is      197.2 secs

     total energy              =   -8077.85587789 Ry
     estimated scf accuracy    <      18.35130726 Ry

     total magnetization       =    75.56 Bohr mag/cell
     absolute magnetization    =    91.44 Bohr mag/cell

     iteration #  9     ecut=    50.00 Ry     beta= 0.20
     Davidson diagonalization with overlap
     ethr =  1.66E-03,  avg # of iterations =  2.5

     negative rho (up, down):  6.471E-04 1.736E-03
 
     Adding external electric field

     Computed dipole along edir(3) : 
        Dipole               -1.1834 Ry au,         -3.0078 Debye
        Dipole field         -0.0007 Ry au, 
 
        Potential amp.        0.0776 Ry
        Total length         54.7057 bohr
 
 
     Adding external electric field

     Computed dipole along edir(3) : 
        Dipole               -1.1834 Ry au,         -3.0078 Debye
        Dipole field         -0.0007 Ry au, 
 
        Potential amp.        0.0776 Ry
        Total length         54.7057 bohr
 

     total cpu time spent up to now is      216.9 secs

     total energy              =   -8078.25012299 Ry
     estimated scf accuracy    <       3.09624418 Ry

     total magnetization       =    91.74 Bohr mag/cell
     absolute magnetization    =   102.98 Bohr mag/cell

     iteration # 10     ecut=    50.00 Ry     beta= 0.20
     Davidson diagonalization with overlap
     ethr =  2.79E-04,  avg # of iterations =  6.5

     negative rho (up, down):  2.786E-04 1.285E-03
 
     Adding external electric field

     Computed dipole along edir(3) : 
        Dipole               -1.1128 Ry au,         -2.8284 Debye
        Dipole field         -0.0007 Ry au, 
 
        Potential amp.        0.0730 Ry
        Total length         54.7057 bohr
 
 
     Adding external electric field

     Computed dipole along edir(3) : 
        Dipole               -1.1128 Ry au,         -2.8284 Debye
        Dipole field         -0.0007 Ry au, 
 
        Potential amp.        0.0730 Ry
        Total length         54.7057 bohr
 

     total cpu time spent up to now is      248.1 secs

     total energy              =   -8078.38492535 Ry
     estimated scf accuracy    <       0.66997563 Ry

     total magnetization       =    95.61 Bohr mag/cell
     absolute magnetization    =   104.27 Bohr mag/cell

     iteration # 11     ecut=    50.00 Ry     beta= 0.20
     Davidson diagonalization with overlap
     ethr =  6.05E-05,  avg # of iterations =  9.5

     negative rho (up, down):  6.325E-05 2.957E-04
 
     Adding external electric field

     Computed dipole along edir(3) : 
        Dipole               -1.0947 Ry au,         -2.7825 Debye
        Dipole field         -0.0007 Ry au, 
 
        Potential amp.        0.0718 Ry
        Total length         54.7057 bohr
 
 
     Adding external electric field

     Computed dipole along edir(3) : 
        Dipole               -1.0947 Ry au,         -2.7825 Debye
        Dipole field         -0.0007 Ry au, 
 
        Potential amp.        0.0718 Ry
        Total length         54.7057 bohr
 

     total cpu time spent up to now is      279.6 secs

     total energy              =   -8078.47592894 Ry
     estimated scf accuracy    <       0.56966142 Ry

     total magnetization       =    95.47 Bohr mag/cell
     absolute magnetization    =   102.36 Bohr mag/cell

     iteration # 12     ecut=    50.00 Ry     beta= 0.20
     Davidson diagonalization with overlap
     ethr =  5.14E-05,  avg # of iterations =  1.5

     negative rho (up, down):  5.276E-06 2.340E-05
 
     Adding external electric field

     Computed dipole along edir(3) : 
        Dipole               -1.0479 Ry au,         -2.6635 Debye
        Dipole field         -0.0006 Ry au, 
 
        Potential amp.        0.0687 Ry
        Total length         54.7057 bohr
 
 
     Adding external electric field

     Computed dipole along edir(3) : 
        Dipole               -1.0479 Ry au,         -2.6635 Debye
        Dipole field         -0.0006 Ry au, 
 
        Potential amp.        0.0687 Ry
        Total length         54.7057 bohr
 

     total cpu time spent up to now is      298.0 secs

     total energy              =   -8078.54882834 Ry
     estimated scf accuracy    <       0.36803536 Ry

     total magnetization       =    96.28 Bohr mag/cell
     absolute magnetization    =   101.46 Bohr mag/cell

     iteration # 13     ecut=    50.00 Ry     beta= 0.20
     Davidson diagonalization with overlap
     ethr =  3.32E-05,  avg # of iterations =  1.5

     negative rho (up, down):  9.080E-07 9.873E-06
 
     Adding external electric field

     Computed dipole along edir(3) : 
        Dipole               -0.9995 Ry au,         -2.5404 Debye
        Dipole field         -0.0006 Ry au, 
 
        Potential amp.        0.0656 Ry
        Total length         54.7057 bohr
 
 
     Adding external electric field

     Computed dipole along edir(3) : 
        Dipole               -0.9995 Ry au,         -2.5404 Debye
        Dipole field         -0.0006 Ry au, 
 
        Potential amp.        0.0656 Ry
        Total length         54.7057 bohr
 

     total cpu time spent up to now is      316.2 secs

     total energy              =   -8078.58039540 Ry
     estimated scf accuracy    <       0.32819027 Ry

     total magnetization       =    96.13 Bohr mag/cell
     absolute magnetization    =    99.65 Bohr mag/cell

     iteration # 14     ecut=    50.00 Ry     beta= 0.20
     Davidson diagonalization with overlap
     ethr =  2.96E-05,  avg # of iterations =  1.5

     negative rho (up, down):  6.869E-07 4.801E-06
 
     Adding external electric field

     Computed dipole along edir(3) : 
        Dipole               -0.9699 Ry au,         -2.4654 Debye
        Dipole field         -0.0006 Ry au, 
 
        Potential amp.        0.0636 Ry
        Total length         54.7057 bohr
 
 
     Adding external electric field

     Computed dipole along edir(3) : 
        Dipole               -0.9699 Ry au,         -2.4654 Debye
        Dipole field         -0.0006 Ry au, 
 
        Potential amp.        0.0636 Ry
        Total length         54.7057 bohr
 

     total cpu time spent up to now is      334.3 secs

     total energy              =   -8078.59686667 Ry
     estimated scf accuracy    <       0.24428171 Ry

     total magnetization       =    95.76 Bohr mag/cell
     absolute magnetization    =    98.08 Bohr mag/cell

     iteration # 15     ecut=    50.00 Ry     beta= 0.20
     Davidson diagonalization with overlap
     ethr =  2.20E-05,  avg # of iterations =  1.5

     negative rho (up, down):  6.766E-07 2.353E-06
 
     Adding external electric field

     Computed dipole along edir(3) : 
        Dipole               -0.9355 Ry au,         -2.3778 Debye
        Dipole field         -0.0006 Ry au, 
 
        Potential amp.        0.0614 Ry
        Total length         54.7057 bohr
 
 
     Adding external electric field

     Computed dipole along edir(3) : 
        Dipole               -0.9355 Ry au,         -2.3778 Debye
        Dipole field         -0.0006 Ry au, 
 
        Potential amp.        0.0614 Ry
        Total length         54.7057 bohr
 

     total cpu time spent up to now is      352.7 secs

     total energy              =   -8078.60346307 Ry
     estimated scf accuracy    <       0.12886639 Ry

     total magnetization       =    96.04 Bohr mag/cell
     absolute magnetization    =    97.83 Bohr mag/cell

     iteration # 16     ecut=    50.00 Ry     beta= 0.20
     Davidson diagonalization with overlap
     ethr =  1.16E-05,  avg # of iterations =  1.5

     negative rho (up, down):  7.882E-07 1.811E-07
 
     Adding external electric field

     Computed dipole along edir(3) : 
        Dipole               -0.8415 Ry au,         -2.1388 Debye
        Dipole field         -0.0005 Ry au, 
 
        Potential amp.        0.0552 Ry
        Total length         54.7057 bohr
 
 
     Adding external electric field

     Computed dipole along edir(3) : 
        Dipole               -0.8415 Ry au,         -2.1388 Debye
        Dipole field         -0.0005 Ry au, 
 
        Potential amp.        0.0552 Ry
        Total length         54.7057 bohr
 

     total cpu time spent up to now is      371.4 secs

     total energy              =   -8078.60226832 Ry
     estimated scf accuracy    <       0.11916834 Ry

     total magnetization       =    96.00 Bohr mag/cell
     absolute magnetization    =    97.59 Bohr mag/cell

     iteration # 17     ecut=    50.00 Ry     beta= 0.20
     Davidson diagonalization with overlap
     ethr =  1.08E-05,  avg # of iterations =  2.0

     negative rho (up, down):  1.215E-06 3.739E-08
 
     Adding external electric field

     Computed dipole along edir(3) : 
        Dipole               -0.7801 Ry au,         -1.9829 Debye
        Dipole field         -0.0005 Ry au, 
 
        Potential amp.        0.0512 Ry
        Total length         54.7057 bohr
 
 
     Adding external electric field

     Computed dipole along edir(3) : 
        Dipole               -0.7801 Ry au,         -1.9829 Debye
        Dipole field         -0.0005 Ry au, 
 
        Potential amp.        0.0512 Ry
        Total length         54.7057 bohr
 

     total cpu time spent up to now is      390.6 secs

     total energy              =   -8078.60230636 Ry
     estimated scf accuracy    <       0.10180439 Ry

     total magnetization       =    95.87 Bohr mag/cell
     absolute magnetization    =    97.23 Bohr mag/cell

     iteration # 18     ecut=    50.00 Ry     beta= 0.20
     Davidson diagonalization with overlap
     ethr =  9.19E-06,  avg # of iterations =  1.5

     negative rho (up, down):  1.148E-06 9.490E-08
 
     Adding external electric field

     Computed dipole along edir(3) : 
        Dipole               -0.8315 Ry au,         -2.1135 Debye
        Dipole field         -0.0005 Ry au, 
 
        Potential amp.        0.0545 Ry
        Total length         54.7057 bohr
 
 
     Adding external electric field

     Computed dipole along edir(3) : 
        Dipole               -0.8315 Ry au,         -2.1135 Debye
        Dipole field         -0.0005 Ry au, 
 
        Potential amp.        0.0545 Ry
        Total length         54.7057 bohr
 

     total cpu time spent up to now is      409.3 secs

     total energy              =   -8078.60449818 Ry
     estimated scf accuracy    <       0.12397464 Ry

     total magnetization       =    95.79 Bohr mag/cell
     absolute magnetization    =    97.15 Bohr mag/cell

     iteration # 19     ecut=    50.00 Ry     beta= 0.20
     Davidson diagonalization with overlap
     ethr =  9.19E-06,  avg # of iterations =  2.0

     negative rho (up, down):  1.003E-06 1.532E-07
 
     Adding external electric field

     Computed dipole along edir(3) : 
        Dipole               -0.8642 Ry au,         -2.1965 Debye
        Dipole field         -0.0005 Ry au, 
 
        Potential amp.        0.0567 Ry
        Total length         54.7057 bohr
 
 
     Adding external electric field

     Computed dipole along edir(3) : 
        Dipole               -0.8642 Ry au,         -2.1965 Debye
        Dipole field         -0.0005 Ry au, 
 
        Potential amp.        0.0567 Ry
        Total length         54.7057 bohr
 

     total cpu time spent up to now is      428.6 secs

     total energy              =   -8078.60569337 Ry
     estimated scf accuracy    <       0.11152874 Ry

     total magnetization       =    95.76 Bohr mag/cell
     absolute magnetization    =    97.12 Bohr mag/cell

     iteration # 20     ecut=    50.00 Ry     beta= 0.20
     Davidson diagonalization with overlap
     ethr =  9.19E-06,  avg # of iterations =  1.5

     negative rho (up, down):  1.006E-06 1.121E-07
 
     Adding external electric field

     Computed dipole along edir(3) : 
        Dipole               -0.8421 Ry au,         -2.1405 Debye
        Dipole field         -0.0005 Ry au, 
 
        Potential amp.        0.0552 Ry
        Total length         54.7057 bohr
 
 
     Adding external electric field

     Computed dipole along edir(3) : 
        Dipole               -0.8421 Ry au,         -2.1405 Debye
        Dipole field         -0.0005 Ry au, 
 
        Potential amp.        0.0552 Ry
        Total length         54.7057 bohr
 

     total cpu time spent up to now is      447.0 secs

     total energy              =   -8078.60540115 Ry
     estimated scf accuracy    <       0.11664197 Ry

     total magnetization       =    95.74 Bohr mag/cell
     absolute magnetization    =    97.07 Bohr mag/cell

     iteration # 21     ecut=    50.00 Ry     beta= 0.20
     Davidson diagonalization with overlap
     ethr =  9.19E-06,  avg # of iterations =  1.5

     negative rho (up, down):  2.610E-06 4.774E-07
 
     Adding external electric field

     Computed dipole along edir(3) : 
        Dipole               -0.7210 Ry au,         -1.8325 Debye
        Dipole field         -0.0004 Ry au, 
 
        Potential amp.        0.0473 Ry
        Total length         54.7057 bohr
 
 
     Adding external electric field

     Computed dipole along edir(3) : 
        Dipole               -0.7210 Ry au,         -1.8325 Debye
        Dipole field         -0.0004 Ry au, 
 
        Potential amp.        0.0473 Ry
        Total length         54.7057 bohr
 

     total cpu time spent up to now is      464.9 secs

     total energy              =   -8078.60321709 Ry
     estimated scf accuracy    <       0.11674560 Ry

     total magnetization       =    95.74 Bohr mag/cell
     absolute magnetization    =    97.08 Bohr mag/cell

     iteration # 22     ecut=    50.00 Ry     beta= 0.20
     Davidson diagonalization with overlap
     ethr =  9.19E-06,  avg # of iterations =  2.0

     negative rho (up, down):  1.387E-06 2.465E-07
 
     Adding external electric field

     Computed dipole along edir(3) : 
        Dipole               -0.7477 Ry au,         -1.9004 Debye
        Dipole field         -0.0004 Ry au, 
 
        Potential amp.        0.0490 Ry
        Total length         54.7057 bohr
 
 
     Adding external electric field

     Computed dipole along edir(3) : 
        Dipole               -0.7477 Ry au,         -1.9004 Debye
        Dipole field         -0.0004 Ry au, 
 
        Potential amp.        0.0490 Ry
        Total length         54.7057 bohr
 

     total cpu time spent up to now is      484.9 secs

     total energy              =   -8078.60428811 Ry
     estimated scf accuracy    <       0.11852272 Ry

     total magnetization       =    95.83 Bohr mag/cell
     absolute magnetization    =    97.11 Bohr mag/cell

     iteration # 23     ecut=    50.00 Ry     beta= 0.20
     Davidson diagonalization with overlap
     ethr =  9.19E-06,  avg # of iterations =  1.5

     negative rho (up, down):  2.877E-06 2.119E-07
 
     Adding external electric field

     Computed dipole along edir(3) : 
        Dipole               -0.7241 Ry au,         -1.8405 Debye
        Dipole field         -0.0004 Ry au, 
 
        Potential amp.        0.0475 Ry
        Total length         54.7057 bohr
 
 
     Adding external electric field

     Computed dipole along edir(3) : 
        Dipole               -0.7241 Ry au,         -1.8405 Debye
        Dipole field         -0.0004 Ry au, 
 
        Potential amp.        0.0475 Ry
        Total length         54.7057 bohr
 

     total cpu time spent up to now is      503.1 secs

     total energy              =   -8078.60102385 Ry
     estimated scf accuracy    <       0.12939325 Ry

     total magnetization       =    95.77 Bohr mag/cell
     absolute magnetization    =    97.03 Bohr mag/cell

     iteration # 24     ecut=    50.00 Ry     beta= 0.20
     Davidson diagonalization with overlap
     ethr =  9.19E-06,  avg # of iterations =  1.5

     negative rho (up, down):  3.173E-06 2.290E-07
 
     Adding external electric field

     Computed dipole along edir(3) : 
        Dipole               -0.7224 Ry au,         -1.8363 Debye
        Dipole field         -0.0004 Ry au, 
 
        Potential amp.        0.0474 Ry
        Total length         54.7057 bohr
 
 
     Adding external electric field

     Computed dipole along edir(3) : 
        Dipole               -0.7224 Ry au,         -1.8363 Debye
        Dipole field         -0.0004 Ry au, 
 
        Potential amp.        0.0474 Ry
        Total length         54.7057 bohr
 

     total cpu time spent up to now is      520.4 secs

     total energy              =   -8078.60198736 Ry
     estimated scf accuracy    <       0.10666975 Ry

     total magnetization       =    95.89 Bohr mag/cell
     absolute magnetization    =    97.35 Bohr mag/cell

     iteration # 25     ecut=    50.00 Ry     beta= 0.20
     Davidson diagonalization with overlap
     ethr =  9.19E-06,  avg # of iterations =  1.0

     negative rho (up, down):  6.702E-06 7.688E-07
 
     Adding external electric field

     Computed dipole along edir(3) : 
        Dipole               -0.6997 Ry au,         -1.7785 Debye
        Dipole field         -0.0004 Ry au, 
 
        Potential amp.        0.0459 Ry
        Total length         54.7057 bohr
 
 
     Adding external electric field

     Computed dipole along edir(3) : 
        Dipole               -0.6997 Ry au,         -1.7785 Debye
        Dipole field         -0.0004 Ry au, 
 
        Potential amp.        0.0459 Ry
        Total length         54.7057 bohr
 

     total cpu time spent up to now is      537.9 secs

     total energy              =   -8078.60169371 Ry
     estimated scf accuracy    <       0.10521333 Ry

     total magnetization       =    95.90 Bohr mag/cell
     absolute magnetization    =    97.34 Bohr mag/cell

     iteration # 26     ecut=    50.00 Ry     beta= 0.20
     Davidson diagonalization with overlap
     ethr =  9.19E-06,  avg # of iterations =  1.5

     negative rho (up, down):  4.730E-06 1.581E-06
 
     Adding external electric field

     Computed dipole along edir(3) : 
        Dipole               -0.6569 Ry au,         -1.6698 Debye
        Dipole field         -0.0004 Ry au, 
 
        Potential amp.        0.0431 Ry
        Total length         54.7057 bohr
 
 
     Adding external electric field

     Computed dipole along edir(3) : 
        Dipole               -0.6569 Ry au,         -1.6698 Debye
        Dipole field         -0.0004 Ry au, 
 
        Potential amp.        0.0431 Ry
        Total length         54.7057 bohr
 

     total cpu time spent up to now is      555.1 secs

     total energy              =   -8078.59739418 Ry
     estimated scf accuracy    <       0.11100595 Ry

     total magnetization       =    95.90 Bohr mag/cell
     absolute magnetization    =    97.32 Bohr mag/cell

     iteration # 27     ecut=    50.00 Ry     beta= 0.20
     Davidson diagonalization with overlap
     ethr =  9.19E-06,  avg # of iterations =  2.0

     negative rho (up, down):  7.854E-06 3.781E-06
 
     Adding external electric field

     Computed dipole along edir(3) : 
        Dipole               -0.5896 Ry au,         -1.4986 Debye
        Dipole field         -0.0004 Ry au, 
 
        Potential amp.        0.0387 Ry
        Total length         54.7057 bohr
 
 
     Adding external electric field

     Computed dipole along edir(3) : 
        Dipole               -0.5896 Ry au,         -1.4986 Debye
        Dipole field         -0.0004 Ry au, 
 
        Potential amp.        0.0387 Ry
        Total length         54.7057 bohr
 

     total cpu time spent up to now is      573.9 secs

     total energy              =   -8078.59775941 Ry
     estimated scf accuracy    <       0.09349333 Ry

     total magnetization       =    95.79 Bohr mag/cell
     absolute magnetization    =    97.12 Bohr mag/cell

     iteration # 28     ecut=    50.00 Ry     beta= 0.20
     Davidson diagonalization with overlap
     ethr =  8.44E-06,  avg # of iterations =  2.0

     negative rho (up, down):  7.372E-06 6.059E-06
 
     Adding external electric field

     Computed dipole along edir(3) : 
        Dipole               -0.5374 Ry au,         -1.3660 Debye
        Dipole field         -0.0003 Ry au, 
 
        Potential amp.        0.0352 Ry
        Total length         54.7057 bohr
 
 
     Adding external electric field

     Computed dipole along edir(3) : 
        Dipole               -0.5374 Ry au,         -1.3660 Debye
        Dipole field         -0.0003 Ry au, 
 
        Potential amp.        0.0352 Ry
        Total length         54.7057 bohr
 

     total cpu time spent up to now is      591.8 secs

     total energy              =   -8078.60005788 Ry
     estimated scf accuracy    <       0.08194266 Ry

     total magnetization       =    95.78 Bohr mag/cell
     absolute magnetization    =    97.06 Bohr mag/cell

     iteration # 29     ecut=    50.00 Ry     beta= 0.20
     Davidson diagonalization with overlap
     ethr =  7.40E-06,  avg # of iterations = 12.0

     negative rho (up, down):  8.763E-06 7.336E-06
 
     Adding external electric field

     Computed dipole along edir(3) : 
        Dipole               -0.3713 Ry au,         -0.9438 Debye
        Dipole field         -0.0002 Ry au, 
 
        Potential amp.        0.0244 Ry
        Total length         54.7057 bohr
 
 
     Adding external electric field

     Computed dipole along edir(3) : 
        Dipole               -0.3713 Ry au,         -0.9438 Debye
        Dipole field         -0.0002 Ry au, 
 
        Potential amp.        0.0244 Ry
        Total length         54.7057 bohr
 

     total cpu time spent up to now is      626.0 secs

     total energy              =   -8078.59911006 Ry
     estimated scf accuracy    <       0.04186694 Ry

     total magnetization       =    95.73 Bohr mag/cell
     absolute magnetization    =    97.00 Bohr mag/cell

     iteration # 30     ecut=    50.00 Ry     beta= 0.20
     Davidson diagonalization with overlap
     ethr =  3.78E-06,  avg # of iterations =  3.5

     negative rho (up, down):  9.050E-06 9.179E-06
 
     Adding external electric field

     Computed dipole along edir(3) : 
        Dipole               -0.2096 Ry au,         -0.5327 Debye
        Dipole field         -0.0001 Ry au, 
 
        Potential amp.        0.0137 Ry
        Total length         54.7057 bohr
 
 
     Adding external electric field

     Computed dipole along edir(3) : 
        Dipole               -0.2096 Ry au,         -0.5327 Debye
        Dipole field         -0.0001 Ry au, 
 
        Potential amp.        0.0137 Ry
        Total length         54.7057 bohr
 

     total cpu time spent up to now is      645.4 secs

     total energy              =   -8078.59814204 Ry
     estimated scf accuracy    <       0.02829782 Ry

     total magnetization       =    95.72 Bohr mag/cell
     absolute magnetization    =    96.98 Bohr mag/cell

     iteration # 31     ecut=    50.00 Ry     beta= 0.20
     Davidson diagonalization with overlap
     c_bands:  5 eigenvalues not converged
     ethr =  2.55E-06,  avg # of iterations = 12.0

     negative rho (up, down):  1.362E-04 7.871E-05
 
     Adding external electric field

     Computed dipole along edir(3) : 
        Dipole                0.0810 Ry au,          0.2058 Debye
        Dipole field          0.0000 Ry au, 
 
        Potential amp.       -0.0053 Ry
        Total length         54.7057 bohr
 
 
     Adding external electric field

     Computed dipole along edir(3) : 
        Dipole                0.0810 Ry au,          0.2058 Debye
        Dipole field          0.0000 Ry au, 
 
        Potential amp.       -0.0053 Ry
        Total length         54.7057 bohr
 

     total cpu time spent up to now is      675.9 secs

     total energy              =   -8078.59776180 Ry
     estimated scf accuracy    <       0.01216986 Ry

     total magnetization       =    95.73 Bohr mag/cell
     absolute magnetization    =    97.00 Bohr mag/cell

     iteration # 32     ecut=    50.00 Ry     beta= 0.20
     Davidson diagonalization with overlap
     c_bands:  2 eigenvalues not converged
     ethr =  1.10E-06,  avg # of iterations = 11.5

     negative rho (up, down):  9.209E-04 5.746E-04
 
     Adding external electric field

     Computed dipole along edir(3) : 
        Dipole                0.1547 Ry au,          0.3933 Debye
        Dipole field          0.0001 Ry au, 
 
        Potential amp.       -0.0101 Ry
        Total length         54.7057 bohr
 
 
     Adding external electric field

     Computed dipole along edir(3) : 
        Dipole                0.1547 Ry au,          0.3933 Debye
        Dipole field          0.0001 Ry au, 
 
        Potential amp.       -0.0101 Ry
        Total length         54.7057 bohr
 

     total cpu time spent up to now is      706.3 secs

     total energy              =   -8078.59834587 Ry
     estimated scf accuracy    <       0.00242818 Ry

     total magnetization       =    95.75 Bohr mag/cell
     absolute magnetization    =    97.09 Bohr mag/cell

     iteration # 33     ecut=    50.00 Ry     beta= 0.20
     Davidson diagonalization with overlap
     ethr =  2.19E-07,  avg # of iterations =  2.0

     negative rho (up, down):  7.453E-04 4.913E-04
 
     Adding external electric field

     Computed dipole along edir(3) : 
        Dipole                0.1442 Ry au,          0.3665 Debye
        Dipole field          0.0001 Ry au, 
 
        Potential amp.       -0.0095 Ry
        Total length         54.7057 bohr
 
 
     Adding external electric field

     Computed dipole along edir(3) : 
        Dipole                0.1442 Ry au,          0.3665 Debye
        Dipole field          0.0001 Ry au, 
 
        Potential amp.       -0.0095 Ry
        Total length         54.7057 bohr
 

     total cpu time spent up to now is      724.9 secs

     total energy              =   -8078.59831593 Ry
     estimated scf accuracy    <       0.00145445 Ry

     total magnetization       =    95.73 Bohr mag/cell
     absolute magnetization    =    97.06 Bohr mag/cell

     iteration # 34     ecut=    50.00 Ry     beta= 0.20
     Davidson diagonalization with overlap
     ethr =  1.31E-07,  avg # of iterations =  2.0

     negative rho (up, down):  7.763E-04 7.437E-04
 
     Adding external electric field

     Computed dipole along edir(3) : 
        Dipole                0.1829 Ry au,          0.4648 Debye
        Dipole field          0.0001 Ry au, 
 
        Potential amp.       -0.0120 Ry
        Total length         54.7057 bohr
 
 
     Adding external electric field

     Computed dipole along edir(3) : 
        Dipole                0.1829 Ry au,          0.4648 Debye
        Dipole field          0.0001 Ry au, 
 
        Potential amp.       -0.0120 Ry
        Total length         54.7057 bohr
 

     total cpu time spent up to now is      743.5 secs

     total energy              =   -8078.59844140 Ry
     estimated scf accuracy    <       0.00102848 Ry

     total magnetization       =    95.77 Bohr mag/cell
     absolute magnetization    =    97.13 Bohr mag/cell

     iteration # 35     ecut=    50.00 Ry     beta= 0.20
     Davidson diagonalization with overlap
     ethr =  9.28E-08,  avg # of iterations =  2.0

     negative rho (up, down):  2.298E-04 1.684E-04
 
     Adding external electric field

     Computed dipole along edir(3) : 
        Dipole                0.1428 Ry au,          0.3629 Debye
        Dipole field          0.0001 Ry au, 
 
        Potential amp.       -0.0094 Ry
        Total length         54.7057 bohr
 
 
     Adding external electric field

     Computed dipole along edir(3) : 
        Dipole                0.1428 Ry au,          0.3629 Debye
        Dipole field          0.0001 Ry au, 
 
        Potential amp.       -0.0094 Ry
        Total length         54.7057 bohr
 

     total cpu time spent up to now is      762.3 secs

     total energy              =   -8078.59839366 Ry
     estimated scf accuracy    <       0.00109472 Ry

     total magnetization       =    95.76 Bohr mag/cell
     absolute magnetization    =    97.09 Bohr mag/cell

     iteration # 36     ecut=    50.00 Ry     beta= 0.20
     Davidson diagonalization with overlap
     ethr =  9.28E-08,  avg # of iterations =  2.0

     negative rho (up, down):  6.620E-05 2.623E-05
 
     Adding external electric field

     Computed dipole along edir(3) : 
        Dipole                0.1573 Ry au,          0.3997 Debye
        Dipole field          0.0001 Ry au, 
 
        Potential amp.       -0.0103 Ry
        Total length         54.7057 bohr
 
 
     Adding external electric field

     Computed dipole along edir(3) : 
        Dipole                0.1573 Ry au,          0.3997 Debye
        Dipole field          0.0001 Ry au, 
 
        Potential amp.       -0.0103 Ry
        Total length         54.7057 bohr
 

     total cpu time spent up to now is      781.0 secs

     total energy              =   -8078.59849575 Ry
     estimated scf accuracy    <       0.00091297 Ry

     total magnetization       =    95.80 Bohr mag/cell
     absolute magnetization    =    97.15 Bohr mag/cell

     iteration # 37     ecut=    50.00 Ry     beta= 0.20
     Davidson diagonalization with overlap
     ethr =  8.24E-08,  avg # of iterations =  2.0

     negative rho (up, down):  6.613E-05 2.180E-05
 
     Adding external electric field

     Computed dipole along edir(3) : 
        Dipole                0.1496 Ry au,          0.3802 Debye
        Dipole field          0.0001 Ry au, 
 
        Potential amp.       -0.0098 Ry
        Total length         54.7057 bohr
 
 
     Adding external electric field

     Computed dipole along edir(3) : 
        Dipole                0.1496 Ry au,          0.3802 Debye
        Dipole field          0.0001 Ry au, 
 
        Potential amp.       -0.0098 Ry
        Total length         54.7057 bohr
 

     total cpu time spent up to now is      799.2 secs

     total energy              =   -8078.59852636 Ry
     estimated scf accuracy    <       0.00023580 Ry

     total magnetization       =    95.79 Bohr mag/cell
     absolute magnetization    =    97.13 Bohr mag/cell

     iteration # 38     ecut=    50.00 Ry     beta= 0.20
     Davidson diagonalization with overlap
     ethr =  2.13E-08,  avg # of iterations =  2.0

     negative rho (up, down):  1.025E-04 1.798E-05
 
     Adding external electric field

     Computed dipole along edir(3) : 
        Dipole                0.1479 Ry au,          0.3758 Debye
        Dipole field          0.0001 Ry au, 
 
        Potential amp.       -0.0097 Ry
        Total length         54.7057 bohr
 
 
     Adding external electric field

     Computed dipole along edir(3) : 
        Dipole                0.1479 Ry au,          0.3758 Debye
        Dipole field          0.0001 Ry au, 
 
        Potential amp.       -0.0097 Ry
        Total length         54.7057 bohr
 

     total cpu time spent up to now is      818.0 secs

     total energy              =   -8078.59854841 Ry
     estimated scf accuracy    <       0.00016161 Ry

     total magnetization       =    95.80 Bohr mag/cell
     absolute magnetization    =    97.15 Bohr mag/cell

     iteration # 39     ecut=    50.00 Ry     beta= 0.20
     Davidson diagonalization with overlap
     ethr =  1.46E-08,  avg # of iterations =  2.0

     negative rho (up, down):  1.531E-04 2.251E-05
 
     Adding external electric field

     Computed dipole along edir(3) : 
        Dipole                0.1477 Ry au,          0.3754 Debye
        Dipole field          0.0001 Ry au, 
 
        Potential amp.       -0.0097 Ry
        Total length         54.7057 bohr
 
 
     Adding external electric field

     Computed dipole along edir(3) : 
        Dipole                0.1477 Ry au,          0.3754 Debye
        Dipole field          0.0001 Ry au, 
 
        Potential amp.       -0.0097 Ry
        Total length         54.7057 bohr
 

     total cpu time spent up to now is      836.9 secs

     total energy              =   -8078.59855621 Ry
     estimated scf accuracy    <       0.00011809 Ry

     total magnetization       =    95.81 Bohr mag/cell
     absolute magnetization    =    97.16 Bohr mag/cell

     iteration # 40     ecut=    50.00 Ry     beta= 0.20
     Davidson diagonalization with overlap
     ethr =  1.07E-08,  avg # of iterations =  1.0

     negative rho (up, down):  6.318E-04 2.168E-04
 
     Adding external electric field

     Computed dipole along edir(3) : 
        Dipole                0.1699 Ry au,          0.4319 Debye
        Dipole field          0.0001 Ry au, 
 
        Potential amp.       -0.0111 Ry
        Total length         54.7057 bohr
 
 
     Adding external electric field

     Computed dipole along edir(3) : 
        Dipole                0.1699 Ry au,          0.4319 Debye
        Dipole field          0.0001 Ry au, 
 
        Potential amp.       -0.0111 Ry
        Total length         54.7057 bohr
 

     total cpu time spent up to now is      852.5 secs

     total energy              =   -8078.59857202 Ry
     estimated scf accuracy    <       0.00009219 Ry

     total magnetization       =    95.81 Bohr mag/cell
     absolute magnetization    =    97.16 Bohr mag/cell

     iteration # 41     ecut=    50.00 Ry     beta= 0.20
     Davidson diagonalization with overlap
     ethr =  8.32E-09,  avg # of iterations =  1.5

     negative rho (up, down):  1.216E-03 6.706E-04
 
     Adding external electric field

     Computed dipole along edir(3) : 
        Dipole                0.1801 Ry au,          0.4577 Debye
        Dipole field          0.0001 Ry au, 
 
        Potential amp.       -0.0118 Ry
        Total length         54.7057 bohr
 
 
     Adding external electric field

     Computed dipole along edir(3) : 
        Dipole                0.1801 Ry au,          0.4577 Debye
        Dipole field          0.0001 Ry au, 
 
        Potential amp.       -0.0118 Ry
        Total length         54.7057 bohr
 

     total cpu time spent up to now is      869.6 secs

     total energy              =   -8078.59857665 Ry
     estimated scf accuracy    <       0.00004996 Ry

     total magnetization       =    95.82 Bohr mag/cell
     absolute magnetization    =    97.16 Bohr mag/cell

     iteration # 42     ecut=    50.00 Ry     beta= 0.20
     Davidson diagonalization with overlap
     ethr =  4.51E-09,  avg # of iterations =  1.5

     negative rho (up, down):  1.216E-03 6.594E-04
 
     Adding external electric field

     Computed dipole along edir(3) : 
        Dipole                0.1793 Ry au,          0.4558 Debye
        Dipole field          0.0001 Ry au, 
 
        Potential amp.       -0.0118 Ry
        Total length         54.7057 bohr
 
 
     Adding external electric field

     Computed dipole along edir(3) : 
        Dipole                0.1793 Ry au,          0.4558 Debye
        Dipole field          0.0001 Ry au, 
 
        Potential amp.       -0.0118 Ry
        Total length         54.7057 bohr
 

     total cpu time spent up to now is      886.7 secs

     total energy              =   -8078.59857818 Ry
     estimated scf accuracy    <       0.00005971 Ry

     total magnetization       =    95.81 Bohr mag/cell
     absolute magnetization    =    97.15 Bohr mag/cell

     iteration # 43     ecut=    50.00 Ry     beta= 0.20
     Davidson diagonalization with overlap
     ethr =  4.51E-09,  avg # of iterations =  1.5

     negative rho (up, down):  1.172E-03 6.260E-04
 
     Adding external electric field

     Computed dipole along edir(3) : 
        Dipole                0.1792 Ry au,          0.4556 Debye
        Dipole field          0.0001 Ry au, 
 
        Potential amp.       -0.0118 Ry
        Total length         54.7057 bohr
 
 
     Adding external electric field

     Computed dipole along edir(3) : 
        Dipole                0.1792 Ry au,          0.4556 Debye
        Dipole field          0.0001 Ry au, 
 
        Potential amp.       -0.0118 Ry
        Total length         54.7057 bohr
 

     total cpu time spent up to now is      904.5 secs

     total energy              =   -8078.59857940 Ry
     estimated scf accuracy    <       0.00002790 Ry

     total magnetization       =    95.81 Bohr mag/cell
     absolute magnetization    =    97.15 Bohr mag/cell

     iteration # 44     ecut=    50.00 Ry     beta= 0.20
     Davidson diagonalization with overlap
     ethr =  2.52E-09,  avg # of iterations =  1.0

     negative rho (up, down):  1.223E-03 7.226E-04
 
     Adding external electric field

     Computed dipole along edir(3) : 
        Dipole                0.1794 Ry au,          0.4561 Debye
        Dipole field          0.0001 Ry au, 
 
        Potential amp.       -0.0118 Ry
        Total length         54.7057 bohr
 
 
     Adding external electric field

     Computed dipole along edir(3) : 
        Dipole                0.1794 Ry au,          0.4561 Debye
        Dipole field          0.0001 Ry au, 
 
        Potential amp.       -0.0118 Ry
        Total length         54.7057 bohr
 

     total cpu time spent up to now is      921.0 secs

     total energy              =   -8078.59857976 Ry
     estimated scf accuracy    <       0.00001223 Ry

     total magnetization       =    95.81 Bohr mag/cell
     absolute magnetization    =    97.16 Bohr mag/cell

     iteration # 45     ecut=    50.00 Ry     beta= 0.20
     Davidson diagonalization with overlap
     ethr =  1.10E-09,  avg # of iterations =  1.5

     negative rho (up, down):  1.333E-03 8.509E-04
 
     Adding external electric field

     Computed dipole along edir(3) : 
        Dipole                0.1811 Ry au,          0.4604 Debye
        Dipole field          0.0001 Ry au, 
 
        Potential amp.       -0.0119 Ry
        Total length         54.7057 bohr
 
 
     Adding external electric field

     Computed dipole along edir(3) : 
        Dipole                0.1811 Ry au,          0.4604 Debye
        Dipole field          0.0001 Ry au, 
 
        Potential amp.       -0.0119 Ry
        Total length         54.7057 bohr
 

     total cpu time spent up to now is      938.5 secs

     total energy              =   -8078.59858040 Ry
     estimated scf accuracy    <       0.00000620 Ry

     total magnetization       =    95.81 Bohr mag/cell
     absolute magnetization    =    97.16 Bohr mag/cell

     iteration # 46     ecut=    50.00 Ry     beta= 0.20
     Davidson diagonalization with overlap
     ethr =  5.60E-10,  avg # of iterations =  2.0

     negative rho (up, down):  1.309E-03 8.324E-04
 
     Adding external electric field

     Computed dipole along edir(3) : 
        Dipole                0.1802 Ry au,          0.4579 Debye
        Dipole field          0.0001 Ry au, 
 
        Potential amp.       -0.0118 Ry
        Total length         54.7057 bohr
 
 
     Adding external electric field

     Computed dipole along edir(3) : 
        Dipole                0.1802 Ry au,          0.4579 Debye
        Dipole field          0.0001 Ry au, 
 
        Potential amp.       -0.0118 Ry
        Total length         54.7057 bohr
 

     total cpu time spent up to now is      957.6 secs

     total energy              =   -8078.59858008 Ry
     estimated scf accuracy    <       0.00000293 Ry

     total magnetization       =    95.80 Bohr mag/cell
     absolute magnetization    =    97.16 Bohr mag/cell

     iteration # 47     ecut=    50.00 Ry     beta= 0.20
     Davidson diagonalization with overlap
     ethr =  2.65E-10,  avg # of iterations =  6.0

     negative rho (up, down):  1.288E-03 7.871E-04
 
     Adding external electric field

     Computed dipole along edir(3) : 
        Dipole                0.1802 Ry au,          0.4581 Debye
        Dipole field          0.0001 Ry au, 
 
        Potential amp.       -0.0118 Ry
        Total length         54.7057 bohr
 
 
     Adding external electric field

     Computed dipole along edir(3) : 
        Dipole                0.1802 Ry au,          0.4581 Debye
        Dipole field          0.0001 Ry au, 
 
        Potential amp.       -0.0118 Ry
        Total length         54.7057 bohr
 

     total cpu time spent up to now is      978.7 secs

     total energy              =   -8078.59858013 Ry
     estimated scf accuracy    <       0.00000185 Ry

     total magnetization       =    95.81 Bohr mag/cell
     absolute magnetization    =    97.16 Bohr mag/cell

     iteration # 48     ecut=    50.00 Ry     beta= 0.20
     Davidson diagonalization with overlap
     ethr =  1.67E-10,  avg # of iterations =  1.5

     negative rho (up, down):  1.312E-03 8.028E-04
 
     Adding external electric field

     Computed dipole along edir(3) : 
        Dipole                0.1814 Ry au,          0.4612 Debye
        Dipole field          0.0001 Ry au, 
 
        Potential amp.       -0.0119 Ry
        Total length         54.7057 bohr
 
 
     Adding external electric field

     Computed dipole along edir(3) : 
        Dipole                0.1814 Ry au,          0.4612 Debye
        Dipole field          0.0001 Ry au, 
 
        Potential amp.       -0.0119 Ry
        Total length         54.7057 bohr
 

     total cpu time spent up to now is      996.4 secs

     total energy              =   -8078.59858033 Ry
     estimated scf accuracy    <       0.00000176 Ry

     total magnetization       =    95.81 Bohr mag/cell
     absolute magnetization    =    97.16 Bohr mag/cell

     iteration # 49     ecut=    50.00 Ry     beta= 0.20
     Davidson diagonalization with overlap
     ethr =  1.59E-10,  avg # of iterations =  1.5

     negative rho (up, down):  1.160E-03 6.321E-04
 
     Adding external electric field

     Computed dipole along edir(3) : 
        Dipole                0.1899 Ry au,          0.4827 Debye
        Dipole field          0.0001 Ry au, 
 
        Potential amp.       -0.0125 Ry
        Total length         54.7057 bohr
 
 
     Adding external electric field

     Computed dipole along edir(3) : 
        Dipole                0.1899 Ry au,          0.4827 Debye
        Dipole field          0.0001 Ry au, 
 
        Potential amp.       -0.0125 Ry
        Total length         54.7057 bohr
 
 
     Magnetic moment per site  (integrated on atomic sphere of radius R)
     atom   1 (R=0.087)  charge=  7.5316  magn=  1.4841
     atom   2 (R=0.087)  charge=  7.5042  magn=  1.5815
     atom   3 (R=0.077)  charge= 11.4514  magn=  3.6115
     atom   4 (R=0.087)  charge=  7.5049  magn=  1.5584
     atom   5 (R=0.087)  charge=  7.5275  magn=  1.5354
     atom   6 (R=0.087)  charge=  7.5248  magn=  1.5388
     atom   7 (R=0.087)  charge=  7.5280  magn=  1.4830
     atom   8 (R=0.077)  charge= 11.4551  magn=  3.6156
     atom   9 (R=0.077)  charge= 11.3785  magn=  3.0550
     atom  10 (R=0.087)  charge=  7.5025  magn=  1.5763
     atom  11 (R=0.087)  charge=  7.5277  magn=  1.5332
     atom  12 (R=0.087)  charge=  7.5186  magn=  1.5477
     atom  13 (R=0.066)  charge=  0.8139  magn=  0.0062
     atom  14 (R=0.066)  charge=  0.8104  magn=  0.0047
     atom  15 (R=0.066)  charge=  0.8150  magn=  0.0065
     atom  16 (R=0.066)  charge=  0.8167  magn=  0.0087
     atom  17 (R=0.043)  charge=  1.9687  magn=  0.0648
     atom  18 (R=0.043)  charge=  1.9622  magn=  0.0992
     atom  19 (R=0.043)  charge=  1.9619  magn=  0.0468
     atom  20 (R=0.043)  charge=  1.9688  magn=  0.0592
     atom  21 (R=0.043)  charge=  1.9729  magn=  0.0451
     atom  22 (R=0.043)  charge=  1.9632  magn=  0.0410
     atom  23 (R=0.043)  charge=  1.9653  magn=  0.0353
     atom  24 (R=0.043)  charge=  1.9771  magn=  0.0448
     atom  25 (R=0.043)  charge=  1.9728  magn=  0.0406
     atom  26 (R=0.043)  charge=  1.9684  magn=  0.0462
     atom  27 (R=0.043)  charge=  1.9693  magn=  0.0477
     atom  28 (R=0.043)  charge=  1.9721  magn=  0.0355
     atom  29 (R=0.043)  charge=  1.9682  magn=  0.0481
     atom  30 (R=0.043)  charge=  1.9704  magn=  0.0490
     atom  31 (R=0.043)  charge=  1.9700  magn=  0.0549
     atom  32 (R=0.043)  charge=  1.9712  magn=  0.0465
     atom  33 (R=0.066)  charge=  0.8130  magn=  0.0065
     atom  34 (R=0.066)  charge=  0.8128  magn=  0.0061
     atom  35 (R=0.066)  charge=  0.8141  magn=  0.0066
     atom  36 (R=0.066)  charge=  0.8143  magn=  0.0069
     atom  37 (R=0.043)  charge=  1.9647  magn=  0.0786
     atom  38 (R=0.043)  charge=  1.9678  magn=  0.0775
     atom  39 (R=0.043)  charge=  1.9675  magn=  0.0714
     atom  40 (R=0.043)  charge=  1.9671  magn=  0.0674
     atom  41 (R=0.043)  charge=  1.9705  magn=  0.0533
     atom  42 (R=0.043)  charge=  1.9618  magn=  0.0396
     atom  43 (R=0.043)  charge=  1.9714  magn=  0.0310
     atom  44 (R=0.043)  charge=  1.9768  magn=  0.0459
     atom  45 (R=0.043)  charge=  1.9672  magn=  0.0588
     atom  46 (R=0.043)  charge=  1.9684  magn=  0.0480
     atom  47 (R=0.043)  charge=  1.9709  magn=  0.0452
     atom  48 (R=0.043)  charge=  1.9718  magn=  0.0346
     atom  49 (R=0.043)  charge=  1.9698  magn=  0.0477
     atom  50 (R=0.043)  charge=  1.9708  magn=  0.0445
     atom  51 (R=0.043)  charge=  1.9693  magn=  0.0542
     atom  52 (R=0.043)  charge=  1.9732  magn=  0.0361
     atom  53 (R=0.087)  charge=  7.5048  magn=  1.5793
     atom  54 (R=0.087)  charge=  7.5035  magn=  1.5766
     atom  55 (R=0.077)  charge= 11.4621  magn=  3.6403
     atom  56 (R=0.087)  charge=  7.5045  magn=  1.5729
     atom  57 (R=0.087)  charge=  7.5278  magn=  1.5475
     atom  58 (R=0.087)  charge=  7.5243  magn=  1.5381
     atom  59 (R=0.087)  charge=  7.5071  magn=  1.5743
     atom  60 (R=0.077)  charge= 11.4587  magn=  3.6184
     atom  61 (R=0.077)  charge= 11.4685  magn=  3.6595
     atom  62 (R=0.087)  charge=  7.5029  magn=  1.5698
     atom  63 (R=0.087)  charge=  7.5319  magn=  1.5484
     atom  64 (R=0.087)  charge=  7.5265  magn=  1.5393
     atom  65 (R=0.066)  charge=  0.8142  magn=  0.0066
     atom  66 (R=0.066)  charge=  0.8138  magn=  0.0064
     atom  67 (R=0.066)  charge=  0.8152  magn=  0.0075
     atom  68 (R=0.066)  charge=  0.8169  magn=  0.0088
     atom  69 (R=0.043)  charge=  1.9689  magn=  0.0682
     atom  70 (R=0.043)  charge=  1.9634  magn=  0.0795
     atom  71 (R=0.043)  charge=  1.9677  magn=  0.0678
     atom  72 (R=0.043)  charge=  1.9707  magn=  0.0627
     atom  73 (R=0.043)  charge=  1.9743  magn=  0.0468
     atom  74 (R=0.043)  charge=  1.9708  magn=  0.0526
     atom  75 (R=0.043)  charge=  1.9733  magn=  0.0459
     atom  76 (R=0.043)  charge=  1.9767  magn=  0.0456
     atom  77 (R=0.043)  charge=  1.9736  magn=  0.0423
     atom  78 (R=0.043)  charge=  1.9697  magn=  0.0549
     atom  79 (R=0.043)  charge=  1.9701  magn=  0.0467
     atom  80 (R=0.043)  charge=  1.9739  magn=  0.0373
     atom  81 (R=0.043)  charge=  1.9701  magn=  0.0463
     atom  82 (R=0.043)  charge=  1.9745  magn=  0.0465
     atom  83 (R=0.043)  charge=  1.9703  magn=  0.0571
     atom  84 (R=0.043)  charge=  1.9714  magn=  0.0483
     atom  85 (R=0.066)  charge=  0.8126  magn=  0.0068
     atom  86 (R=0.066)  charge=  0.8179  magn=  0.0088
     atom  87 (R=0.066)  charge=  0.8158  magn=  0.0072
     atom  88 (R=0.066)  charge=  0.8155  magn=  0.0077
     atom  89 (R=0.043)  charge=  1.9643  magn=  0.0795
     atom  90 (R=0.043)  charge=  1.9706  magn=  0.0630
     atom  91 (R=0.043)  charge=  1.9682  magn=  0.0675
     atom  92 (R=0.043)  charge=  1.9694  magn=  0.0663
     atom  93 (R=0.043)  charge=  1.9705  magn=  0.0553
     atom  94 (R=0.043)  charge=  1.9770  magn=  0.0456
     atom  95 (R=0.043)  charge=  1.9725  magn=  0.0458
     atom  96 (R=0.043)  charge=  1.9779  magn=  0.0452
     atom  97 (R=0.043)  charge=  1.9700  magn=  0.0552
     atom  98 (R=0.043)  charge=  1.9694  magn=  0.0537
     atom  99 (R=0.043)  charge=  1.9700  magn=  0.0463
     atom 100 (R=0.043)  charge=  1.9742  magn=  0.0377
     atom 101 (R=0.043)  charge=  1.9707  magn=  0.0486
     atom 102 (R=0.043)  charge=  1.9735  magn=  0.0437
     atom 103 (R=0.043)  charge=  1.9689  magn=  0.0543
     atom 104 (R=0.043)  charge=  1.9742  magn=  0.0370
     atom 105 (R=0.087)  charge=  7.5036  magn=  1.5789
     atom 106 (R=0.087)  charge=  7.5221  magn=  1.4577
     atom 107 (R=0.077)  charge= 11.4523  magn=  3.6095
     atom 108 (R=0.087)  charge=  7.5165  magn=  1.4739
     atom 109 (R=0.087)  charge=  7.5286  magn=  1.5384
     atom 110 (R=0.087)  charge=  7.5221  magn=  1.5376
     atom 111 (R=0.087)  charge=  7.5061  magn=  1.5714
     atom 112 (R=0.077)  charge= 11.4464  magn=  3.6189
     atom 113 (R=0.077)  charge= 11.4576  magn=  3.6277
     atom 114 (R=0.087)  charge=  7.5167  magn=  1.4663
     atom 115 (R=0.087)  charge=  7.5314  magn=  1.5363
     atom 116 (R=0.087)  charge=  7.5241  magn=  1.5391
     atom 117 (R=0.066)  charge=  0.8165  magn=  0.0045
     atom 118 (R=0.066)  charge=  0.8134  magn=  0.0065
     atom 119 (R=0.066)  charge=  0.8148  magn=  0.0075
     atom 120 (R=0.066)  charge=  0.8202  magn=  0.0044
     atom 121 (R=0.043)  charge=  1.9672  magn=  0.0735
     atom 122 (R=0.043)  charge=  1.9634  magn=  0.0765
     atom 123 (R=0.043)  charge=  1.9673  magn=  0.0636
     atom 124 (R=0.043)  charge=  1.9687  magn=  0.0710
     atom 125 (R=0.043)  charge=  1.9593  magn=  0.0346
     atom 126 (R=0.043)  charge=  1.9712  magn=  0.0525
     atom 127 (R=0.043)  charge=  1.9732  magn=  0.0453
     atom 128 (R=0.043)  charge=  1.9593  magn=  0.0431
     atom 129 (R=0.043)  charge=  1.9726  magn=  0.0411
     atom 130 (R=0.043)  charge=  1.9710  magn=  0.0528
     atom 131 (R=0.043)  charge=  1.9686  magn=  0.0483
     atom 132 (R=0.043)  charge=  1.9751  magn=  0.0353
     atom 133 (R=0.043)  charge=  1.9702  magn=  0.0448
     atom 134 (R=0.043)  charge=  1.9722  magn=  0.0445
     atom 135 (R=0.043)  charge=  1.9673  magn=  0.0523
     atom 136 (R=0.043)  charge=  1.9715  magn=  0.0449
     atom 137 (R=0.066)  charge=  0.8165  magn=  0.0038
     atom 138 (R=0.066)  charge=  0.8170  magn=  0.0089
     atom 139 (R=0.066)  charge=  0.8149  magn=  0.0072
     atom 140 (R=0.066)  charge=  0.8182  magn=  0.0033
     atom 141 (R=0.043)  charge=  1.9668  magn=  0.0897
     atom 142 (R=0.043)  charge=  1.9701  magn=  0.0608
     atom 143 (R=0.043)  charge=  1.9663  magn=  0.0630
     atom 144 (R=0.043)  charge=  1.9705  magn=  0.0761
     atom 145 (R=0.043)  charge=  1.9559  magn=  0.0457
     atom 146 (R=0.043)  charge=  1.9788  magn=  0.0440
     atom 147 (R=0.043)  charge=  1.9736  magn=  0.0443
     atom 148 (R=0.043)  charge=  1.9564  magn=  0.0452
     atom 149 (R=0.043)  charge=  1.9677  magn=  0.0524
     atom 150 (R=0.043)  charge=  1.9715  magn=  0.0520
     atom 151 (R=0.043)  charge=  1.9679  magn=  0.0476
     atom 152 (R=0.043)  charge=  1.9753  magn=  0.0354
     atom 153 (R=0.043)  charge=  1.9715  magn=  0.0478
     atom 154 (R=0.043)  charge=  1.9739  magn=  0.0413
     atom 155 (R=0.043)  charge=  1.9687  magn=  0.0496
     atom 156 (R=0.043)  charge=  1.9738  magn=  0.0372
     atom 157 (R=0.043)  charge=  1.9631  magn=  0.0268
     atom 158 (R=0.043)  charge=  0.3924  magn=  0.0070

[...]
    -6.0192  -6.0117  -5.9972  -5.9574  -5.9293  -5.9206  -5.9009  -5.8831
    -5.8784  -5.8518  -5.8238  -5.7996  -5.7892  -5.7672  -5.7536  -5.7374
    -5.7100  -5.7035  -5.6668  -5.6456  -5.6283  -5.6135  -5.6008  -5.5722
    -5.5610  -5.5483  -5.5314  -5.5060  -5.5021  -5.4901  -5.4618  -5.4223
    -5.4099  -5.3876  -5.3364  -5.3188  -5.2717  -5.2360  -5.2124  -5.2059
    -5.2012  -5.1947  -5.1380  -5.1062  -5.0300  -4.9944  -4.9826  -4.9520
    -4.9452  -4.9297  -4.8901  -4.8340  -4.8271  -4.7646  -4.7508  -4.7415
    -4.7176  -4.6850  -4.6318  -4.6140  -4.5961  -4.5362  -4.4897  -4.4458
    -4.4255  -4.4035  -4.3893  -4.3624  -4.3258  -4.2962  -4.2677  -4.2192
    -4.1656  -4.1507  -4.1327  -4.1005  -4.0904  -4.0622  -4.0330  -3.9941
    -3.9291  -3.9038  -3.8918  -3.8535  -3.8328  -3.8041  -3.7836  -3.7754
    -3.7460  -3.7360  -3.7140  -3.6474  -3.6360  -3.6243  -3.6208  -3.6083
    -3.5999  -3.5777  -3.5440  -3.5367  -3.5331  -3.5164  -3.5085  -3.4743
    -3.4639  -3.4471  -3.4356  -3.4198  -3.3629  -3.3592  -3.3494  -3.3359
    -3.3271  -3.3181  -3.3000  -3.2804  -3.2534  -3.2337  -3.2227  -3.2174
    -3.1581  -3.1501  -3.1038  -3.0779  -3.0551  -3.0486  -3.0338  -3.0312
    -3.0166  -3.0002  -2.9618  -2.9371  -2.9205  -2.8973  -2.8787  -2.8541
    -2.8365  -2.8346  -2.7540  -2.7461  -2.7311  -2.7209  -2.7142  -2.7038
    -2.6891  -2.6744  -2.6658  -2.6546  -2.6343  -2.6273  -2.6259  -2.6110
    -2.5980  -2.5824  -2.5666  -2.5538  -2.5301  -2.5277  -2.5185  -2.5106
    -2.4643  -2.4600  -2.4394  -2.4196  -2.3855  -2.3703  -2.3567  -2.3464
    -2.3200  -2.3165  -2.3035  -2.2892  -2.2707  -2.2442  -2.2407  -2.2188
    -2.2046  -2.1582  -2.1436  -2.1371  -2.1254  -2.1033  -2.0837  -2.0768
    -2.0695  -2.0239  -2.0103  -1.9895  -1.9672  -1.9606  -1.9406  -1.9148
    -1.9051  -1.8942  -1.8830  -1.8699  -1.8603  -1.8313  -1.8216  -1.8001
    -1.7730  -1.7608  -1.7476  -1.7337  -1.7232  -1.6859  -1.6553  -1.6336
    -1.6244  -1.6117  -1.5972  -1.5512  -1.5455  -1.5281  -1.5007  -1.4818
    -1.4712  -1.4469  -1.4325  -1.4131  -1.4014  -1.3877  -1.3718  -1.3464
    -1.3314  -1.3206  -1.3129  -1.2652  -1.2532  -1.2120  -1.1798  -1.1682
    -1.1514  -1.1415  -1.1094  -1.0360  -0.9738  -0.8565  -0.8519  -0.8013
    -0.7988  -0.7021  -0.6803  -0.5520  -0.5181  -0.3696  -0.3076  -0.2063
     0.1498   0.1619   0.2059   0.2209   0.2327   0.2452   0.2650   0.2698
     0.3023   0.3100   0.3311   0.3375   0.3607   0.3670   0.3752   0.3788
     0.3813   0.3833   0.3896   0.4079   0.4101   0.4150   0.4269   0.4348
     0.4408   0.4451   0.4562   0.4634   0.4703   0.4812   0.4852   0.5000
     0.5030   0.5183   0.5189   0.5443   0.5467   0.5516   0.5541   0.5557
     0.5750   0.5816   0.5997   0.6053   0.6141   0.6271   0.6319   0.6343
     0.6516   0.6629   0.6657   0.6775   0.6834   0.6982   0.6998   0.7092
     0.7252   0.7393   0.7481   0.7611   0.7628   0.7706   0.7779   0.7921
     0.7959   0.8010   0.8128   0.8330   0.8430   0.8464   0.8557   0.8787
     0.9124   0.9638   0.9738   0.9757   1.0050   1.0330   1.0721   1.1380
     1.1884   1.7386   1.7472   1.7572   1.7617   1.7835   1.7888   1.8085
     1.8308   1.8516   1.8712   1.9064   1.9139   1.9321   1.9370   1.9854
     2.0223   2.0399   2.0534   2.0588   2.0748   2.0846   2.1179   2.1364
     2.1413   2.1538   2.1730   2.2037   2.2371   2.2404   2.2616   2.2739
     2.2962   2.3057   2.3082   2.3166   2.3246   2.3463   2.3556   2.3798
     2.3871   2.4068   2.4304   2.4702   2.4894   2.5044   2.5266   2.5750
     2.6131   2.6161   2.7272   2.7502   2.8071   2.8238   2.8635   3.3162
     3.5059   3.6041   3.6699   3.6895   3.7137   3.7596   3.8592   3.8917
     3.9135   3.9195   3.9364   3.9581   3.9677   3.9790   4.0298   4.0502
     4.0604   4.0841   4.1196   4.1355   4.1426   4.1861   4.1966   4.2174
     4.2228   4.2312   4.2542   4.2953   4.3806   4.4490   4.5696   4.7494
     4.7567   4.7893   4.8542   4.8638   4.9372   4.9614   5.0348   5.0400
     5.0818   5.0940   5.1284   5.1555   5.1913   5.2098   5.3388   6.1704
     6.3094   6.4091   6.4992   6.6360   6.6616   6.6769   6.7994   6.8210
     6.9261   6.9467   6.9669   7.0104   7.1953   7.2364   7.3208   7.3346
     7.3627   7.4584   7.4774   7.5192   7.5312   7.6198   7.6286   7.7221
     7.7844   7.7997   7.8770   7.9035   7.9180   7.9572   7.9809   8.0012
     8.0418   8.0597   8.1000   8.1307   8.1500   8.2118   8.2215   8.2464
     8.2762   8.2974   8.3323   8.3490   8.3758   8.3989   8.4103   8.4179
     8.4238   8.4696   8.5154   8.5245   8.5339   8.5700   8.5805   8.6023
     8.6110

     the Fermi energy is     1.6636 ev

!    total energy              =   -8078.59857900 Ry
     estimated scf accuracy    <       0.00000098 Ry
     smearing contrib. (-TS)   =      -0.02304324 Ry
     internal energy E=F+TS    =   -8078.57553576 Ry

     The total energy is F=E-TS. E is the sum of the following terms:
     one-electron contribution =  -94668.39825644 Ry
     hartree contribution      =   47917.33480986 Ry
     xc contribution           =   -2177.34156358 Ry
     ewald contribution        =   40851.59844092 Ry
     Dispersion Correction     =      -1.76898813 Ry
     electric field correction =       0.00002162 Ry

     total magnetization       =    95.81 Bohr mag/cell
     absolute magnetization    =    97.16 Bohr mag/cell

     convergence has been achieved in  49 iterations

     negative rho (up, down):  1.160E-03 6.321E-04

     Forces acting on atoms (cartesian axes, Ry/au):

     atom    1 type  1   force =    -0.00014561    0.00005128    0.00026366
     atom    2 type  1   force =    -0.00031480   -0.00049629   -0.00006657
     atom    3 type  2   force =    -0.00043492   -0.00017121    0.00048887
     atom    4 type  1   force =     0.00025339    0.00053395    0.00018597
     atom    5 type  1   force =    -0.00044886   -0.00010469    0.00033011
     atom    6 type  1   force =    -0.00014948   -0.00028652   -0.00004191
     atom    7 type  1   force =     0.00036593    0.00073593    0.00038186
     atom    8 type  2   force =    -0.00043841   -0.00053402   -0.00010188
     atom    9 type  2   force =     0.00017894   -0.00066206    0.00006999
     atom   10 type  1   force =    -0.00059737    0.00042592   -0.00006711
     atom   11 type  1   force =     0.00015873    0.00028705   -0.00010164
     atom   12 type  1   force =    -0.00028525   -0.00005932   -0.00017104
     atom   13 type  3   force =     0.00014662    0.00013590    0.00019730
     atom   14 type  3   force =    -0.00037998    0.00013913   -0.00013809
     atom   15 type  3   force =    -0.00015184   -0.00058032   -0.00086013
     atom   16 type  3   force =    -0.00005296   -0.00012617    0.00002959
     atom   17 type  4   force =    -0.00015282   -0.00024708    0.00014311
     atom   18 type  4   force =     0.00016676    0.00043925   -0.00050807
     atom   19 type  4   force =     0.00019093    0.00029337   -0.00036381
     atom   20 type  4   force =     0.00020182   -0.00002044   -0.00003171
     atom   21 type  4   force =    -0.00000867   -0.00033798   -0.00005311
     atom   22 type  4   force =     0.00003505    0.00052687    0.00032752
     atom   23 type  4   force =    -0.00037477   -0.00011861    0.00021891
     atom   24 type  4   force =    -0.00010404   -0.00019272    0.00001491
     atom   25 type  4   force =    -0.00053779   -0.00023466    0.00009866
     atom   26 type  4   force =     0.00023897    0.00017833   -0.00077661
     atom   27 type  4   force =     0.00000544   -0.00020530    0.00061693
     atom   28 type  4   force =     0.00040672    0.00006138   -0.00011265
     atom   29 type  4   force =     0.00008873   -0.00039602    0.00012792
     atom   30 type  4   force =     0.00026656   -0.00000116    0.00014981
     atom   31 type  4   force =    -0.00032034    0.00030023   -0.00001779
     atom   32 type  4   force =    -0.00052145   -0.00011612   -0.00035649
     atom   33 type  3   force =    -0.00050930    0.00019452    0.00023149
     atom   34 type  3   force =    -0.00022312    0.00028383    0.00027931
     atom   35 type  3   force =     0.00080958   -0.00013215    0.00052134
     atom   36 type  3   force =    -0.00021951   -0.00012690   -0.00007490
     atom   37 type  4   force =    -0.00026484   -0.00029202    0.00001608
     atom   38 type  4   force =    -0.00040743   -0.00024949    0.00024779
     atom   39 type  4   force =    -0.00006273    0.00013824    0.00005556
     atom   40 type  4   force =    -0.00043407    0.00012211    0.00010263
     atom   41 type  4   force =     0.00014528    0.00014233   -0.00015765
     atom   42 type  4   force =    -0.00022647   -0.00007573   -0.00062320
     atom   43 type  4   force =    -0.00025234   -0.00008904   -0.00050600
     atom   44 type  4   force =    -0.00008661   -0.00051797   -0.00017683
     atom   45 type  4   force =    -0.00036345   -0.00047088   -0.00007253
     atom   46 type  4   force =    -0.00038873   -0.00066119   -0.00009176
     atom   47 type  4   force =    -0.00033153    0.00006531   -0.00020858
     atom   48 type  4   force =     0.00037062   -0.00013861   -0.00019697
     atom   49 type  4   force =    -0.00077350   -0.00049110    0.00025518
     atom   50 type  4   force =     0.00008992   -0.00022180   -0.00016300
     atom   51 type  4   force =    -0.00028058    0.00004993   -0.00020293
     atom   52 type  4   force =    -0.00009179   -0.00030368    0.00001933
     atom   53 type  1   force =     0.00092663    0.00100958    0.00047930
     atom   54 type  1   force =     0.00092968    0.00054491   -0.00149808
     atom   55 type  2   force =     0.00158612    0.00116836    0.00519577
     atom   56 type  1   force =    -0.00041964   -0.00088472   -0.00074521
     atom   57 type  1   force =     0.00022211    0.00006336    0.00005965
     atom   58 type  1   force =     0.00023406   -0.00001825    0.00015683
     atom   59 type  1   force =     0.00169775   -0.00037108   -0.00101388
     atom   60 type  2   force =    -0.00014521   -0.00004445   -0.00157299
     atom   61 type  2   force =     0.00083236    0.00143119    0.00467488
     atom   62 type  1   force =    -0.00058630   -0.00056884   -0.00091265
     atom   63 type  1   force =    -0.00018884    0.00030414   -0.00004223
     atom   64 type  1   force =    -0.00000056   -0.00000197    0.00027861
     atom   65 type  3   force =    -0.00020747   -0.00073960   -0.00249972
     atom   66 type  3   force =     0.00021445   -0.00158884    0.00185171
     atom   67 type  3   force =     0.00079934    0.00179431    0.00182837
     atom   68 type  3   force =    -0.00069095    0.00058497   -0.00099022
     atom   69 type  4   force =    -0.00072422    0.00030725    0.00087827
     atom   70 type  4   force =    -0.00033142    0.00010537   -0.00014355
     atom   71 type  4   force =    -0.00017294   -0.00008855   -0.00083289
     atom   72 type  4   force =     0.00017662   -0.00038764    0.00150076
     atom   73 type  4   force =    -0.00081961    0.00064774    0.00186282
     atom   74 type  4   force =     0.00046010   -0.00081626   -0.00021139
     atom   75 type  4   force =    -0.00056440    0.00045015    0.00080651
     atom   76 type  4   force =     0.00003064   -0.00065024    0.00135606
     atom   77 type  4   force =    -0.00043558    0.00001286    0.00071834
     atom   78 type  4   force =     0.00012790   -0.00017440   -0.00071972
     atom   79 type  4   force =     0.00038597    0.00033593    0.00061150
     atom   80 type  4   force =    -0.00002564    0.00077624   -0.00023846
     atom   81 type  4   force =    -0.00000270   -0.00043786   -0.00063408
     atom   82 type  4   force =     0.00078363   -0.00029223   -0.00006351
     atom   83 type  4   force =    -0.00006279    0.00061227    0.00045942
     atom   84 type  4   force =    -0.00056156    0.00017758    0.00065179
     atom   85 type  3   force =    -0.00022964   -0.00092406   -0.00256532
     atom   86 type  3   force =     0.00027354    0.00083194    0.00293401
     atom   87 type  3   force =    -0.00004440    0.00068233    0.00106326
     atom   88 type  3   force =    -0.00080069    0.00083562   -0.00056844
     atom   89 type  4   force =    -0.00011008   -0.00014155    0.00041038
     atom   90 type  4   force =    -0.00023896   -0.00052494   -0.00104486
     atom   91 type  4   force =     0.00035105    0.00014163   -0.00100020
     atom   92 type  4   force =     0.00036312   -0.00036404    0.00102981
     atom   93 type  4   force =    -0.00012296    0.00107543    0.00107439
     atom   94 type  4   force =     0.00100048    0.00116838    0.00162400
     atom   95 type  4   force =    -0.00098536   -0.00048539    0.00084507
     atom   96 type  4   force =    -0.00006175   -0.00037786    0.00111611
     atom   97 type  4   force =    -0.00013371   -0.00057625    0.00076289
     atom   98 type  4   force =    -0.00029658    0.00003343   -0.00042181
     atom   99 type  4   force =     0.00063358   -0.00008679    0.00072807
     atom  100 type  4   force =     0.00055306    0.00030916   -0.00050773
     atom  101 type  4   force =    -0.00070721   -0.00023005   -0.00023284
     atom  102 type  4   force =     0.00149250   -0.00127892    0.00038185
     atom  103 type  4   force =     0.00036394    0.00030510    0.00032272
     atom  104 type  4   force =    -0.00004309   -0.00059023   -0.00010103
     atom  105 type  1   force =    -0.00061175    0.00175693   -0.00661284
     atom  106 type  1   force =     0.02819525    0.01338774    0.02190706
     atom  107 type  2   force =     0.00172549    0.00062746   -0.01032550
     atom  108 type  1   force =    -0.03081167    0.02314948    0.01657415
     atom  109 type  1   force =     0.00398416   -0.00298509   -0.00353192
     atom  110 type  1   force =    -0.00115127   -0.00643202   -0.00552183
     atom  111 type  1   force =    -0.00396137    0.00212143   -0.00589074
     atom  112 type  2   force =     0.03207829    0.01624466   -0.01041381
     atom  113 type  2   force =     0.00152531    0.00140259   -0.00994912
     atom  114 type  1   force =    -0.03186112    0.02432541    0.01747150
     atom  115 type  1   force =     0.00367035   -0.00494420   -0.00450718
     atom  116 type  1   force =    -0.00500972   -0.00795153   -0.00664645
     atom  117 type  3   force =    -0.02900177   -0.03570251   -0.06278822
     atom  118 type  3   force =     0.00317418    0.00035413   -0.00700229
     atom  119 type  3   force =     0.00074600   -0.00063343   -0.00912656
     atom  120 type  3   force =     0.02797659   -0.05775200   -0.08374314
     atom  121 type  4   force =    -0.00657007   -0.00329565    0.03054472
     atom  122 type  4   force =    -0.00142120   -0.00113114    0.00253920
     atom  123 type  4   force =     0.00166055   -0.00090860    0.00475501
     atom  124 type  4   force =     0.00358743    0.00313908    0.03406586
     atom  125 type  4   force =    -0.00226801   -0.00232215    0.03394897
     atom  126 type  4   force =    -0.00085949    0.00068892    0.00303988
     atom  127 type  4   force =     0.00222139    0.00316429    0.00439471
     atom  128 type  4   force =    -0.00312723   -0.00174853    0.02215978
     atom  129 type  4   force =    -0.01246480    0.03645150    0.00493485
     atom  130 type  4   force =    -0.00140962    0.00020945    0.00239567
     atom  131 type  4   force =    -0.01949484    0.00360048    0.00992699
     atom  132 type  4   force =    -0.00122969    0.00353555    0.00435594
     atom  133 type  4   force =    -0.00283316    0.00062797    0.00241896
     atom  134 type  4   force =     0.00147803   -0.00436468    0.00354084
     atom  135 type  4   force =     0.01371980    0.02372405   -0.00096396
     atom  136 type  4   force =     0.01332873   -0.00066725    0.00236504
     atom  137 type  3   force =    -0.03818527   -0.04126037   -0.06620865
     atom  138 type  3   force =     0.00647144   -0.00302692   -0.00144717
     atom  139 type  3   force =     0.00028510   -0.00158518   -0.00946353
     atom  140 type  3   force =     0.02906452   -0.05119313   -0.08330955
     atom  141 type  4   force =    -0.00106837    0.00268106    0.02936002
     atom  142 type  4   force =     0.00043403    0.00237366   -0.00632695
     atom  143 type  4   force =     0.00168965   -0.00077223    0.00417220
     atom  144 type  4   force =     0.00423927    0.00183482    0.03465522
     atom  145 type  4   force =     0.00897407    0.00380729    0.03119127
     atom  146 type  4   force =    -0.00034396    0.00056490    0.00180656
     atom  147 type  4   force =     0.00271986    0.00349910    0.00408271
     atom  148 type  4   force =    -0.00394140   -0.00138346    0.02212317
     atom  149 type  4   force =    -0.00996901    0.03021302    0.00424297
     atom  150 type  4   force =    -0.00186231    0.00029088    0.00283908
     atom  151 type  4   force =    -0.01860876    0.00507290    0.00988536
     atom  152 type  4   force =    -0.00093505    0.00344155    0.00435500
     atom  153 type  4   force =    -0.00129324    0.00026254    0.00297568
     atom  154 type  4   force =     0.00209597   -0.00256956    0.00284445
     atom  155 type  4   force =     0.01468381    0.02470042    0.00011700
     atom  156 type  4   force =     0.02245178   -0.00367905    0.00140856
     atom  157 type  4   force =    -0.00687083    0.00465044   -0.00143871
     atom  158 type  5   force =     0.00647490   -0.00510281    0.00158651

     Total force =     0.237736     Total SCF correction =     0.004792
 
     init_run     :     11.77s CPU     12.43s WALL (       1 calls)
     electrons    :    962.17s CPU    997.10s WALL (       1 calls)
     forces       :      5.68s CPU      6.09s WALL (       1 calls)
     force_london :      0.11s CPU      0.11s WALL (       1 calls)

     Called by init_run:
     wfcinit      :      7.15s CPU      7.38s WALL (       1 calls)
     potinit      :      0.71s CPU      0.87s WALL (       1 calls)
     hinit0       :      1.96s CPU      2.05s WALL (       1 calls)

     Called by electrons:
     c_bands      :    741.33s CPU    759.50s WALL (      49 calls)
     sum_band     :    132.52s CPU    141.05s WALL (      49 calls)
     v_of_rho     :     16.63s CPU     17.81s WALL (      50 calls)
     newd         :     52.65s CPU     59.62s WALL (      50 calls)
     mix_rho      :     18.75s CPU     18.83s WALL (      49 calls)
     energy_londo :      0.10s CPU      0.10s WALL (       1 calls)

     Called by c_bands:
     init_us_2    :      1.67s CPU      1.74s WALL (     200 calls)
     init_us_2:cp :      1.67s CPU      1.74s WALL (     200 calls)
     regterg      :    726.78s CPU    744.74s WALL (      99 calls)

     Called by *egterg:
     rdiaghg      :    181.47s CPU    190.27s WALL (     367 calls)
     h_psi        :    282.43s CPU    286.63s WALL (     369 calls)
     s_psi        :     39.90s CPU     39.96s WALL (     369 calls)
     g_psi        :      0.29s CPU      0.30s WALL (     268 calls)

     Called by h_psi:
     h_psi:calbec :     72.50s CPU     75.77s WALL (     369 calls)
     vloc_psi     :    169.29s CPU    169.82s WALL (     369 calls)
     add_vuspsi   :     40.11s CPU     40.50s WALL (     369 calls)

     General routines
     calbec       :    106.88s CPU    111.83s WALL (     475 calls)
     fft          :     39.85s CPU     41.37s WALL (     913 calls)
     ffts         :     10.08s CPU     10.10s WALL (    6053 calls)
     fftw         :    191.16s CPU    191.73s WALL (  171522 calls)
     interpolate  :      1.41s CPU      1.66s WALL (     100 calls)
 
     Parallel routines
 
     PWSCF        :  16m21.90s CPU  16m58.19s WALL

 
   This run was terminated on:   0:15:58  18Nov2025            

=------------------------------------------------------------------------------=
   JOB DONE.
=------------------------------------------------------------------------------=
