
     Program PWSCF v.7.2 starts on 17Nov2025 at 22:40:24 

     This program is part of the open-source Quantum ESPRESSO suite
     for quantum simulation of materials; please cite
         "P. Giannozzi et al., J. Phys.:Condens. Matter 21 395502 (2009);
         "P. Giannozzi et al., J. Phys.:Condens. Matter 29 465901 (2017);
         "P. Giannozzi et al., J. Chem. Phys. 152 154105 (2020);
          URL http://www.quantum-espresso.org", 
     in publications or presentations arising from this work. More details at
     http://www.quantum-espresso.org/quote

     Parallel version (MPI), running on    64 processors

     MPI processes distributed on     4 nodes
     451296 MiB available memory on the printing compute node when the environment starts
 
     Reading input from PWINPUT_atm157_zm

     Current dimensions of program PWSCF are:
     Max number of different atomic species (ntypx) = 10
     Max number of k-points (npk) =  40000
     Max angular momentum in pseudopotentials (lmaxx) =  4
     Presently no symmetry can be used with electric field

     file Ni.pbe-n-rrkjus_psl.1.0.0.UPF: wavefunction(s)  3D renormalized
     file Mn.pbe-spn-rrkjus_psl.0.3.1.UPF: wavefunction(s)  3D renormalized
     file O.pbe-rrkjus.UPF: wavefunction(s)  2S renormalized
     file H.pbe-rrkjus.UPF: wavefunction(s)  1S renormalized

     gamma-point specific algorithms are used
 
     R & G space division:  proc/nbgrp/npool/nimage =      64
     Subspace diagonalization in iterative solution of the eigenvalue problem:
     one sub-group per band group will be used
     custom distributed-memory algorithm (size of sub-group:  7*  7 procs)

 
     Parallelization info
     --------------------
     sticks:   dense  smooth     PW     G-vecs:    dense   smooth      PW
     Min         214      85     20                61830    15614    1928
     Max         216      86     22                61864    15658    1982
     Sum       13727    5503   1375              3958051  1001255  125211
 
     Using Slab Decomposition
 


     bravais-lattice index     =            0
     lattice parameter (alat)  =      17.8532  a.u.
     unit-cell volume          =   20962.6682 (a.u.)^3
     number of atoms/cell      =          158
     number of atomic types    =            5
     number of electrons       =      1108.00
     number of Kohn-Sham states=          665
     kinetic-energy cutoff     =      50.0000  Ry
     charge density cutoff     =     500.0000  Ry
     scf convergence threshold =      1.0E-06
     mixing beta               =       0.2000
     number of iterations used =            8  local-TF  mixing
     Exchange-correlation=  SLA  PW   PBE  PBE
                           (   1   4   3   4   0   0   0)

     celldm(1)=  17.853155  celldm(2)=   0.000000  celldm(3)=   0.000000
     celldm(4)=   0.000000  celldm(5)=   0.000000  celldm(6)=   0.000000

     crystal axes: (cart. coord. in units of alat)
               a(1) = (   1.000000   0.000000   0.000000 )  
               a(2) = (   0.003237   1.081997   0.000000 )  
               a(3) = (   0.000000   0.000000   3.404673 )  

     reciprocal axes: (cart. coord. in units 2 pi/alat)
               b(1) = (  1.000000 -0.002992  0.000000 )  
               b(2) = (  0.000000  0.924217  0.000000 )  
               b(3) = (  0.000000  0.000000  0.293714 )  


     PseudoPot. # 1 for Ni read from file:
     ~/PSEUDO/Ni.pbe-n-rrkjus_psl.1.0.0.UPF
     MD5 check sum: Not computed, couldn't open file
     Pseudo is Ultrasoft + core correction, Zval = 10.0
     Generated using "atomic" code by A. Dal Corso  v.5.1.2
     Using radial grid of 1195 points,  6 beta functions with: 
                l(1) =   0
                l(2) =   0
                l(3) =   1
                l(4) =   1
                l(5) =   2
                l(6) =   2
     Q(r) pseudized with 0 coefficients 


     PseudoPot. # 2 for Mn read from file:
     ~/PSEUDO/Mn.pbe-spn-rrkjus_psl.0.3.1.UPF
     MD5 check sum: Not computed, couldn't open file
     Pseudo is Ultrasoft + core correction, Zval = 15.0
     Generated using &quot;atomic&quot; code by A. Dal Corso  v.6.2.2
     Using radial grid of 1187 points,  6 beta functions with: 
                l(1) =   0
                l(2) =   0
                l(3) =   1
                l(4) =   1
                l(5) =   2
                l(6) =   2
     Q(r) pseudized with 0 coefficients 


     PseudoPot. # 3 for P  read from file:
     ~/PSEUDO/P.pbe-n-rrkjus_psl.1.0.0.UPF
     MD5 check sum: Not computed, couldn't open file
     Pseudo is Ultrasoft + core correction, Zval =  5.0
     Generated using "atomic" code by A. Dal Corso  v.5.1
     Using radial grid of 1147 points,  6 beta functions with: 
                l(1) =   0
                l(2) =   0
                l(3) =   1
                l(4) =   1
                l(5) =   2
                l(6) =   2
     Q(r) pseudized with 0 coefficients 


     PseudoPot. # 4 for O  read from file:
     ~/PSEUDO/O.pbe-rrkjus.UPF
     MD5 check sum: Not computed, couldn't open file
     Pseudo is Ultrasoft, Zval =  6.0
     Generated by new atomic code, or converted to UPF format
     Using radial grid of 1269 points,  4 beta functions with: 
                l(1) =   0
                l(2) =   0
                l(3) =   1
                l(4) =   1
     Q(r) pseudized with 0 coefficients 


     PseudoPot. # 5 for H  read from file:
     ~/PSEUDO/H.pbe-rrkjus.UPF
     MD5 check sum: Not computed, couldn't open file
     Pseudo is Ultrasoft, Zval =  1.0
     Generated by new atomic code, or converted to UPF format
     Using radial grid of 1061 points,  2 beta functions with: 
                l(1) =   0
                l(2) =   0
     Q(r) pseudized with 0 coefficients 


     atomic species   valence    mass     pseudopotential
     Ni               10.00    58.69300     Ni( 1.00)
     Mn               15.00    54.93800     Mn( 1.00)
     P                 5.00    30.97300     P ( 1.00)
     O                 6.00    15.99900     O ( 1.00)
     H                 1.00     1.00790     H ( 1.00)

     Starting magnetic structure 
     atomic species   magnetization
     Ni              1.000
     Mn              1.000
     P               1.000
     O               1.000
     H               0.000

     No symmetry found



   Cartesian axes

     site n.     atom                  positions (alat units)
         1        Ni     tau(   1) = (   0.2543225   0.8313870   1.6793668  )
         2        Ni     tau(   2) = (   0.4936098   0.7712751   1.3753531  )
         3        Mn     tau(   3) = (   0.0006860   0.2911226   1.7027072  )
         4        Ni     tau(   4) = (   0.2606585   0.2273372   1.3798175  )
         5        Ni     tau(   5) = (   0.9994008   1.0715220   1.5369837  )
         6        Ni     tau(   6) = (   0.2545729   0.5328500   1.5373447  )
         7        Ni     tau(   7) = (   0.7507737   0.8282717   1.6811415  )
         8        Mn     tau(   8) = (   0.9883889   0.7675371   1.3725924  )
         9        Mn     tau(   9) = (   0.4980977   0.2903973   1.7090653  )
        10        Ni     tau(  10) = (   0.7545187   0.2253996   1.3777585  )
        11        Ni     tau(  11) = (   0.4976426   1.0726516   1.5389427  )
        12        Ni     tau(  12) = (   0.7528337   0.5277877   1.5449104  )
        13        P      tau(  13) = (   0.2132289   0.9703461   1.3797005  )
        14        P      tau(  14) = (   0.4643593   0.6442400   1.6938346  )
        15        P      tau(  15) = (   0.2841587   0.0960848   1.7008509  )
        16        P      tau(  16) = (   0.0411047   0.4212367   1.3873316  )
        17        O      tau(  17) = (   0.1349283   0.9013560   1.5143976  )
        18        O      tau(  18) = (   0.3861291   0.7042380   1.5488927  )
        19        O      tau(  19) = (   0.3656599   0.1691817   1.5650371  )
        20        O      tau(  20) = (   0.1200799   0.3555271   1.5222191  )
        21        O      tau(  21) = (   0.1532998   0.8826075   1.2547996  )
        22        O      tau(  22) = (   0.4047365   0.7410193   1.8076950  )
        23        O      tau(  23) = (   0.3388828   0.1871954   1.8224511  )
        24        O      tau(  24) = (   0.0996136   0.3313027   1.2636839  )
        25        O      tau(  25) = (   0.0982475   0.5756432   1.3839303  )
        26        O      tau(  26) = (   0.3445548   1.0232506   1.6933208  )
        27        O      tau(  27) = (   0.3791300   0.4168042   1.3928156  )
        28        O      tau(  28) = (   0.1208947   0.1012566   1.6847757  )
        29        O      tau(  29) = (   0.1298687   0.6510170   1.6821372  )
        30        O      tau(  30) = (   0.4048797   0.4885295   1.6889145  )
        31        O      tau(  31) = (   0.1516361   0.0428342   1.3845433  )
        32        O      tau(  32) = (   0.3759308   0.9628073   1.3915760  )
        33        P      tau(  33) = (   0.7066777   0.9681768   1.3784026  )
        34        P      tau(  34) = (   0.9665573   0.6462099   1.7021029  )
        35        P      tau(  35) = (   0.7834317   0.0914400   1.6930753  )
        36        P      tau(  36) = (   0.5424223   0.4259167   1.3855585  )
        37        O      tau(  37) = (   0.6302223   0.8970607   1.5136635  )
        38        O      tau(  38) = (   0.8856905   0.6990046   1.5578663  )
        39        O      tau(  39) = (   0.8594036   0.1560940   1.5527589  )
        40        O      tau(  40) = (   0.6188906   0.3547386   1.5195219  )
        41        O      tau(  41) = (   0.6482905   0.8785231   1.2537859  )
        42        O      tau(  42) = (   0.9062711   0.7448203   1.8139613  )
        43        O      tau(  43) = (   0.8424157   0.1845535   1.8127077  )
        44        O      tau(  44) = (   0.6030560   0.3374862   1.2610477  )
        45        O      tau(  45) = (   0.6002319   0.5801662   1.3862498  )
        46        O      tau(  46) = (   0.8431552   1.0184616   1.6925684  )
        47        O      tau(  47) = (   0.8783423   0.4135099   1.3998625  )
        48        O      tau(  48) = (   0.6197718   0.0991933   1.6835405  )
        49        O      tau(  49) = (   0.6280075   0.6476069   1.6801066  )
        50        O      tau(  50) = (   0.9149851   0.4882065   1.7072857  )
        51        O      tau(  51) = (   0.6437954   0.0399516   1.3816221  )
        52        O      tau(  52) = (   0.8694028   0.9616471   1.3910153  )
        53        Ni     tau(  53) = (   0.2420320   0.8169913   1.0699082  )
        54        Ni     tau(  54) = (   0.4893084   0.7542727   0.7477128  )
        55        Mn     tau(  55) = (   0.0085152   0.2729728   1.0755565  )
        56        Ni     tau(  56) = (   0.2558246   0.2079345   0.7498450  )
        57        Ni     tau(  57) = (   0.9991959   1.0516583   0.9080455  )
        58        Ni     tau(  58) = (   0.2490231   0.5149840   0.9092594  )
        59        Ni     tau(  59) = (   0.7373131   0.8159965   1.0690453  )
        60        Mn     tau(  60) = (   0.9859093   0.7511625   0.7423903  )
        61        Mn     tau(  61) = (   0.5085552   0.2755447   1.0757185  )
        62        Ni     tau(  62) = (   0.7532989   0.2074622   0.7493279  )
        63        Ni     tau(  63) = (   0.4981517   1.0523018   0.9093468  )
        64        Ni     tau(  64) = (   0.7469109   0.5147379   0.9081681  )
        65        P      tau(  65) = (   0.2119924   0.9497675   0.7533413  )
        66        P      tau(  66) = (   0.4579509   0.6252695   1.0650744  )
        67        P      tau(  67) = (   0.2855349   0.0724244   1.0650326  )
        68        P      tau(  68) = (   0.0381112   0.4032615   0.7561117  )
        69        O      tau(  69) = (   0.1352995   0.8818598   0.8892857  )
        70        O      tau(  70) = (   0.3789570   0.6924463   0.9291468  )
        71        O      tau(  71) = (   0.3610496   0.1419327   0.9291660  )
        72        O      tau(  72) = (   0.1179700   0.3356534   0.8894858  )
        73        O      tau(  73) = (   0.1524325   0.8608343   0.6290918  )
        74        O      tau(  74) = (   0.3994952   0.7128748   1.1905493  )
        75        O      tau(  75) = (   0.3426976   0.1634744   1.1889742  )
        76        O      tau(  76) = (   0.0989151   0.3155758   0.6321220  )
        77        O      tau(  77) = (   0.0942206   0.5581494   0.7569623  )
        78        O      tau(  78) = (   0.3506297   1.0014456   1.0645371  )
        79        O      tau(  79) = (   0.3750155   0.3983181   0.7655049  )
        80        O      tau(  80) = (   0.1228303   0.0764842   1.0543924  )
        81        O      tau(  81) = (   0.1204299   0.6293201   1.0530905  )
        82        O      tau(  82) = (   0.4000664   0.4708612   1.0626359  )
        83        O      tau(  83) = (   0.1483182   0.0216333   0.7546099  )
        84        O      tau(  84) = (   0.3748687   0.9435072   0.7627918  )
        85        P      tau(  85) = (   0.7056901   0.9492898   0.7521526  )
        86        P      tau(  86) = (   0.9575286   0.6220438   1.0623609  )
        87        P      tau(  87) = (   0.7847866   0.0710549   1.0641979  )
        88        P      tau(  88) = (   0.5377283   0.4083400   0.7551622  )
        89        O      tau(  89) = (   0.6295714   0.8788409   0.8879407  )
        90        O      tau(  90) = (   0.8781778   0.6902700   0.9288966  )
        91        O      tau(  91) = (   0.8603186   0.1398018   0.9279591  )
        92        O      tau(  92) = (   0.6174712   0.3389159   0.8881839  )
        93        O      tau(  93) = (   0.6471291   0.8583376   0.6285166  )
        94        O      tau(  94) = (   0.8962302   0.7094244   1.1861651  )
        95        O      tau(  95) = (   0.8420493   0.1616933   1.1885419  )
        96        O      tau(  96) = (   0.5995227   0.3203391   0.6315608  )
        97        O      tau(  97) = (   0.5932354   0.5636910   0.7569738  )
        98        O      tau(  98) = (   0.8487155   0.9994995   1.0634446  )
        99        O      tau(  99) = (   0.8751772   0.3959680   0.7655094  )
       100        O      tau( 100) = (   0.6223291   0.0767949   1.0539182  )
       101        O      tau( 101) = (   0.6209785   0.6292365   1.0537708  )
       102        O      tau( 102) = (   0.9010178   0.4674118   1.0608723  )
       103        O      tau( 103) = (   0.6430869   0.0213354   0.7538098  )
       104        O      tau( 104) = (   0.8684566   0.9446034   0.7630440  )
       105        Ni     tau( 105) = (   0.2392451   0.7980692   0.4424501  )
       106        Ni     tau( 106) = (   0.4865215   0.7353506   0.1202547  )
       107        Mn     tau( 107) = (   0.0057284   0.2540508   0.4480984  )
       108        Ni     tau( 108) = (   0.2530377   0.1890124   0.1223869  )
       109        Ni     tau( 109) = (   0.9964090   1.0327362   0.2805874  )
       110        Ni     tau( 110) = (   0.2462362   0.4960619   0.2818013  )
       111        Ni     tau( 111) = (   0.7345262   0.7970744   0.4415872  )
       112        Mn     tau( 112) = (   0.9831224   0.7322404   0.1149322  )
       113        Mn     tau( 113) = (   0.5057684   0.2566226   0.4482604  )
       114        Ni     tau( 114) = (   0.7505120   0.1885401   0.1218698  )
       115        Ni     tau( 115) = (   0.4953648   1.0333797   0.2818887  )
       116        Ni     tau( 116) = (   0.7441241   0.4958159   0.2807100  )
       117        P      tau( 117) = (   0.2092055   0.9308455   0.1258832  )
       118        P      tau( 118) = (   0.4551640   0.6063475   0.4376163  )
       119        P      tau( 119) = (   0.2827481   0.0535023   0.4375745  )
       120        P      tau( 120) = (   0.0353243   0.3843395   0.1286536  )
       121        O      tau( 121) = (   0.1325127   0.8629378   0.2618276  )
       122        O      tau( 122) = (   0.3761702   0.6735242   0.3016887  )
       123        O      tau( 123) = (   0.3582627   0.1230106   0.3017079  )
       124        O      tau( 124) = (   0.1151831   0.3167313   0.2620277  )
       125        O      tau( 125) = (   0.1496456   0.8419122   0.0016337  )
       126        O      tau( 126) = (   0.3967083   0.6939527   0.5630912  )
       127        O      tau( 127) = (   0.3399107   0.1445523   0.5615161  )
       128        O      tau( 128) = (   0.0961282   0.2966537   0.0046639  )
       129        O      tau( 129) = (   0.0914337   0.5392273   0.1295042  )
       130        O      tau( 130) = (   0.3478428   0.9825235   0.4370790  )
       131        O      tau( 131) = (   0.3722287   0.3793961   0.1380469  )
       132        O      tau( 132) = (   0.1200434   0.0575621   0.4269343  )
       133        O      tau( 133) = (   0.1176431   0.6103980   0.4256324  )
       134        O      tau( 134) = (   0.3972796   0.4519391   0.4351778  )
       135        O      tau( 135) = (   0.1455313   0.0027113   0.1271518  )
       136        O      tau( 136) = (   0.3720819   0.9245852   0.1353338  )
       137        P      tau( 137) = (   0.7029032   0.9303678   0.1246945  )
       138        P      tau( 138) = (   0.9547417   0.6031217   0.4349028  )
       139        P      tau( 139) = (   0.7819997   0.0521328   0.4367398  )
       140        P      tau( 140) = (   0.5349415   0.3894179   0.1277041  )
       141        O      tau( 141) = (   0.6267846   0.8599188   0.2604826  )
       142        O      tau( 142) = (   0.8753909   0.6713480   0.3014385  )
       143        O      tau( 143) = (   0.8575317   0.1208797   0.3005010  )
       144        O      tau( 144) = (   0.6146843   0.3199938   0.2607258  )
       145        O      tau( 145) = (   0.6443422   0.8394155   0.0010585  )
       146        O      tau( 146) = (   0.8934434   0.6905023   0.5587070  )
       147        O      tau( 147) = (   0.8392624   0.1427713   0.5610838  )
       148        O      tau( 148) = (   0.5967359   0.3014171   0.0041027  )
       149        O      tau( 149) = (   0.5904485   0.5447689   0.1295157  )
       150        O      tau( 150) = (   0.8459286   0.9805774   0.4359865  )
       151        O      tau( 151) = (   0.8723903   0.3770459   0.1380513  )
       152        O      tau( 152) = (   0.6195422   0.0578729   0.4264602  )
       153        O      tau( 153) = (   0.6181917   0.6103144   0.4263127  )
       154        O      tau( 154) = (   0.8982309   0.4484897   0.4334142  )
       155        O      tau( 155) = (   0.6403000   0.0024133   0.1263517  )
       156        O      tau( 156) = (   0.8656697   0.9256814   0.1355859  )
       157        O      tau( 157) = (   0.6083472   0.3612432   1.8413336  )
       158        H      tau( 158) = (   0.6957300   0.3052087   1.8587579  )

     -------------------------------------------------
     Parameters for Dispersion (Grimme-D2) Correction:
     -------------------------------------------------
       atom      VdW radius       C_6     

        Ni         2.952        374.666
        Mn         2.952        374.666
        P          3.222        271.980
        O          2.536         24.284
        H          1.892          4.857

     number of k points=     1  Gaussian smearing, width (Ry)=  0.0100
                       cart. coord. in units 2pi/alat
        k(    1) = (   0.0000000   0.0000000   0.0000000), wk =   1.0000000

     Dense  grid:  1979026 G-vectors     FFT dimensions: ( 128, 144, 450)

     Smooth grid:   500628 G-vectors     FFT dimensions: (  81,  90, 288)

     Estimated max dynamical RAM per process >     333.40 MB

     Estimated total dynamical RAM >      20.84 GB

     Check: negative core charge=   -0.000002
     Generating pointlists ...
     new r_m :   0.0873 (alat units)  1.5594 (a.u.) for type    1
     new r_m :   0.0768 (alat units)  1.3712 (a.u.) for type    2
     new r_m :   0.0663 (alat units)  1.1845 (a.u.) for type    3
     new r_m :   0.0434 (alat units)  0.7752 (a.u.) for type    4
     new r_m :   0.0434 (alat units)  0.7752 (a.u.) for type    5

     Initial potential from superposition of free atoms

     starting charge    1107.8886, renormalised to    1108.0000

     negative rho (up, down):  1.541E-03 4.673E-04
 
     Adding external electric field

     Computed dipole along edir(3) : 
        Dipole                1.6165 Ry au,          4.1087 Debye
        Dipole field          0.0010 Ry au, 
 
        Potential amp.       -0.1060 Ry
        Total length         54.7057 bohr
 
 
     Adding external electric field

     Computed dipole along edir(3) : 
        Dipole                1.6165 Ry au,          4.1087 Debye
        Dipole field          0.0010 Ry au, 
 
        Potential amp.       -0.1060 Ry
        Total length         54.7057 bohr
 
     Starting wfcs are  818 randomized atomic wfcs

     total cpu time spent up to now is       14.0 secs

     Self-consistent Calculation

     iteration #  1     ecut=    50.00 Ry     beta= 0.20
     Davidson diagonalization with overlap
     ethr =  1.00E-02,  avg # of iterations =  5.5

     negative rho (up, down):  1.056E+00 1.037E-06
 
     Adding external electric field

     Computed dipole along edir(3) : 
        Dipole               -7.3625 Ry au,        -18.7136 Debye
        Dipole field         -0.0044 Ry au, 
 
        Potential amp.        0.4829 Ry
        Total length         54.7057 bohr
 
 
     Adding external electric field

     Computed dipole along edir(3) : 
        Dipole               -7.3625 Ry au,        -18.7136 Debye
        Dipole field         -0.0044 Ry au, 
 
        Potential amp.        0.4829 Ry
        Total length         54.7057 bohr
 

     total cpu time spent up to now is       52.1 secs

     total energy              =   -7880.19196398 Ry
     estimated scf accuracy    <     714.82546966 Ry

     total magnetization       =   222.00 Bohr mag/cell
     absolute magnetization    =   319.76 Bohr mag/cell

     iteration #  2     ecut=    50.00 Ry     beta= 0.20
     Davidson diagonalization with overlap
     ethr =  1.00E-02,  avg # of iterations =  2.0

     negative rho (up, down):  9.471E-01 6.746E-07
 
     Adding external electric field

     Computed dipole along edir(3) : 
        Dipole               -3.8884 Ry au,         -9.8834 Debye
        Dipole field         -0.0023 Ry au, 
 
        Potential amp.        0.2550 Ry
        Total length         54.7057 bohr
 
 
     Adding external electric field

     Computed dipole along edir(3) : 
        Dipole               -3.8884 Ry au,         -9.8834 Debye
        Dipole field         -0.0023 Ry au, 
 
        Potential amp.        0.2550 Ry
        Total length         54.7057 bohr
 

     total cpu time spent up to now is       77.5 secs

     total energy              =   -7974.77213063 Ry
     estimated scf accuracy    <     655.97838977 Ry

     total magnetization       =   149.38 Bohr mag/cell
     absolute magnetization    =   200.64 Bohr mag/cell

     iteration #  3     ecut=    50.00 Ry     beta= 0.20
     Davidson diagonalization with overlap
     ethr =  1.00E-02,  avg # of iterations =  1.5

     negative rho (up, down):  7.820E-01 1.187E-06
 
     Adding external electric field

     Computed dipole along edir(3) : 
        Dipole               -3.8813 Ry au,         -9.8653 Debye
        Dipole field         -0.0023 Ry au, 
 
        Potential amp.        0.2546 Ry
        Total length         54.7057 bohr
 
 
     Adding external electric field

     Computed dipole along edir(3) : 
        Dipole               -3.8813 Ry au,         -9.8653 Debye
        Dipole field         -0.0023 Ry au, 
 
        Potential amp.        0.2546 Ry
        Total length         54.7057 bohr
 

     total cpu time spent up to now is       97.0 secs

     total energy              =   -8005.14302115 Ry
     estimated scf accuracy    <     102.86567240 Ry

     total magnetization       =   134.87 Bohr mag/cell
     absolute magnetization    =   184.26 Bohr mag/cell

     iteration #  4     ecut=    50.00 Ry     beta= 0.20
     Davidson diagonalization with overlap
     ethr =  9.28E-03,  avg # of iterations =  1.0

     negative rho (up, down):  5.056E-01 8.992E-07
 
     Adding external electric field

     Computed dipole along edir(3) : 
        Dipole               -2.7152 Ry au,         -6.9014 Debye
        Dipole field         -0.0016 Ry au, 
 
        Potential amp.        0.1781 Ry
        Total length         54.7057 bohr
 
 
     Adding external electric field

     Computed dipole along edir(3) : 
        Dipole               -2.7152 Ry au,         -6.9014 Debye
        Dipole field         -0.0016 Ry au, 
 
        Potential amp.        0.1781 Ry
        Total length         54.7057 bohr
 

     total cpu time spent up to now is      114.9 secs

     total energy              =   -8040.66504743 Ry
     estimated scf accuracy    <      85.13439130 Ry

     total magnetization       =   111.35 Bohr mag/cell
     absolute magnetization    =   164.22 Bohr mag/cell

     iteration #  5     ecut=    50.00 Ry     beta= 0.20
     Davidson diagonalization with overlap
     ethr =  7.68E-03,  avg # of iterations =  1.0

     negative rho (up, down):  2.310E-01 4.674E-06
 
     Adding external electric field

     Computed dipole along edir(3) : 
        Dipole               -2.4091 Ry au,         -6.1234 Debye
        Dipole field         -0.0014 Ry au, 
 
        Potential amp.        0.1580 Ry
        Total length         54.7057 bohr
 
 
     Adding external electric field

     Computed dipole along edir(3) : 
        Dipole               -2.4091 Ry au,         -6.1234 Debye
        Dipole field         -0.0014 Ry au, 
 
        Potential amp.        0.1580 Ry
        Total length         54.7057 bohr
 

     total cpu time spent up to now is      132.5 secs

     total energy              =   -8063.01442417 Ry
     estimated scf accuracy    <      59.10577891 Ry

     total magnetization       =   103.89 Bohr mag/cell
     absolute magnetization    =   147.00 Bohr mag/cell

     iteration #  6     ecut=    50.00 Ry     beta= 0.20
     Davidson diagonalization with overlap
     ethr =  5.33E-03,  avg # of iterations =  1.0

     negative rho (up, down):  1.808E-03 7.870E-04
 
     Adding external electric field

     Computed dipole along edir(3) : 
        Dipole               -1.4752 Ry au,         -3.7496 Debye
        Dipole field         -0.0009 Ry au, 
 
        Potential amp.        0.0968 Ry
        Total length         54.7057 bohr
 
 
     Adding external electric field

     Computed dipole along edir(3) : 
        Dipole               -1.4752 Ry au,         -3.7496 Debye
        Dipole field         -0.0009 Ry au, 
 
        Potential amp.        0.0968 Ry
        Total length         54.7057 bohr
 

     total cpu time spent up to now is      150.8 secs

     total energy              =   -8076.24340365 Ry
     estimated scf accuracy    <      25.39275313 Ry

     total magnetization       =   100.00 Bohr mag/cell
     absolute magnetization    =   131.19 Bohr mag/cell

     iteration #  7     ecut=    50.00 Ry     beta= 0.20
     Davidson diagonalization with overlap
     ethr =  2.29E-03,  avg # of iterations =  2.5

     negative rho (up, down):  1.442E-03 1.162E-03
 
     Adding external electric field

     Computed dipole along edir(3) : 
        Dipole               -1.4394 Ry au,         -3.6587 Debye
        Dipole field         -0.0009 Ry au, 
 
        Potential amp.        0.0944 Ry
        Total length         54.7057 bohr
 
 
     Adding external electric field

     Computed dipole along edir(3) : 
        Dipole               -1.4394 Ry au,         -3.6587 Debye
        Dipole field         -0.0009 Ry au, 
 
        Potential amp.        0.0944 Ry
        Total length         54.7057 bohr
 

     total cpu time spent up to now is      171.6 secs

     total energy              =   -8078.06113565 Ry
     estimated scf accuracy    <      20.72953713 Ry

     total magnetization       =    72.64 Bohr mag/cell
     absolute magnetization    =    89.91 Bohr mag/cell

     iteration #  8     ecut=    50.00 Ry     beta= 0.20
     Davidson diagonalization with overlap
     ethr =  1.87E-03,  avg # of iterations =  1.5

     negative rho (up, down):  4.733E-04 1.272E-03
 
     Adding external electric field

     Computed dipole along edir(3) : 
        Dipole               -1.2564 Ry au,         -3.1933 Debye
        Dipole field         -0.0008 Ry au, 
 
        Potential amp.        0.0824 Ry
        Total length         54.7057 bohr
 
 
     Adding external electric field

     Computed dipole along edir(3) : 
        Dipole               -1.2564 Ry au,         -3.1933 Debye
        Dipole field         -0.0008 Ry au, 
 
        Potential amp.        0.0824 Ry
        Total length         54.7057 bohr
 

     total cpu time spent up to now is      190.3 secs

     total energy              =   -8078.04166285 Ry
     estimated scf accuracy    <      10.81433242 Ry

     total magnetization       =    79.69 Bohr mag/cell
     absolute magnetization    =    94.87 Bohr mag/cell

     iteration #  9     ecut=    50.00 Ry     beta= 0.20
     Davidson diagonalization with overlap
     ethr =  9.76E-04,  avg # of iterations =  6.0

     negative rho (up, down):  2.395E-04 5.332E-04
 
     Adding external electric field

     Computed dipole along edir(3) : 
        Dipole               -1.2286 Ry au,         -3.1228 Debye
        Dipole field         -0.0007 Ry au, 
 
        Potential amp.        0.0806 Ry
        Total length         54.7057 bohr
 
 
     Adding external electric field

     Computed dipole along edir(3) : 
        Dipole               -1.2286 Ry au,         -3.1228 Debye
        Dipole field         -0.0007 Ry au, 
 
        Potential amp.        0.0806 Ry
        Total length         54.7057 bohr
 

     total cpu time spent up to now is      218.5 secs

     total energy              =   -8078.28167404 Ry
     estimated scf accuracy    <       1.88906977 Ry

     total magnetization       =    91.11 Bohr mag/cell
     absolute magnetization    =   101.73 Bohr mag/cell

     iteration # 10     ecut=    50.00 Ry     beta= 0.20
     Davidson diagonalization with overlap
     ethr =  1.70E-04,  avg # of iterations = 10.0

     negative rho (up, down):  9.133E-05 6.309E-04
 
     Adding external electric field

     Computed dipole along edir(3) : 
        Dipole               -1.1627 Ry au,         -2.9553 Debye
        Dipole field         -0.0007 Ry au, 
 
        Potential amp.        0.0763 Ry
        Total length         54.7057 bohr
 
 
     Adding external electric field

     Computed dipole along edir(3) : 
        Dipole               -1.1627 Ry au,         -2.9553 Debye
        Dipole field         -0.0007 Ry au, 
 
        Potential amp.        0.0763 Ry
        Total length         54.7057 bohr
 

     total cpu time spent up to now is      244.0 secs

     total energy              =   -8078.39868404 Ry
     estimated scf accuracy    <       0.67919242 Ry

     total magnetization       =    96.49 Bohr mag/cell
     absolute magnetization    =   104.91 Bohr mag/cell

     iteration # 11     ecut=    50.00 Ry     beta= 0.20
     Davidson diagonalization with overlap
     ethr =  6.13E-05,  avg # of iterations =  9.0

     negative rho (up, down):  3.388E-05 1.598E-04
 
     Adding external electric field

     Computed dipole along edir(3) : 
        Dipole               -1.1574 Ry au,         -2.9419 Debye
        Dipole field         -0.0007 Ry au, 
 
        Potential amp.        0.0759 Ry
        Total length         54.7057 bohr
 
 
     Adding external electric field

     Computed dipole along edir(3) : 
        Dipole               -1.1574 Ry au,         -2.9419 Debye
        Dipole field         -0.0007 Ry au, 
 
        Potential amp.        0.0759 Ry
        Total length         54.7057 bohr
 

     total cpu time spent up to now is      274.8 secs

     total energy              =   -8078.48179139 Ry
     estimated scf accuracy    <       0.89780787 Ry

     total magnetization       =    94.05 Bohr mag/cell
     absolute magnetization    =   100.75 Bohr mag/cell

     iteration # 12     ecut=    50.00 Ry     beta= 0.20
     Davidson diagonalization with overlap
     ethr =  6.13E-05,  avg # of iterations =  1.5

     negative rho (up, down):  3.686E-06 1.543E-05
 
     Adding external electric field

     Computed dipole along edir(3) : 
        Dipole               -1.0886 Ry au,         -2.7669 Debye
        Dipole field         -0.0007 Ry au, 
 
        Potential amp.        0.0714 Ry
        Total length         54.7057 bohr
 
 
     Adding external electric field

     Computed dipole along edir(3) : 
        Dipole               -1.0886 Ry au,         -2.7669 Debye
        Dipole field         -0.0007 Ry au, 
 
        Potential amp.        0.0714 Ry
        Total length         54.7057 bohr
 

     total cpu time spent up to now is      292.0 secs

     total energy              =   -8078.56258154 Ry
     estimated scf accuracy    <       0.34951439 Ry

     total magnetization       =    96.51 Bohr mag/cell
     absolute magnetization    =   101.61 Bohr mag/cell

     iteration # 13     ecut=    50.00 Ry     beta= 0.20
     Davidson diagonalization with overlap
     ethr =  3.15E-05,  avg # of iterations =  6.5

     negative rho (up, down):  1.334E-06 6.010E-06
 
     Adding external electric field

     Computed dipole along edir(3) : 
        Dipole               -1.0179 Ry au,         -2.5872 Debye
        Dipole field         -0.0006 Ry au, 
 
        Potential amp.        0.0668 Ry
        Total length         54.7057 bohr
 
 
     Adding external electric field

     Computed dipole along edir(3) : 
        Dipole               -1.0179 Ry au,         -2.5872 Debye
        Dipole field         -0.0006 Ry au, 
 
        Potential amp.        0.0668 Ry
        Total length         54.7057 bohr
 

     total cpu time spent up to now is      315.2 secs

     total energy              =   -8078.59472570 Ry
     estimated scf accuracy    <       0.19285284 Ry

     total magnetization       =    96.56 Bohr mag/cell
     absolute magnetization    =    99.50 Bohr mag/cell

     iteration # 14     ecut=    50.00 Ry     beta= 0.20
     Davidson diagonalization with overlap
     c_bands:  1 eigenvalues not converged
     ethr =  1.74E-05,  avg # of iterations = 11.0

     negative rho (up, down):  1.068E-06 3.587E-06
 
     Adding external electric field

     Computed dipole along edir(3) : 
        Dipole               -0.9723 Ry au,         -2.4714 Debye
        Dipole field         -0.0006 Ry au, 
 
        Potential amp.        0.0638 Ry
        Total length         54.7057 bohr
 
 
     Adding external electric field

     Computed dipole along edir(3) : 
        Dipole               -0.9723 Ry au,         -2.4714 Debye
        Dipole field         -0.0006 Ry au, 
 
        Potential amp.        0.0638 Ry
        Total length         54.7057 bohr
 

     total cpu time spent up to now is      342.3 secs

     total energy              =   -8078.60408530 Ry
     estimated scf accuracy    <       0.15756189 Ry

     total magnetization       =    96.12 Bohr mag/cell
     absolute magnetization    =    98.03 Bohr mag/cell

     iteration # 15     ecut=    50.00 Ry     beta= 0.20
     Davidson diagonalization with overlap
     ethr =  1.42E-05,  avg # of iterations =  1.5

     negative rho (up, down):  1.202E-06 1.734E-06
 
     Adding external electric field

     Computed dipole along edir(3) : 
        Dipole               -0.9317 Ry au,         -2.3682 Debye
        Dipole field         -0.0006 Ry au, 
 
        Potential amp.        0.0611 Ry
        Total length         54.7057 bohr
 
 
     Adding external electric field

     Computed dipole along edir(3) : 
        Dipole               -0.9317 Ry au,         -2.3682 Debye
        Dipole field         -0.0006 Ry au, 
 
        Potential amp.        0.0611 Ry
        Total length         54.7057 bohr
 

     total cpu time spent up to now is      360.6 secs

     total energy              =   -8078.60700244 Ry
     estimated scf accuracy    <       0.16588407 Ry

     total magnetization       =    95.92 Bohr mag/cell
     absolute magnetization    =    97.57 Bohr mag/cell

     iteration # 16     ecut=    50.00 Ry     beta= 0.20
     Davidson diagonalization with overlap
     ethr =  1.42E-05,  avg # of iterations =  1.5

     negative rho (up, down):  1.751E-06 1.438E-07
 
     Adding external electric field

     Computed dipole along edir(3) : 
        Dipole               -0.8496 Ry au,         -2.1596 Debye
        Dipole field         -0.0005 Ry au, 
 
        Potential amp.        0.0557 Ry
        Total length         54.7057 bohr
 
 
     Adding external electric field

     Computed dipole along edir(3) : 
        Dipole               -0.8496 Ry au,         -2.1596 Debye
        Dipole field         -0.0005 Ry au, 
 
        Potential amp.        0.0557 Ry
        Total length         54.7057 bohr
 

     total cpu time spent up to now is      377.7 secs

     total energy              =   -8078.60287202 Ry
     estimated scf accuracy    <       0.14296930 Ry

     total magnetization       =    95.93 Bohr mag/cell
     absolute magnetization    =    97.47 Bohr mag/cell

     iteration # 17     ecut=    50.00 Ry     beta= 0.20
     Davidson diagonalization with overlap
     ethr =  1.29E-05,  avg # of iterations =  2.0

     negative rho (up, down):  1.545E-06 2.488E-08
 
     Adding external electric field

     Computed dipole along edir(3) : 
        Dipole               -0.7900 Ry au,         -2.0081 Debye
        Dipole field         -0.0005 Ry au, 
 
        Potential amp.        0.0518 Ry
        Total length         54.7057 bohr
 
 
     Adding external electric field

     Computed dipole along edir(3) : 
        Dipole               -0.7900 Ry au,         -2.0081 Debye
        Dipole field         -0.0005 Ry au, 
 
        Potential amp.        0.0518 Ry
        Total length         54.7057 bohr
 

     total cpu time spent up to now is      396.0 secs

     total energy              =   -8078.60139041 Ry
     estimated scf accuracy    <       0.12588550 Ry

     total magnetization       =    96.09 Bohr mag/cell
     absolute magnetization    =    97.54 Bohr mag/cell

     iteration # 18     ecut=    50.00 Ry     beta= 0.20
     Davidson diagonalization with overlap
     ethr =  1.14E-05,  avg # of iterations =  1.5

     negative rho (up, down):  2.786E-06 2.635E-08
 
     Adding external electric field

     Computed dipole along edir(3) : 
        Dipole               -0.8249 Ry au,         -2.0966 Debye
        Dipole field         -0.0005 Ry au, 
 
        Potential amp.        0.0541 Ry
        Total length         54.7057 bohr
 
 
     Adding external electric field

     Computed dipole along edir(3) : 
        Dipole               -0.8249 Ry au,         -2.0966 Debye
        Dipole field         -0.0005 Ry au, 
 
        Potential amp.        0.0541 Ry
        Total length         54.7057 bohr
 

     total cpu time spent up to now is      413.7 secs

     total energy              =   -8078.59740827 Ry
     estimated scf accuracy    <       0.13970858 Ry

     total magnetization       =    96.04 Bohr mag/cell
     absolute magnetization    =    97.50 Bohr mag/cell

     iteration # 19     ecut=    50.00 Ry     beta= 0.20
     Davidson diagonalization with overlap
     ethr =  1.14E-05,  avg # of iterations =  2.0

     negative rho (up, down):  2.091E-06 3.577E-07
 
     Adding external electric field

     Computed dipole along edir(3) : 
        Dipole               -0.9509 Ry au,         -2.4169 Debye
        Dipole field         -0.0006 Ry au, 
 
        Potential amp.        0.0624 Ry
        Total length         54.7057 bohr
 
 
     Adding external electric field

     Computed dipole along edir(3) : 
        Dipole               -0.9509 Ry au,         -2.4169 Debye
        Dipole field         -0.0006 Ry au, 
 
        Potential amp.        0.0624 Ry
        Total length         54.7057 bohr
 

     total cpu time spent up to now is      432.0 secs

     total energy              =   -8078.60537391 Ry
     estimated scf accuracy    <       0.09160076 Ry

     total magnetization       =    95.82 Bohr mag/cell
     absolute magnetization    =    97.19 Bohr mag/cell

     iteration # 20     ecut=    50.00 Ry     beta= 0.20
     Davidson diagonalization with overlap
     c_bands:  2 eigenvalues not converged
     ethr =  8.27E-06,  avg # of iterations = 20.5

     negative rho (up, down):  2.142E-06 3.449E-07
 
     Adding external electric field

     Computed dipole along edir(3) : 
        Dipole               -0.8392 Ry au,         -2.1331 Debye
        Dipole field         -0.0005 Ry au, 
 
        Potential amp.        0.0550 Ry
        Total length         54.7057 bohr
 
 
     Adding external electric field

     Computed dipole along edir(3) : 
        Dipole               -0.8392 Ry au,         -2.1331 Debye
        Dipole field         -0.0005 Ry au, 
 
        Potential amp.        0.0550 Ry
        Total length         54.7057 bohr
 

     total cpu time spent up to now is      472.5 secs

     total energy              =   -8078.60458591 Ry
     estimated scf accuracy    <       0.10741765 Ry

     total magnetization       =    95.83 Bohr mag/cell
     absolute magnetization    =    97.26 Bohr mag/cell

     iteration # 21     ecut=    50.00 Ry     beta= 0.20
     Davidson diagonalization with overlap
     ethr =  8.27E-06,  avg # of iterations =  2.0

     negative rho (up, down):  2.017E-06 3.179E-07
 
     Adding external electric field

     Computed dipole along edir(3) : 
        Dipole               -0.8522 Ry au,         -2.1660 Debye
        Dipole field         -0.0005 Ry au, 
 
        Potential amp.        0.0559 Ry
        Total length         54.7057 bohr
 
 
     Adding external electric field

     Computed dipole along edir(3) : 
        Dipole               -0.8522 Ry au,         -2.1660 Debye
        Dipole field         -0.0005 Ry au, 
 
        Potential amp.        0.0559 Ry
        Total length         54.7057 bohr
 

     total cpu time spent up to now is      491.7 secs

     total energy              =   -8078.60491901 Ry
     estimated scf accuracy    <       0.11118105 Ry

     total magnetization       =    95.88 Bohr mag/cell
     absolute magnetization    =    97.37 Bohr mag/cell

     iteration # 22     ecut=    50.00 Ry     beta= 0.20
     Davidson diagonalization with overlap
     ethr =  8.27E-06,  avg # of iterations =  1.0

     negative rho (up, down):  1.574E-06 4.248E-07
 
     Adding external electric field

     Computed dipole along edir(3) : 
        Dipole               -0.9099 Ry au,         -2.3128 Debye
        Dipole field         -0.0005 Ry au, 
 
        Potential amp.        0.0597 Ry
        Total length         54.7057 bohr
 
 
     Adding external electric field

     Computed dipole along edir(3) : 
        Dipole               -0.9099 Ry au,         -2.3128 Debye
        Dipole field         -0.0005 Ry au, 
 
        Potential amp.        0.0597 Ry
        Total length         54.7057 bohr
 

     total cpu time spent up to now is      509.2 secs

     total energy              =   -8078.60613385 Ry
     estimated scf accuracy    <       0.11305121 Ry

     total magnetization       =    95.89 Bohr mag/cell
     absolute magnetization    =    97.38 Bohr mag/cell

     iteration # 23     ecut=    50.00 Ry     beta= 0.20
     Davidson diagonalization with overlap
     ethr =  8.27E-06,  avg # of iterations =  1.5

     negative rho (up, down):  2.475E-06 3.516E-07
 
     Adding external electric field

     Computed dipole along edir(3) : 
        Dipole               -0.8357 Ry au,         -2.1241 Debye
        Dipole field         -0.0005 Ry au, 
 
        Potential amp.        0.0548 Ry
        Total length         54.7057 bohr
 
 
     Adding external electric field

     Computed dipole along edir(3) : 
        Dipole               -0.8357 Ry au,         -2.1241 Debye
        Dipole field         -0.0005 Ry au, 
 
        Potential amp.        0.0548 Ry
        Total length         54.7057 bohr
 

     total cpu time spent up to now is      527.4 secs

     total energy              =   -8078.60381172 Ry
     estimated scf accuracy    <       0.10947801 Ry

     total magnetization       =    95.82 Bohr mag/cell
     absolute magnetization    =    97.15 Bohr mag/cell

     iteration # 24     ecut=    50.00 Ry     beta= 0.20
     Davidson diagonalization with overlap
     ethr =  8.27E-06,  avg # of iterations =  1.0

     negative rho (up, down):  1.647E-06 4.312E-07
 
     Adding external electric field

     Computed dipole along edir(3) : 
        Dipole               -0.9132 Ry au,         -2.3210 Debye
        Dipole field         -0.0005 Ry au, 
 
        Potential amp.        0.0599 Ry
        Total length         54.7057 bohr
 
 
     Adding external electric field

     Computed dipole along edir(3) : 
        Dipole               -0.9132 Ry au,         -2.3210 Debye
        Dipole field         -0.0005 Ry au, 
 
        Potential amp.        0.0599 Ry
        Total length         54.7057 bohr
 

     total cpu time spent up to now is      545.1 secs

     total energy              =   -8078.60665422 Ry
     estimated scf accuracy    <       0.10869926 Ry

     total magnetization       =    95.75 Bohr mag/cell
     absolute magnetization    =    97.03 Bohr mag/cell

     iteration # 25     ecut=    50.00 Ry     beta= 0.20
     Davidson diagonalization with overlap
     ethr =  8.27E-06,  avg # of iterations =  1.0

     negative rho (up, down):  3.472E-06 3.961E-07
 
     Adding external electric field

     Computed dipole along edir(3) : 
        Dipole               -0.8593 Ry au,         -2.1842 Debye
        Dipole field         -0.0005 Ry au, 
 
        Potential amp.        0.0564 Ry
        Total length         54.7057 bohr
 
 
     Adding external electric field

     Computed dipole along edir(3) : 
        Dipole               -0.8593 Ry au,         -2.1842 Debye
        Dipole field         -0.0005 Ry au, 
 
        Potential amp.        0.0564 Ry
        Total length         54.7057 bohr
 

     total cpu time spent up to now is      561.8 secs

     total energy              =   -8078.60290256 Ry
     estimated scf accuracy    <       0.11270661 Ry

     total magnetization       =    95.77 Bohr mag/cell
     absolute magnetization    =    97.08 Bohr mag/cell

     iteration # 26     ecut=    50.00 Ry     beta= 0.20
     Davidson diagonalization with overlap
     ethr =  8.27E-06,  avg # of iterations =  1.5

     negative rho (up, down):  1.106E-05 1.974E-06
 
     Adding external electric field

     Computed dipole along edir(3) : 
        Dipole               -0.6702 Ry au,         -1.7036 Debye
        Dipole field         -0.0004 Ry au, 
 
        Potential amp.        0.0440 Ry
        Total length         54.7057 bohr
 
 
     Adding external electric field

     Computed dipole along edir(3) : 
        Dipole               -0.6702 Ry au,         -1.7036 Debye
        Dipole field         -0.0004 Ry au, 
 
        Potential amp.        0.0440 Ry
        Total length         54.7057 bohr
 

     total cpu time spent up to now is      580.2 secs

     total energy              =   -8078.60088387 Ry
     estimated scf accuracy    <       0.09515949 Ry

     total magnetization       =    95.84 Bohr mag/cell
     absolute magnetization    =    97.21 Bohr mag/cell

     iteration # 27     ecut=    50.00 Ry     beta= 0.20
     Davidson diagonalization with overlap
     ethr =  8.27E-06,  avg # of iterations =  2.0

     negative rho (up, down):  1.461E-04 9.219E-05
 
     Adding external electric field

     Computed dipole along edir(3) : 
        Dipole               -0.2271 Ry au,         -0.5772 Debye
        Dipole field         -0.0001 Ry au, 
 
        Potential amp.        0.0149 Ry
        Total length         54.7057 bohr
 
 
     Adding external electric field

     Computed dipole along edir(3) : 
        Dipole               -0.2271 Ry au,         -0.5772 Debye
        Dipole field         -0.0001 Ry au, 
 
        Potential amp.        0.0149 Ry
        Total length         54.7057 bohr
 

     total cpu time spent up to now is      599.9 secs

     total energy              =   -8078.59863570 Ry
     estimated scf accuracy    <       0.08498004 Ry

     total magnetization       =    95.82 Bohr mag/cell
     absolute magnetization    =    97.21 Bohr mag/cell

     iteration # 28     ecut=    50.00 Ry     beta= 0.20
     Davidson diagonalization with overlap
     ethr =  7.67E-06,  avg # of iterations = 12.0

     negative rho (up, down):  4.382E-04 2.852E-04
 
     Adding external electric field

     Computed dipole along edir(3) : 
        Dipole                0.0850 Ry au,          0.2159 Debye
        Dipole field          0.0001 Ry au, 
 
        Potential amp.       -0.0056 Ry
        Total length         54.7057 bohr
 
 
     Adding external electric field

     Computed dipole along edir(3) : 
        Dipole                0.0850 Ry au,          0.2159 Debye
        Dipole field          0.0001 Ry au, 
 
        Potential amp.       -0.0056 Ry
        Total length         54.7057 bohr
 

     total cpu time spent up to now is      636.0 secs

     total energy              =   -8078.59833124 Ry
     estimated scf accuracy    <       0.05633616 Ry

     total magnetization       =    95.80 Bohr mag/cell
     absolute magnetization    =    97.13 Bohr mag/cell

     iteration # 29     ecut=    50.00 Ry     beta= 0.20
     Davidson diagonalization with overlap
     c_bands:  5 eigenvalues not converged
     ethr =  5.08E-06,  avg # of iterations = 11.0

     negative rho (up, down):  9.113E-03 6.162E-03
 
     Adding external electric field

     Computed dipole along edir(3) : 
        Dipole                0.3557 Ry au,          0.9040 Debye
        Dipole field          0.0002 Ry au, 
 
        Potential amp.       -0.0233 Ry
        Total length         54.7057 bohr
 
 
     Adding external electric field

     Computed dipole along edir(3) : 
        Dipole                0.3557 Ry au,          0.9040 Debye
        Dipole field          0.0002 Ry au, 
 
        Potential amp.       -0.0233 Ry
        Total length         54.7057 bohr
 

     total cpu time spent up to now is      666.3 secs

     total energy              =   -8078.59740648 Ry
     estimated scf accuracy    <       0.03711808 Ry

     total magnetization       =    95.80 Bohr mag/cell
     absolute magnetization    =    97.15 Bohr mag/cell

     iteration # 30     ecut=    50.00 Ry     beta= 0.20
     Davidson diagonalization with overlap
     c_bands:  1 eigenvalues not converged
     ethr =  3.35E-06,  avg # of iterations = 11.5

     negative rho (up, down):  7.160E-03 5.329E-03
 
     Adding external electric field

     Computed dipole along edir(3) : 
        Dipole                0.3161 Ry au,          0.8034 Debye
        Dipole field          0.0002 Ry au, 
 
        Potential amp.       -0.0207 Ry
        Total length         54.7057 bohr
 
 
     Adding external electric field

     Computed dipole along edir(3) : 
        Dipole                0.3161 Ry au,          0.8034 Debye
        Dipole field          0.0002 Ry au, 
 
        Potential amp.       -0.0207 Ry
        Total length         54.7057 bohr
 

     total cpu time spent up to now is      693.9 secs

     total energy              =   -8078.59779320 Ry
     estimated scf accuracy    <       0.01109499 Ry

     total magnetization       =    95.78 Bohr mag/cell
     absolute magnetization    =    97.12 Bohr mag/cell

     iteration # 31     ecut=    50.00 Ry     beta= 0.20
     Davidson diagonalization with overlap
     c_bands:  1 eigenvalues not converged
     ethr =  1.00E-06,  avg # of iterations = 11.0

     negative rho (up, down):  1.125E-03 6.730E-04
 
     Adding external electric field

     Computed dipole along edir(3) : 
        Dipole                0.1680 Ry au,          0.4271 Debye
        Dipole field          0.0001 Ry au, 
 
        Potential amp.       -0.0110 Ry
        Total length         54.7057 bohr
 
 
     Adding external electric field

     Computed dipole along edir(3) : 
        Dipole                0.1680 Ry au,          0.4271 Debye
        Dipole field          0.0001 Ry au, 
 
        Potential amp.       -0.0110 Ry
        Total length         54.7057 bohr
 

     total cpu time spent up to now is      719.9 secs

     total energy              =   -8078.59788316 Ry
     estimated scf accuracy    <       0.00630316 Ry

     total magnetization       =    95.83 Bohr mag/cell
     absolute magnetization    =    97.15 Bohr mag/cell

     iteration # 32     ecut=    50.00 Ry     beta= 0.20
     Davidson diagonalization with overlap
     c_bands:  1 eigenvalues not converged
     ethr =  5.69E-07,  avg # of iterations = 11.0

     negative rho (up, down):  9.330E-04 6.675E-04
 
     Adding external electric field

     Computed dipole along edir(3) : 
        Dipole                0.2073 Ry au,          0.5269 Debye
        Dipole field          0.0001 Ry au, 
 
        Potential amp.       -0.0136 Ry
        Total length         54.7057 bohr
 
 
     Adding external electric field

     Computed dipole along edir(3) : 
        Dipole                0.2073 Ry au,          0.5269 Debye
        Dipole field          0.0001 Ry au, 
 
        Potential amp.       -0.0136 Ry
        Total length         54.7057 bohr
 

     total cpu time spent up to now is      746.0 secs

     total energy              =   -8078.59812832 Ry
     estimated scf accuracy    <       0.00303437 Ry

     total magnetization       =    95.84 Bohr mag/cell
     absolute magnetization    =    97.15 Bohr mag/cell

     iteration # 33     ecut=    50.00 Ry     beta= 0.20
     Davidson diagonalization with overlap
     ethr =  2.74E-07,  avg # of iterations =  2.0

     negative rho (up, down):  5.709E-04 4.773E-04
 
     Adding external electric field

     Computed dipole along edir(3) : 
        Dipole                0.2080 Ry au,          0.5287 Debye
        Dipole field          0.0001 Ry au, 
 
        Potential amp.       -0.0136 Ry
        Total length         54.7057 bohr
 
 
     Adding external electric field

     Computed dipole along edir(3) : 
        Dipole                0.2080 Ry au,          0.5287 Debye
        Dipole field          0.0001 Ry au, 
 
        Potential amp.       -0.0136 Ry
        Total length         54.7057 bohr
 

     total cpu time spent up to now is      765.1 secs

     total energy              =   -8078.59822155 Ry
     estimated scf accuracy    <       0.00184619 Ry

     total magnetization       =    95.79 Bohr mag/cell
     absolute magnetization    =    97.10 Bohr mag/cell

     iteration # 34     ecut=    50.00 Ry     beta= 0.20
     Davidson diagonalization with overlap
     ethr =  1.67E-07,  avg # of iterations =  2.0

     negative rho (up, down):  1.006E-04 6.525E-05
 
     Adding external electric field

     Computed dipole along edir(3) : 
        Dipole                0.1868 Ry au,          0.4749 Debye
        Dipole field          0.0001 Ry au, 
 
        Potential amp.       -0.0123 Ry
        Total length         54.7057 bohr
 
 
     Adding external electric field

     Computed dipole along edir(3) : 
        Dipole                0.1868 Ry au,          0.4749 Debye
        Dipole field          0.0001 Ry au, 
 
        Potential amp.       -0.0123 Ry
        Total length         54.7057 bohr
 

     total cpu time spent up to now is      785.4 secs

     total energy              =   -8078.59829783 Ry
     estimated scf accuracy    <       0.00117276 Ry

     total magnetization       =    95.82 Bohr mag/cell
     absolute magnetization    =    97.17 Bohr mag/cell

     iteration # 35     ecut=    50.00 Ry     beta= 0.20
     Davidson diagonalization with overlap
     ethr =  1.06E-07,  avg # of iterations =  2.0

     negative rho (up, down):  4.773E-05 2.888E-05
 
     Adding external electric field

     Computed dipole along edir(3) : 
        Dipole                0.1789 Ry au,          0.4547 Debye
        Dipole field          0.0001 Ry au, 
 
        Potential amp.       -0.0117 Ry
        Total length         54.7057 bohr
 
 
     Adding external electric field

     Computed dipole along edir(3) : 
        Dipole                0.1789 Ry au,          0.4547 Debye
        Dipole field          0.0001 Ry au, 
 
        Potential amp.       -0.0117 Ry
        Total length         54.7057 bohr
 

     total cpu time spent up to now is      805.3 secs

     total energy              =   -8078.59831921 Ry
     estimated scf accuracy    <       0.00079870 Ry

     total magnetization       =    95.82 Bohr mag/cell
     absolute magnetization    =    97.19 Bohr mag/cell

     iteration # 36     ecut=    50.00 Ry     beta= 0.20
     Davidson diagonalization with overlap
     ethr =  7.21E-08,  avg # of iterations =  2.0

     negative rho (up, down):  2.243E-05 1.736E-05
 
     Adding external electric field

     Computed dipole along edir(3) : 
        Dipole                0.1631 Ry au,          0.4145 Debye
        Dipole field          0.0001 Ry au, 
 
        Potential amp.       -0.0107 Ry
        Total length         54.7057 bohr
 
 
     Adding external electric field

     Computed dipole along edir(3) : 
        Dipole                0.1631 Ry au,          0.4145 Debye
        Dipole field          0.0001 Ry au, 
 
        Potential amp.       -0.0107 Ry
        Total length         54.7057 bohr
 

     total cpu time spent up to now is      824.7 secs

     total energy              =   -8078.59834956 Ry
     estimated scf accuracy    <       0.00065937 Ry

     total magnetization       =    95.81 Bohr mag/cell
     absolute magnetization    =    97.18 Bohr mag/cell

     iteration # 37     ecut=    50.00 Ry     beta= 0.20
     Davidson diagonalization with overlap
     ethr =  5.95E-08,  avg # of iterations =  2.0

     negative rho (up, down):  2.336E-05 2.393E-05
 
     Adding external electric field

     Computed dipole along edir(3) : 
        Dipole                0.1531 Ry au,          0.3890 Debye
        Dipole field          0.0001 Ry au, 
 
        Potential amp.       -0.0100 Ry
        Total length         54.7057 bohr
 
 
     Adding external electric field

     Computed dipole along edir(3) : 
        Dipole                0.1531 Ry au,          0.3890 Debye
        Dipole field          0.0001 Ry au, 
 
        Potential amp.       -0.0100 Ry
        Total length         54.7057 bohr
 

     total cpu time spent up to now is      844.9 secs

     total energy              =   -8078.59841920 Ry
     estimated scf accuracy    <       0.00046590 Ry

     total magnetization       =    95.80 Bohr mag/cell
     absolute magnetization    =    97.17 Bohr mag/cell

     iteration # 38     ecut=    50.00 Ry     beta= 0.20
     Davidson diagonalization with overlap
     ethr =  4.20E-08,  avg # of iterations =  2.0

     negative rho (up, down):  1.050E-04 8.893E-05
 
     Adding external electric field

     Computed dipole along edir(3) : 
        Dipole                0.1644 Ry au,          0.4179 Debye
        Dipole field          0.0001 Ry au, 
 
        Potential amp.       -0.0108 Ry
        Total length         54.7057 bohr
 
 
     Adding external electric field

     Computed dipole along edir(3) : 
        Dipole                0.1644 Ry au,          0.4179 Debye
        Dipole field          0.0001 Ry au, 
 
        Potential amp.       -0.0108 Ry
        Total length         54.7057 bohr
 

     total cpu time spent up to now is      864.7 secs

     total energy              =   -8078.59850768 Ry
     estimated scf accuracy    <       0.00030217 Ry

     total magnetization       =    95.80 Bohr mag/cell
     absolute magnetization    =    97.16 Bohr mag/cell

     iteration # 39     ecut=    50.00 Ry     beta= 0.20
     Davidson diagonalization with overlap
     c_bands:  2 eigenvalues not converged
     ethr =  2.73E-08,  avg # of iterations = 11.0

     negative rho (up, down):  1.417E-04 9.514E-05
 
     Adding external electric field

     Computed dipole along edir(3) : 
        Dipole                0.1643 Ry au,          0.4176 Debye
        Dipole field          0.0001 Ry au, 
 
        Potential amp.       -0.0108 Ry
        Total length         54.7057 bohr
 
 
     Adding external electric field

     Computed dipole along edir(3) : 
        Dipole                0.1643 Ry au,          0.4176 Debye
        Dipole field          0.0001 Ry au, 
 
        Potential amp.       -0.0108 Ry
        Total length         54.7057 bohr
 

     total cpu time spent up to now is      891.5 secs

     total energy              =   -8078.59854169 Ry
     estimated scf accuracy    <       0.00021424 Ry

     total magnetization       =    95.81 Bohr mag/cell
     absolute magnetization    =    97.15 Bohr mag/cell

     iteration # 40     ecut=    50.00 Ry     beta= 0.20
     Davidson diagonalization with overlap
     ethr =  1.93E-08,  avg # of iterations =  2.0

     negative rho (up, down):  3.544E-04 1.518E-04
 
     Adding external electric field

     Computed dipole along edir(3) : 
        Dipole                0.1750 Ry au,          0.4448 Debye
        Dipole field          0.0001 Ry au, 
 
        Potential amp.       -0.0115 Ry
        Total length         54.7057 bohr
 
 
     Adding external electric field

     Computed dipole along edir(3) : 
        Dipole                0.1750 Ry au,          0.4448 Debye
        Dipole field          0.0001 Ry au, 
 
        Potential amp.       -0.0115 Ry
        Total length         54.7057 bohr
 

     total cpu time spent up to now is      911.2 secs

     total energy              =   -8078.59857252 Ry
     estimated scf accuracy    <       0.00015848 Ry

     total magnetization       =    95.81 Bohr mag/cell
     absolute magnetization    =    97.15 Bohr mag/cell

     iteration # 41     ecut=    50.00 Ry     beta= 0.20
     Davidson diagonalization with overlap
     ethr =  1.43E-08,  avg # of iterations =  2.0

     negative rho (up, down):  6.064E-04 2.295E-04
 
     Adding external electric field

     Computed dipole along edir(3) : 
        Dipole                0.1754 Ry au,          0.4458 Debye
        Dipole field          0.0001 Ry au, 
 
        Potential amp.       -0.0115 Ry
        Total length         54.7057 bohr
 
 
     Adding external electric field

     Computed dipole along edir(3) : 
        Dipole                0.1754 Ry au,          0.4458 Debye
        Dipole field          0.0001 Ry au, 
 
        Potential amp.       -0.0115 Ry
        Total length         54.7057 bohr
 

     total cpu time spent up to now is      930.6 secs

     total energy              =   -8078.59857899 Ry
     estimated scf accuracy    <       0.00009975 Ry

     total magnetization       =    95.81 Bohr mag/cell
     absolute magnetization    =    97.16 Bohr mag/cell

     iteration # 42     ecut=    50.00 Ry     beta= 0.20
     Davidson diagonalization with overlap
     ethr =  9.00E-09,  avg # of iterations =  1.5

     negative rho (up, down):  6.552E-04 2.271E-04
 
     Adding external electric field

     Computed dipole along edir(3) : 
        Dipole                0.1793 Ry au,          0.4557 Debye
        Dipole field          0.0001 Ry au, 
 
        Potential amp.       -0.0118 Ry
        Total length         54.7057 bohr
 
 
     Adding external electric field

     Computed dipole along edir(3) : 
        Dipole                0.1793 Ry au,          0.4557 Debye
        Dipole field          0.0001 Ry au, 
 
        Potential amp.       -0.0118 Ry
        Total length         54.7057 bohr
 

     total cpu time spent up to now is      948.6 secs

     total energy              =   -8078.59857931 Ry
     estimated scf accuracy    <       0.00007294 Ry

     total magnetization       =    95.81 Bohr mag/cell
     absolute magnetization    =    97.16 Bohr mag/cell

     iteration # 43     ecut=    50.00 Ry     beta= 0.20
     Davidson diagonalization with overlap
     ethr =  6.58E-09,  avg # of iterations =  1.5

     negative rho (up, down):  9.781E-04 4.872E-04
 
     Adding external electric field

     Computed dipole along edir(3) : 
        Dipole                0.1845 Ry au,          0.4690 Debye
        Dipole field          0.0001 Ry au, 
 
        Potential amp.       -0.0121 Ry
        Total length         54.7057 bohr
 
 
     Adding external electric field

     Computed dipole along edir(3) : 
        Dipole                0.1845 Ry au,          0.4690 Debye
        Dipole field          0.0001 Ry au, 
 
        Potential amp.       -0.0121 Ry
        Total length         54.7057 bohr
 

     total cpu time spent up to now is      967.5 secs

     total energy              =   -8078.59857998 Ry
     estimated scf accuracy    <       0.00005235 Ry

     total magnetization       =    95.81 Bohr mag/cell
     absolute magnetization    =    97.16 Bohr mag/cell

     iteration # 44     ecut=    50.00 Ry     beta= 0.20
     Davidson diagonalization with overlap
     ethr =  4.72E-09,  avg # of iterations =  1.5

     negative rho (up, down):  1.459E-03 9.876E-04
 
     Adding external electric field

     Computed dipole along edir(3) : 
        Dipole                0.1914 Ry au,          0.4866 Debye
        Dipole field          0.0001 Ry au, 
 
        Potential amp.       -0.0126 Ry
        Total length         54.7057 bohr
 
 
     Adding external electric field

     Computed dipole along edir(3) : 
        Dipole                0.1914 Ry au,          0.4866 Debye
        Dipole field          0.0001 Ry au, 
 
        Potential amp.       -0.0126 Ry
        Total length         54.7057 bohr
 

     total cpu time spent up to now is      985.5 secs

     total energy              =   -8078.59858178 Ry
     estimated scf accuracy    <       0.00003061 Ry

     total magnetization       =    95.81 Bohr mag/cell
     absolute magnetization    =    97.16 Bohr mag/cell

     iteration # 45     ecut=    50.00 Ry     beta= 0.20
     Davidson diagonalization with overlap
     ethr =  2.76E-09,  avg # of iterations =  2.0

     negative rho (up, down):  1.614E-03 1.183E-03
 
     Adding external electric field

     Computed dipole along edir(3) : 
        Dipole                0.1937 Ry au,          0.4924 Debye
        Dipole field          0.0001 Ry au, 
 
        Potential amp.       -0.0127 Ry
        Total length         54.7057 bohr
 
 
     Adding external electric field

     Computed dipole along edir(3) : 
        Dipole                0.1937 Ry au,          0.4924 Debye
        Dipole field          0.0001 Ry au, 
 
        Potential amp.       -0.0127 Ry
        Total length         54.7057 bohr
 

     total cpu time spent up to now is     1005.0 secs

     total energy              =   -8078.59858394 Ry
     estimated scf accuracy    <       0.00001542 Ry

     total magnetization       =    95.81 Bohr mag/cell
     absolute magnetization    =    97.16 Bohr mag/cell

     iteration # 46     ecut=    50.00 Ry     beta= 0.20
     Davidson diagonalization with overlap
     ethr =  1.39E-09,  avg # of iterations =  1.5

     negative rho (up, down):  1.631E-03 1.201E-03
 
     Adding external electric field

     Computed dipole along edir(3) : 
        Dipole                0.1939 Ry au,          0.4928 Debye
        Dipole field          0.0001 Ry au, 
 
        Potential amp.       -0.0127 Ry
        Total length         54.7057 bohr
 
 
     Adding external electric field

     Computed dipole along edir(3) : 
        Dipole                0.1939 Ry au,          0.4928 Debye
        Dipole field          0.0001 Ry au, 
 
        Potential amp.       -0.0127 Ry
        Total length         54.7057 bohr
 

     total cpu time spent up to now is     1023.4 secs

     total energy              =   -8078.59858483 Ry
     estimated scf accuracy    <       0.00000662 Ry

     total magnetization       =    95.81 Bohr mag/cell
     absolute magnetization    =    97.16 Bohr mag/cell

     iteration # 47     ecut=    50.00 Ry     beta= 0.20
     Davidson diagonalization with overlap
     ethr =  5.98E-10,  avg # of iterations =  2.0

     negative rho (up, down):  1.475E-03 9.885E-04
 
     Adding external electric field

     Computed dipole along edir(3) : 
        Dipole                0.1923 Ry au,          0.4888 Debye
        Dipole field          0.0001 Ry au, 
 
        Potential amp.       -0.0126 Ry
        Total length         54.7057 bohr
 
 
     Adding external electric field

     Computed dipole along edir(3) : 
        Dipole                0.1923 Ry au,          0.4888 Debye
        Dipole field          0.0001 Ry au, 
 
        Potential amp.       -0.0126 Ry
        Total length         54.7057 bohr
 

     total cpu time spent up to now is     1042.4 secs

     total energy              =   -8078.59858423 Ry
     estimated scf accuracy    <       0.00000365 Ry

     total magnetization       =    95.81 Bohr mag/cell
     absolute magnetization    =    97.15 Bohr mag/cell

     iteration # 48     ecut=    50.00 Ry     beta= 0.20
     Davidson diagonalization with overlap
     ethr =  3.30E-10,  avg # of iterations =  1.5

     negative rho (up, down):  1.388E-03 8.727E-04
 
     Adding external electric field

     Computed dipole along edir(3) : 
        Dipole                0.1919 Ry au,          0.4878 Debye
        Dipole field          0.0001 Ry au, 
 
        Potential amp.       -0.0126 Ry
        Total length         54.7057 bohr
 
 
     Adding external electric field

     Computed dipole along edir(3) : 
        Dipole                0.1919 Ry au,          0.4878 Debye
        Dipole field          0.0001 Ry au, 
 
        Potential amp.       -0.0126 Ry
        Total length         54.7057 bohr
 

     total cpu time spent up to now is     1060.0 secs

     total energy              =   -8078.59858367 Ry
     estimated scf accuracy    <       0.00000211 Ry

     total magnetization       =    95.81 Bohr mag/cell
     absolute magnetization    =    97.16 Bohr mag/cell

     iteration # 49     ecut=    50.00 Ry     beta= 0.20
     Davidson diagonalization with overlap
     ethr =  1.90E-10,  avg # of iterations =  2.0

     negative rho (up, down):  1.160E-03 6.324E-04
 
     Adding external electric field

     Computed dipole along edir(3) : 
        Dipole                0.2003 Ry au,          0.5092 Debye
        Dipole field          0.0001 Ry au, 
 
        Potential amp.       -0.0131 Ry
        Total length         54.7057 bohr
 
 
     Adding external electric field

     Computed dipole along edir(3) : 
        Dipole                0.2003 Ry au,          0.5092 Debye
        Dipole field          0.0001 Ry au, 
 
        Potential amp.       -0.0131 Ry
        Total length         54.7057 bohr
 
 
     Magnetic moment per site  (integrated on atomic sphere of radius R)
     atom   1 (R=0.087)  charge=  7.5315  magn=  1.4842
     atom   2 (R=0.087)  charge=  7.5041  magn=  1.5817
     atom   3 (R=0.077)  charge= 11.4275  magn=  3.6013
     atom   4 (R=0.087)  charge=  7.5048  magn=  1.5588
     atom   5 (R=0.087)  charge=  7.5275  magn=  1.5355
     atom   6 (R=0.087)  charge=  7.5248  magn=  1.5389
     atom   7 (R=0.087)  charge=  7.5282  magn=  1.4827
     atom   8 (R=0.077)  charge= 11.4310  magn=  3.6048
     atom   9 (R=0.077)  charge= 11.3556  magn=  3.0421
     atom  10 (R=0.087)  charge=  7.5025  magn=  1.5764
     atom  11 (R=0.087)  charge=  7.5276  magn=  1.5333
     atom  12 (R=0.087)  charge=  7.5186  magn=  1.5477
     atom  13 (R=0.066)  charge=  0.8139  magn=  0.0062
     atom  14 (R=0.066)  charge=  0.8104  magn=  0.0047
     atom  15 (R=0.066)  charge=  0.8150  magn=  0.0065
     atom  16 (R=0.066)  charge=  0.8167  magn=  0.0087
     atom  17 (R=0.043)  charge=  2.0005  magn=  0.0658
     atom  18 (R=0.043)  charge=  1.9941  magn=  0.1006
     atom  19 (R=0.043)  charge=  1.9930  magn=  0.0476
     atom  20 (R=0.043)  charge=  2.0002  magn=  0.0601
     atom  21 (R=0.043)  charge=  2.0044  magn=  0.0458
     atom  22 (R=0.043)  charge=  1.9945  magn=  0.0415
     atom  23 (R=0.043)  charge=  1.9964  magn=  0.0358
     atom  24 (R=0.043)  charge=  2.0081  magn=  0.0454
     atom  25 (R=0.043)  charge=  2.0043  magn=  0.0411
     atom  26 (R=0.043)  charge=  1.9999  magn=  0.0468
     atom  27 (R=0.043)  charge=  2.0010  magn=  0.0484
     atom  28 (R=0.043)  charge=  2.0050  magn=  0.0360
     atom  29 (R=0.043)  charge=  2.0004  magn=  0.0488
     atom  30 (R=0.043)  charge=  2.0013  magn=  0.0497
     atom  31 (R=0.043)  charge=  2.0009  magn=  0.0557
     atom  32 (R=0.043)  charge=  2.0029  magn=  0.0472
     atom  33 (R=0.066)  charge=  0.8130  magn=  0.0065
     atom  34 (R=0.066)  charge=  0.8128  magn=  0.0061
     atom  35 (R=0.066)  charge=  0.8140  magn=  0.0066
     atom  36 (R=0.066)  charge=  0.8143  magn=  0.0069
     atom  37 (R=0.043)  charge=  1.9961  magn=  0.0798
     atom  38 (R=0.043)  charge=  2.0002  magn=  0.0786
     atom  39 (R=0.043)  charge=  1.9989  magn=  0.0724
     atom  40 (R=0.043)  charge=  1.9982  magn=  0.0684
     atom  41 (R=0.043)  charge=  2.0018  magn=  0.0540
     atom  42 (R=0.043)  charge=  1.9932  magn=  0.0402
     atom  43 (R=0.043)  charge=  2.0030  magn=  0.0314
     atom  44 (R=0.043)  charge=  2.0084  magn=  0.0465
     atom  45 (R=0.043)  charge=  1.9989  magn=  0.0597
     atom  46 (R=0.043)  charge=  2.0011  magn=  0.0487
     atom  47 (R=0.043)  charge=  2.0021  magn=  0.0459
     atom  48 (R=0.043)  charge=  2.0035  magn=  0.0350
     atom  49 (R=0.043)  charge=  2.0017  magn=  0.0483
     atom  50 (R=0.043)  charge=  2.0020  magn=  0.0451
     atom  51 (R=0.043)  charge=  2.0018  magn=  0.0550
     atom  52 (R=0.043)  charge=  2.0054  magn=  0.0366
     atom  53 (R=0.087)  charge=  7.5048  magn=  1.5793
     atom  54 (R=0.087)  charge=  7.5035  magn=  1.5766
     atom  55 (R=0.077)  charge= 11.4378  magn=  3.6294
     atom  56 (R=0.087)  charge=  7.5045  magn=  1.5728
     atom  57 (R=0.087)  charge=  7.5278  magn=  1.5475
     atom  58 (R=0.087)  charge=  7.5243  magn=  1.5380
     atom  59 (R=0.087)  charge=  7.5071  magn=  1.5743
     atom  60 (R=0.077)  charge= 11.4347  magn=  3.6078
     atom  61 (R=0.077)  charge= 11.4442  magn=  3.6486
     atom  62 (R=0.087)  charge=  7.5030  magn=  1.5697
     atom  63 (R=0.087)  charge=  7.5319  magn=  1.5484
     atom  64 (R=0.087)  charge=  7.5265  magn=  1.5393
     atom  65 (R=0.066)  charge=  0.8142  magn=  0.0066
     atom  66 (R=0.066)  charge=  0.8138  magn=  0.0064
     atom  67 (R=0.066)  charge=  0.8152  magn=  0.0075
     atom  68 (R=0.066)  charge=  0.8169  magn=  0.0088
     atom  69 (R=0.043)  charge=  2.0001  magn=  0.0692
     atom  70 (R=0.043)  charge=  1.9952  magn=  0.0806
     atom  71 (R=0.043)  charge=  1.9995  magn=  0.0688
     atom  72 (R=0.043)  charge=  2.0021  magn=  0.0636
     atom  73 (R=0.043)  charge=  2.0055  magn=  0.0474
     atom  74 (R=0.043)  charge=  2.0025  magn=  0.0534
     atom  75 (R=0.043)  charge=  2.0053  magn=  0.0466
     atom  76 (R=0.043)  charge=  2.0085  magn=  0.0462
     atom  77 (R=0.043)  charge=  2.0051  magn=  0.0429
     atom  78 (R=0.043)  charge=  2.0022  magn=  0.0557
     atom  79 (R=0.043)  charge=  2.0019  magn=  0.0473
     atom  80 (R=0.043)  charge=  2.0055  magn=  0.0378
     atom  81 (R=0.043)  charge=  2.0022  magn=  0.0470
     atom  82 (R=0.043)  charge=  2.0057  magn=  0.0472
     atom  83 (R=0.043)  charge=  2.0020  magn=  0.0579
     atom  84 (R=0.043)  charge=  2.0035  magn=  0.0490
     atom  85 (R=0.066)  charge=  0.8126  magn=  0.0068
     atom  86 (R=0.066)  charge=  0.8179  magn=  0.0088
     atom  87 (R=0.066)  charge=  0.8158  magn=  0.0072
     atom  88 (R=0.066)  charge=  0.8155  magn=  0.0077
     atom  89 (R=0.043)  charge=  1.9959  magn=  0.0806
     atom  90 (R=0.043)  charge=  2.0022  magn=  0.0639
     atom  91 (R=0.043)  charge=  2.0000  magn=  0.0684
     atom  92 (R=0.043)  charge=  2.0008  magn=  0.0673
     atom  93 (R=0.043)  charge=  2.0021  magn=  0.0561
     atom  94 (R=0.043)  charge=  2.0094  magn=  0.0463
     atom  95 (R=0.043)  charge=  2.0041  magn=  0.0464
     atom  96 (R=0.043)  charge=  2.0110  magn=  0.0459
     atom  97 (R=0.043)  charge=  2.0011  magn=  0.0560
     atom  98 (R=0.043)  charge=  2.0010  magn=  0.0545
     atom  99 (R=0.043)  charge=  2.0018  magn=  0.0470
     atom 100 (R=0.043)  charge=  2.0060  magn=  0.0383
     atom 101 (R=0.043)  charge=  2.0026  magn=  0.0493
     atom 102 (R=0.043)  charge=  2.0056  magn=  0.0444
     atom 103 (R=0.043)  charge=  2.0005  magn=  0.0551
     atom 104 (R=0.043)  charge=  2.0060  magn=  0.0375
     atom 105 (R=0.087)  charge=  7.5035  magn=  1.5789
     atom 106 (R=0.087)  charge=  7.5225  magn=  1.4574
     atom 107 (R=0.077)  charge= 11.4282  magn=  3.5988
     atom 108 (R=0.087)  charge=  7.5164  magn=  1.4740
     atom 109 (R=0.087)  charge=  7.5286  magn=  1.5384
     atom 110 (R=0.087)  charge=  7.5221  magn=  1.5376
     atom 111 (R=0.087)  charge=  7.5061  magn=  1.5714
     atom 112 (R=0.077)  charge= 11.4225  magn=  3.6081
     atom 113 (R=0.077)  charge= 11.4336  magn=  3.6170
     atom 114 (R=0.087)  charge=  7.5166  magn=  1.4665
     atom 115 (R=0.087)  charge=  7.5314  magn=  1.5364
     atom 116 (R=0.087)  charge=  7.5241  magn=  1.5391
     atom 117 (R=0.066)  charge=  0.8165  magn=  0.0045
     atom 118 (R=0.066)  charge=  0.8134  magn=  0.0065
     atom 119 (R=0.066)  charge=  0.8147  magn=  0.0075
     atom 120 (R=0.066)  charge=  0.8202  magn=  0.0044
     atom 121 (R=0.043)  charge=  1.9992  magn=  0.0746
     atom 122 (R=0.043)  charge=  1.9948  magn=  0.0776
     atom 123 (R=0.043)  charge=  1.9987  magn=  0.0645
     atom 124 (R=0.043)  charge=  2.0004  magn=  0.0721
     atom 125 (R=0.043)  charge=  1.9905  magn=  0.0351
     atom 126 (R=0.043)  charge=  2.0044  magn=  0.0533
     atom 127 (R=0.043)  charge=  2.0049  magn=  0.0459
     atom 128 (R=0.043)  charge=  1.9905  magn=  0.0437
     atom 129 (R=0.043)  charge=  2.0043  magn=  0.0417
     atom 130 (R=0.043)  charge=  2.0031  magn=  0.0535
     atom 131 (R=0.043)  charge=  2.0012  magn=  0.0490
     atom 132 (R=0.043)  charge=  2.0074  magn=  0.0358
     atom 133 (R=0.043)  charge=  2.0024  magn=  0.0455
     atom 134 (R=0.043)  charge=  2.0042  magn=  0.0452
     atom 135 (R=0.043)  charge=  1.9992  magn=  0.0531
     atom 136 (R=0.043)  charge=  2.0029  magn=  0.0456
     atom 137 (R=0.066)  charge=  0.8165  magn=  0.0038
     atom 138 (R=0.066)  charge=  0.8170  magn=  0.0089
     atom 139 (R=0.066)  charge=  0.8149  magn=  0.0072
     atom 140 (R=0.066)  charge=  0.8182  magn=  0.0033
     atom 141 (R=0.043)  charge=  1.9978  magn=  0.0909
     atom 142 (R=0.043)  charge=  2.0017  magn=  0.0617
     atom 143 (R=0.043)  charge=  1.9976  magn=  0.0639
     atom 144 (R=0.043)  charge=  2.0037  magn=  0.0772
     atom 145 (R=0.043)  charge=  1.9874  magn=  0.0464
     atom 146 (R=0.043)  charge=  2.0105  magn=  0.0447
     atom 147 (R=0.043)  charge=  2.0045  magn=  0.0449
     atom 148 (R=0.043)  charge=  1.9877  magn=  0.0459
     atom 149 (R=0.043)  charge=  1.9996  magn=  0.0532
     atom 150 (R=0.043)  charge=  2.0026  magn=  0.0528
     atom 151 (R=0.043)  charge=  1.9994  magn=  0.0483
     atom 152 (R=0.043)  charge=  2.0071  magn=  0.0359
     atom 153 (R=0.043)  charge=  2.0034  magn=  0.0485
     atom 154 (R=0.043)  charge=  2.0056  magn=  0.0419
[...]
    -6.0156  -6.0082  -5.9935  -5.9538  -5.9255  -5.9170  -5.8972  -5.8794
    -5.8747  -5.8484  -5.8203  -5.7962  -5.7857  -5.7638  -5.7501  -5.7337
    -5.7066  -5.7002  -5.6633  -5.6421  -5.6245  -5.6097  -5.5974  -5.5687
    -5.5576  -5.5447  -5.5276  -5.5027  -5.4986  -5.4866  -5.4586  -5.4186
    -5.4064  -5.3841  -5.3332  -5.3158  -5.2683  -5.2326  -5.2091  -5.2024
    -5.1976  -5.1912  -5.1344  -5.1090  -5.0271  -4.9908  -4.9790  -4.9488
    -4.9430  -4.9287  -4.8867  -4.8305  -4.8236  -4.7614  -4.7474  -4.7379
    -4.7166  -4.6818  -4.6285  -4.6103  -4.5926  -4.5328  -4.4866  -4.4422
    -4.4222  -4.4001  -4.3857  -4.3588  -4.3226  -4.2927  -4.2642  -4.2158
    -4.1620  -4.1480  -4.1287  -4.0974  -4.0869  -4.0589  -4.0297  -3.9908
    -3.9254  -3.9005  -3.8884  -3.8500  -3.8293  -3.8005  -3.7801  -3.7721
    -3.7427  -3.7326  -3.7102  -3.6440  -3.6326  -3.6207  -3.6175  -3.6050
    -3.5963  -3.5742  -3.5407  -3.5331  -3.5297  -3.5130  -3.5052  -3.4707
    -3.4601  -3.4436  -3.4321  -3.4162  -3.3594  -3.3556  -3.3457  -3.3324
    -3.3237  -3.3146  -3.2966  -3.2769  -3.2499  -3.2302  -3.2192  -3.2137
    -3.1545  -3.1466  -3.1004  -3.0745  -3.0517  -3.0451  -3.0305  -3.0277
    -3.0131  -2.9968  -2.9584  -2.9337  -2.9171  -2.8941  -2.8755  -2.8503
    -2.8332  -2.8314  -2.7508  -2.7428  -2.7277  -2.7175  -2.7107  -2.7003
    -2.6856  -2.6710  -2.6623  -2.6512  -2.6307  -2.6239  -2.6224  -2.6076
    -2.5948  -2.5790  -2.5630  -2.5503  -2.5266  -2.5243  -2.5152  -2.5072
    -2.4608  -2.4565  -2.4358  -2.4160  -2.3821  -2.3668  -2.3533  -2.3427
    -2.3164  -2.3131  -2.2999  -2.2858  -2.2673  -2.2412  -2.2373  -2.2155
    -2.2011  -2.1549  -2.1407  -2.1337  -2.1221  -2.1005  -2.0806  -2.0737
    -2.0662  -2.0211  -2.0069  -1.9862  -1.9639  -1.9578  -1.9372  -1.9120
    -1.9016  -1.8908  -1.8795  -1.8665  -1.8570  -1.8283  -1.8185  -1.7966
    -1.7695  -1.7577  -1.7451  -1.7304  -1.7213  -1.6830  -1.6533  -1.6304
    -1.6207  -1.6081  -1.5937  -1.5478  -1.5425  -1.5247  -1.4972  -1.4784
    -1.4693  -1.4434  -1.4299  -1.4099  -1.3980  -1.3853  -1.3688  -1.3428
    -1.3279  -1.3172  -1.3109  -1.2622  -1.2499  -1.2098  -1.1766  -1.1647
    -1.1488  -1.1468  -1.1064  -1.0328  -0.9704  -0.8553  -0.8487  -0.7977
    -0.7959  -0.6989  -0.6779  -0.5741  -0.5147  -0.3661  -0.3042  -0.2031
     0.1530   0.1651   0.2091   0.2242   0.2360   0.2491   0.2684   0.2736
     0.3057   0.3138   0.3350   0.3414   0.3640   0.3703   0.3788   0.3821
     0.3850   0.3868   0.3935   0.4114   0.4134   0.4186   0.4306   0.4384
     0.4441   0.4487   0.4596   0.4668   0.4740   0.4847   0.4888   0.5036
     0.5068   0.5220   0.5226   0.5478   0.5505   0.5554   0.5576   0.5593
     0.5785   0.5851   0.6036   0.6089   0.6178   0.6308   0.6355   0.6379
     0.6553   0.6665   0.6693   0.6813   0.6871   0.7018   0.7035   0.7126
     0.7291   0.7430   0.7518   0.7643   0.7666   0.7744   0.7814   0.7955
     0.7995   0.8046   0.8163   0.8365   0.8467   0.8502   0.8591   0.8823
     0.9159   0.9669   0.9775   0.9788   1.0081   1.0370   1.0753   1.1412
     1.1914   1.7420   1.7506   1.7606   1.7651   1.7869   1.7923   1.8119
     1.8342   1.8551   1.8745   1.9098   1.9176   1.9358   1.9405   1.9888
     2.0258   2.0435   2.0569   2.0623   2.0784   2.0881   2.1213   2.1400
     2.1451   2.1573   2.1767   2.2071   2.2410   2.2441   2.2652   2.2778
     2.2999   2.3093   2.3117   2.3204   2.3282   2.3498   2.3593   2.3839
     2.3906   2.4104   2.4340   2.4739   2.4931   2.5080   2.5301   2.5786
     2.6165   2.6198   2.7305   2.7542   2.8103   2.8277   2.8669   3.3277
     3.5125   3.6077   3.6732   3.6928   3.7319   3.7629   3.8625   3.8950
     3.9169   3.9228   3.9398   3.9614   3.9711   3.9823   4.0333   4.0536
     4.0638   4.0874   4.1229   4.1389   4.1460   4.1895   4.2001   4.2209
     4.2262   4.2346   4.2575   4.2987   4.3988   4.4577   4.5746   4.7528
     4.7601   4.7927   4.8580   4.8677   4.9408   4.9649   5.0382   5.0435
     5.0855   5.0975   5.1318   5.1588   5.1945   5.2131   5.3419   6.1733
     6.3128   6.4127   6.5026   6.6391   6.6650   6.6803   6.8019   6.8243
     6.9295   6.9499   6.9703   7.0129   7.1987   7.2403   7.3241   7.3379
     7.3660   7.4581   7.4807   7.5198   7.5345   7.6233   7.6324   7.7258
     7.7867   7.8033   7.8804   7.9068   7.9213   7.9608   7.9844   8.0048
     8.0452   8.0626   8.1034   8.1340   8.1508   8.2154   8.2244   8.2492
     8.2800   8.3006   8.3364   8.3526   8.3792   8.4020   8.4133   8.4215
     8.4274   8.4733   8.5198   8.5292   8.5392   8.5748   8.5885   8.6074
     8.6130

     the Fermi energy is     1.6671 ev

!    total energy              =   -8078.59858206 Ry
     estimated scf accuracy    <       0.00000089 Ry
     smearing contrib. (-TS)   =      -0.02304666 Ry
     internal energy E=F+TS    =   -8078.57553540 Ry

     The total energy is F=E-TS. E is the sum of the following terms:
     one-electron contribution =  -94672.47708706 Ry
     hartree contribution      =   47919.44682034 Ry
     xc contribution           =   -2177.34184841 Ry
     ewald contribution        =   40853.56557620 Ry
     Dispersion Correction     =      -1.76902052 Ry
     electric field correction =       0.00002405 Ry

     total magnetization       =    95.81 Bohr mag/cell
     absolute magnetization    =    97.16 Bohr mag/cell

     convergence has been achieved in  49 iterations

     negative rho (up, down):  1.160E-03 6.324E-04

     Forces acting on atoms (cartesian axes, Ry/au):

     atom    1 type  1   force =    -0.00014897    0.00012945   -0.00011986
     atom    2 type  1   force =    -0.00029640   -0.00015118    0.00009310
     atom    3 type  2   force =    -0.00053652   -0.00031223    0.00005845
     atom    4 type  1   force =     0.00011688    0.00030842    0.00027031
     atom    5 type  1   force =    -0.00048957   -0.00009868    0.00015071
     atom    6 type  1   force =    -0.00019741   -0.00019177   -0.00010906
     atom    7 type  1   force =     0.00044721    0.00094589    0.00006301
     atom    8 type  2   force =    -0.00033063   -0.00016132    0.00007096
     atom    9 type  2   force =    -0.00285808   -0.00280384   -0.00463566
     atom   10 type  1   force =    -0.00059744    0.00016996    0.00013568
     atom   11 type  1   force =     0.00019945    0.00024934   -0.00029545
     atom   12 type  1   force =    -0.00029867   -0.00023085   -0.00019214
     atom   13 type  3   force =     0.00016899    0.00015730    0.00018977
     atom   14 type  3   force =    -0.00042745    0.00008171   -0.00029475
     atom   15 type  3   force =    -0.00002643   -0.00045897   -0.00108353
     atom   16 type  3   force =    -0.00004758   -0.00013441    0.00002899
     atom   17 type  4   force =    -0.00008647   -0.00015752    0.00003266
     atom   18 type  4   force =     0.00019139    0.00046282   -0.00043804
     atom   19 type  4   force =    -0.00004797    0.00000906   -0.00031805
     atom   20 type  4   force =     0.00016435   -0.00000179   -0.00015625
     atom   21 type  4   force =     0.00003438   -0.00027833    0.00004859
     atom   22 type  4   force =     0.00004443    0.00052283    0.00031727
     atom   23 type  4   force =    -0.00040861   -0.00020916    0.00036330
     atom   24 type  4   force =    -0.00013948   -0.00017977    0.00008149
     atom   25 type  4   force =    -0.00056752   -0.00026959    0.00011453
     atom   26 type  4   force =     0.00018328    0.00023137   -0.00079593
     atom   27 type  4   force =     0.00005400   -0.00019986    0.00061617
     atom   28 type  4   force =     0.00044166    0.00004379   -0.00009862
     atom   29 type  4   force =     0.00001901   -0.00035169    0.00012200
     atom   30 type  4   force =     0.00014655    0.00021129    0.00010387
     atom   31 type  4   force =    -0.00026849    0.00011217    0.00001423
     atom   32 type  4   force =    -0.00069649   -0.00012118   -0.00033396
     atom   33 type  3   force =    -0.00051782    0.00019512    0.00022374
     atom   34 type  3   force =    -0.00023641    0.00022347    0.00018346
     atom   35 type  3   force =     0.00059615   -0.00065279   -0.00023825
     atom   36 type  3   force =    -0.00018442   -0.00019677    0.00001466
     atom   37 type  4   force =    -0.00021344   -0.00021017   -0.00011418
     atom   38 type  4   force =    -0.00034740   -0.00026098    0.00028826
     atom   39 type  4   force =    -0.00014947    0.00003632    0.00037976
     atom   40 type  4   force =    -0.00044177    0.00019881   -0.00018406
     atom   41 type  4   force =     0.00018383    0.00020984   -0.00004421
     atom   42 type  4   force =    -0.00020070   -0.00007999   -0.00062449
     atom   43 type  4   force =    -0.00067735    0.00002801   -0.00000518
     atom   44 type  4   force =    -0.00009855   -0.00053019   -0.00016357
     atom   45 type  4   force =    -0.00039176   -0.00048888   -0.00006570
     atom   46 type  4   force =    -0.00042410   -0.00034618   -0.00006493
     atom   47 type  4   force =    -0.00023872    0.00003590   -0.00019695
     atom   48 type  4   force =     0.00068371   -0.00019698   -0.00011544
     atom   49 type  4   force =    -0.00084129   -0.00045719    0.00026240
     atom   50 type  4   force =     0.00014207   -0.00014235   -0.00016352
     atom   51 type  4   force =    -0.00017921   -0.00012064   -0.00015541
     atom   52 type  4   force =    -0.00024142   -0.00028495    0.00004328
     atom   53 type  1   force =     0.00091684    0.00121947    0.00080087
     atom   54 type  1   force =     0.00087689    0.00075468   -0.00166801
     atom   55 type  2   force =     0.00157521    0.00097671    0.00560290
     atom   56 type  1   force =    -0.00052956   -0.00109919   -0.00099525
     atom   57 type  1   force =     0.00027437    0.00006952    0.00018359
     atom   58 type  1   force =     0.00013085    0.00000454    0.00022578
     atom   59 type  1   force =     0.00172718   -0.00012037   -0.00062182
     atom   60 type  2   force =    -0.00006293    0.00008776   -0.00180448
     atom   61 type  2   force =     0.00082034    0.00118324    0.00514191
     atom   62 type  1   force =    -0.00049818   -0.00072916   -0.00110085
     atom   63 type  1   force =    -0.00024419    0.00029408    0.00011303
     atom   64 type  1   force =     0.00010511    0.00000873    0.00037775
     atom   65 type  3   force =    -0.00021132   -0.00074306   -0.00251295
     atom   66 type  3   force =     0.00020895   -0.00158675    0.00185486
     atom   67 type  3   force =     0.00079543    0.00179797    0.00183565
     atom   68 type  3   force =    -0.00068445    0.00058647   -0.00099559
     atom   69 type  4   force =    -0.00072859    0.00031472    0.00089290
     atom   70 type  4   force =    -0.00035133    0.00014488   -0.00017669
     atom   71 type  4   force =    -0.00016700   -0.00009716   -0.00084015
     atom   72 type  4   force =     0.00018752   -0.00041946    0.00153112
     atom   73 type  4   force =    -0.00080461    0.00068021    0.00185429
     atom   74 type  4   force =     0.00047407   -0.00081165   -0.00020920
     atom   75 type  4   force =    -0.00059767    0.00039289    0.00078638
     atom   76 type  4   force =     0.00003130   -0.00066426    0.00132333
     atom   77 type  4   force =    -0.00041514    0.00005282    0.00068657
     atom   78 type  4   force =     0.00011034   -0.00013575   -0.00069834
     atom   79 type  4   force =     0.00030389    0.00033126    0.00058049
     atom   80 type  4   force =     0.00000149    0.00075979   -0.00021667
     atom   81 type  4   force =     0.00002247   -0.00043098   -0.00060795
     atom   82 type  4   force =     0.00075868   -0.00034604   -0.00002937
     atom   83 type  4   force =    -0.00005781    0.00059550    0.00043844
     atom   84 type  4   force =    -0.00056335    0.00018809    0.00063085
     atom   85 type  3   force =    -0.00022761   -0.00092902   -0.00257528
     atom   86 type  3   force =     0.00026761    0.00082940    0.00292938
     atom   87 type  3   force =    -0.00004484    0.00068716    0.00106680
     atom   88 type  3   force =    -0.00079285    0.00082928   -0.00057263
     atom   89 type  4   force =    -0.00012328   -0.00014466    0.00044080
     atom   90 type  4   force =    -0.00025050   -0.00048792   -0.00107734
     atom   91 type  4   force =     0.00036385    0.00013732   -0.00101162
     atom   92 type  4   force =     0.00038751   -0.00041344    0.00108321
     atom   93 type  4   force =    -0.00012635    0.00108916    0.00104276
     atom   94 type  4   force =     0.00100804    0.00117504    0.00163421
     atom   95 type  4   force =    -0.00101824   -0.00054988    0.00082080
     atom   96 type  4   force =    -0.00004327   -0.00041174    0.00105160
     atom   97 type  4   force =    -0.00009946   -0.00048729    0.00072796
     atom   98 type  4   force =    -0.00031133    0.00007530   -0.00039401
     atom   99 type  4   force =     0.00058344   -0.00009642    0.00070207
     atom  100 type  4   force =     0.00056979    0.00029333   -0.00047542
     atom  101 type  4   force =    -0.00066437   -0.00022525   -0.00020132
     atom  102 type  4   force =     0.00147821   -0.00131151    0.00041394
     atom  103 type  4   force =     0.00035292    0.00032389    0.00029785
     atom  104 type  4   force =    -0.00001906   -0.00057436   -0.00012038
     atom  105 type  1   force =    -0.00070998    0.00197677   -0.00676081
     atom  106 type  1   force =     0.02827310    0.01369967    0.02214723
     atom  107 type  2   force =     0.00181082    0.00037408   -0.01057908
     atom  108 type  1   force =    -0.03111758    0.02304964    0.01692558
     atom  109 type  1   force =     0.00413007   -0.00291796   -0.00347287
     atom  110 type  1   force =    -0.00131222   -0.00648885   -0.00548817
     atom  111 type  1   force =    -0.00379764    0.00232092   -0.00599257
     atom  112 type  2   force =     0.03225518    0.01644344   -0.01024506
     atom  113 type  2   force =     0.00143435    0.00109330   -0.01022483
     atom  114 type  1   force =    -0.03196368    0.02433291    0.01781688
     atom  115 type  1   force =     0.00355918   -0.00482870   -0.00441887
     atom  116 type  1   force =    -0.00491464   -0.00810037   -0.00666093
     atom  117 type  3   force =    -0.02899325   -0.03570660   -0.06278055
     atom  118 type  3   force =     0.00317289    0.00035898   -0.00701248
     atom  119 type  3   force =     0.00073970   -0.00064059   -0.00912986
     atom  120 type  3   force =     0.02798523   -0.05774632   -0.08373575
     atom  121 type  4   force =    -0.00654349   -0.00323087    0.03048782
     atom  122 type  4   force =    -0.00144442   -0.00112749    0.00256980
     atom  123 type  4   force =     0.00162176   -0.00096322    0.00481808
     atom  124 type  4   force =     0.00356476    0.00314470    0.03400805
     atom  125 type  4   force =    -0.00227804   -0.00229697    0.03399315
     atom  126 type  4   force =    -0.00087647    0.00071288    0.00302300
     atom  127 type  4   force =     0.00220115    0.00313445    0.00433065
     atom  128 type  4   force =    -0.00314006   -0.00174370    0.02221649
     atom  129 type  4   force =    -0.01247372    0.03642531    0.00494673
     atom  130 type  4   force =    -0.00146446    0.00030305    0.00235277
     atom  131 type  4   force =    -0.01948486    0.00356876    0.00993490
     atom  132 type  4   force =    -0.00113279    0.00354079    0.00431665
     atom  133 type  4   force =    -0.00286645    0.00063606    0.00239998
     atom  134 type  4   force =     0.00146185   -0.00438818    0.00351908
     atom  135 type  4   force =     0.01376613    0.02363801   -0.00092917
     atom  136 type  4   force =     0.01325430   -0.00063231    0.00238825
     atom  137 type  3   force =    -0.03819164   -0.04127501   -0.06619136
     atom  138 type  3   force =     0.00647635   -0.00302154   -0.00144840
     atom  139 type  3   force =     0.00027705   -0.00159472   -0.00946789
     atom  140 type  3   force =     0.02906160   -0.05118452   -0.08330262
     atom  141 type  4   force =    -0.00103398    0.00274269    0.02936468
     atom  142 type  4   force =     0.00045243    0.00237300   -0.00631354
     atom  143 type  4   force =     0.00165885   -0.00082447    0.00421769
     atom  144 type  4   force =     0.00424099    0.00181496    0.03459374
     atom  145 type  4   force =     0.00898236    0.00382289    0.03115173
     atom  146 type  4   force =    -0.00033464    0.00057992    0.00178219
     atom  147 type  4   force =     0.00272393    0.00348007    0.00403036
     atom  148 type  4   force =    -0.00393441   -0.00139790    0.02215627
     atom  149 type  4   force =    -0.00993365    0.03019809    0.00424140
     atom  150 type  4   force =    -0.00188738    0.00037084    0.00280109
     atom  151 type  4   force =    -0.01856811    0.00503467    0.00989216
     atom  152 type  4   force =    -0.00087482    0.00344348    0.00431641
     atom  153 type  4   force =    -0.00126619    0.00026276    0.00296544
     atom  154 type  4   force =     0.00210445   -0.00257960    0.00281801
     atom  155 type  4   force =     0.01472902    0.02466317    0.00014318
     atom  156 type  4   force =     0.02241173   -0.00366368    0.00142589
     atom  157 type  4   force =     0.00606231    0.00049678    0.00511476
     atom  158 type  5   force =    -0.00253129    0.00096593   -0.00048552

     Total force =     0.237836     Total SCF correction =     0.003777
 
     init_run     :     11.08s CPU     11.77s WALL (       1 calls)
     electrons    :   1025.65s CPU   1065.68s WALL (       1 calls)
     forces       :      6.20s CPU      6.71s WALL (       1 calls)
     force_london :      0.11s CPU      0.11s WALL (       1 calls)

     Called by init_run:
     wfcinit      :      6.82s CPU      7.02s WALL (       1 calls)
     potinit      :      0.67s CPU      0.85s WALL (       1 calls)
     hinit0       :      1.96s CPU      2.05s WALL (       1 calls)

     Called by electrons:
     c_bands      :    804.04s CPU    825.91s WALL (      49 calls)
     sum_band     :    132.57s CPU    141.54s WALL (      49 calls)
     v_of_rho     :     17.02s CPU     18.62s WALL (      50 calls)
     newd         :     52.16s CPU     59.90s WALL (      50 calls)
     mix_rho      :     19.14s CPU     19.25s WALL (      49 calls)
     energy_londo :      0.12s CPU      0.12s WALL (       1 calls)

     Called by c_bands:
     init_us_2    :      1.77s CPU      1.82s WALL (     200 calls)
     init_us_2:cp :      1.77s CPU      1.81s WALL (     200 calls)
     regterg      :    788.69s CPU    810.31s WALL (     100 calls)

     Called by *egterg:
     rdiaghg      :    216.54s CPU    227.73s WALL (     492 calls)
     h_psi        :    296.78s CPU    301.19s WALL (     494 calls)
     s_psi        :     44.03s CPU     44.05s WALL (     494 calls)
     g_psi        :      0.32s CPU      0.32s WALL (     392 calls)

     Called by h_psi:
     h_psi:calbec :     76.56s CPU     79.87s WALL (     494 calls)
     vloc_psi     :    175.38s CPU    176.00s WALL (     494 calls)
     add_vuspsi   :     44.26s CPU     44.72s WALL (     494 calls)

     General routines
     calbec       :    111.45s CPU    116.36s WALL (     600 calls)
     fft          :     37.76s CPU     39.89s WALL (     913 calls)
     ffts         :     10.21s CPU     10.24s WALL (    6049 calls)
     fftw         :    194.61s CPU    195.24s WALL (  173188 calls)
     interpolate  :      1.66s CPU      1.74s WALL (     100 calls)
 
     Parallel routines
 
     PWSCF        :  17m25.06s CPU  18m 6.52s WALL

 
   This run was terminated on:  22:58:31  17Nov2025            

=------------------------------------------------------------------------------=
   JOB DONE.
=------------------------------------------------------------------------------=
