
     Program PWSCF v.7.2 starts on 17Nov2025 at 22: 4:46 

     This program is part of the open-source Quantum ESPRESSO suite
     for quantum simulation of materials; please cite
         "P. Giannozzi et al., J. Phys.:Condens. Matter 21 395502 (2009);
         "P. Giannozzi et al., J. Phys.:Condens. Matter 29 465901 (2017);
         "P. Giannozzi et al., J. Chem. Phys. 152 154105 (2020);
          URL http://www.quantum-espresso.org", 
     in publications or presentations arising from this work. More details at
     http://www.quantum-espresso.org/quote

     Parallel version (MPI), running on    64 processors

     MPI processes distributed on     4 nodes
     490886 MiB available memory on the printing compute node when the environment starts
 
     Reading input from PWINPUT_atm157_yp

     Current dimensions of program PWSCF are:
     Max number of different atomic species (ntypx) = 10
     Max number of k-points (npk) =  40000
     Max angular momentum in pseudopotentials (lmaxx) =  4
     Presently no symmetry can be used with electric field

     file Ni.pbe-n-rrkjus_psl.1.0.0.UPF: wavefunction(s)  3D renormalized
     file Mn.pbe-spn-rrkjus_psl.0.3.1.UPF: wavefunction(s)  3D renormalized
     file O.pbe-rrkjus.UPF: wavefunction(s)  2S renormalized
     file H.pbe-rrkjus.UPF: wavefunction(s)  1S renormalized

     gamma-point specific algorithms are used
 
     R & G space division:  proc/nbgrp/npool/nimage =      64
     Subspace diagonalization in iterative solution of the eigenvalue problem:
     one sub-group per band group will be used
     custom distributed-memory algorithm (size of sub-group:  7*  7 procs)

 
     Parallelization info
     --------------------
     sticks:   dense  smooth     PW     G-vecs:    dense   smooth      PW
     Min         207      82     20                60552    15302    1896
     Max         210      84     22                60574    15336    1950
     Sum       13325    5345   1333              3876045   980655  122653
 
     Using Slab Decomposition
 


     bravais-lattice index     =            0
     lattice parameter (alat)  =      17.4067  a.u.
     unit-cell volume          =   20529.8182 (a.u.)^3
     number of atoms/cell      =          158
     number of atomic types    =            5
     number of electrons       =      1093.00
     number of Kohn-Sham states=          656
     kinetic-energy cutoff     =      50.0000  Ry
     charge density cutoff     =     500.0000  Ry
     scf convergence threshold =      1.0E-06
     mixing beta               =       0.1000
     number of iterations used =            8  local-TF  mixing
     Exchange-correlation=  SLA  PW   PBE  PBE
                           (   1   4   3   4   0   0   0)

     celldm(1)=  17.406729  celldm(2)=   0.000000  celldm(3)=   0.000000
     celldm(4)=   0.000000  celldm(5)=   0.000000  celldm(6)=   0.000000

     crystal axes: (cart. coord. in units of alat)
               a(1) = (   1.000000   0.000000   0.000000 )  
               a(2) = (  -0.001404   1.105696   0.000000 )  
               a(3) = (   0.000000   0.000000   3.520448 )  

     reciprocal axes: (cart. coord. in units 2 pi/alat)
               b(1) = (  1.000000  0.001270  0.000000 )  
               b(2) = (  0.000000  0.904408  0.000000 )  
               b(3) = (  0.000000  0.000000  0.284055 )  


     PseudoPot. # 1 for Ni read from file:
     ~/PSEUDO/Ni.pbe-n-rrkjus_psl.1.0.0.UPF
     MD5 check sum: Not computed, couldn't open file
     Pseudo is Ultrasoft + core correction, Zval = 10.0
     Generated using "atomic" code by A. Dal Corso  v.5.1.2
     Using radial grid of 1195 points,  6 beta functions with: 
                l(1) =   0
                l(2) =   0
                l(3) =   1
                l(4) =   1
                l(5) =   2
                l(6) =   2
     Q(r) pseudized with 0 coefficients 


     PseudoPot. # 2 for Mn read from file:
     ~/PSEUDO/Mn.pbe-spn-rrkjus_psl.0.3.1.UPF
     MD5 check sum: Not computed, couldn't open file
     Pseudo is Ultrasoft + core correction, Zval = 15.0
     Generated using &quot;atomic&quot; code by A. Dal Corso  v.6.2.2
     Using radial grid of 1187 points,  6 beta functions with: 
                l(1) =   0
                l(2) =   0
                l(3) =   1
                l(4) =   1
                l(5) =   2
                l(6) =   2
     Q(r) pseudized with 0 coefficients 


     PseudoPot. # 3 for P  read from file:
     ~/PSEUDO/P.pbe-n-rrkjus_psl.1.0.0.UPF
     MD5 check sum: Not computed, couldn't open file
     Pseudo is Ultrasoft + core correction, Zval =  5.0
     Generated using "atomic" code by A. Dal Corso  v.5.1
     Using radial grid of 1147 points,  6 beta functions with: 
                l(1) =   0
                l(2) =   0
                l(3) =   1
                l(4) =   1
                l(5) =   2
                l(6) =   2
     Q(r) pseudized with 0 coefficients 


     PseudoPot. # 4 for O  read from file:
     ~/PSEUDO/O.pbe-rrkjus.UPF
     MD5 check sum: Not computed, couldn't open file
     Pseudo is Ultrasoft, Zval =  6.0
     Generated by new atomic code, or converted to UPF format
     Using radial grid of 1269 points,  4 beta functions with: 
                l(1) =   0
                l(2) =   0
                l(3) =   1
                l(4) =   1
     Q(r) pseudized with 0 coefficients 


     PseudoPot. # 5 for H  read from file:
     ~/PSEUDO/H.pbe-rrkjus.UPF
     MD5 check sum: Not computed, couldn't open file
     Pseudo is Ultrasoft, Zval =  1.0
     Generated by new atomic code, or converted to UPF format
     Using radial grid of 1061 points,  2 beta functions with: 
                l(1) =   0
                l(2) =   0
     Q(r) pseudized with 0 coefficients 


     atomic species   valence    mass     pseudopotential
     Ni               10.00    58.69300     Ni( 1.00)
     Mn               15.00    54.93800     Mn( 1.00)
     P                 5.00    30.97300     P ( 1.00)
     O                 6.00    15.99900     O ( 1.00)
     H                 1.00     1.00790     H ( 1.00)

     Starting magnetic structure 
     atomic species   magnetization
     Ni              1.000
     Mn              1.000
     P               1.000
     O               1.000
     H               0.000

     No symmetry found



   Cartesian axes

     site n.     atom                  positions (alat units)
         1        Ni     tau(   1) = (   0.2421002   0.8609138   0.1302181  )
         2        Mn     tau(   2) = (   0.4924481   0.7886602   0.4655392  )
         3        Ni     tau(   3) = (   0.0052341   0.3031820   0.1284544  )
         4        Ni     tau(   4) = (   0.2570603   0.2374878   0.4617901  )
         5        Ni     tau(   5) = (   0.4976584   1.1048203   0.2964410  )
         6        Ni     tau(   6) = (   0.2495781   0.5440308   0.2953805  )
         7        P      tau(   7) = (   0.2083492   0.9982113   0.4588145  )
         8        P      tau(   8) = (   0.4584476   0.6559264   0.1347090  )
         9        P      tau(   9) = (   0.2889394   0.1031966   0.1319347  )
        10        P      tau(  10) = (   0.0400379   0.4338094   0.4586283  )
        11        O      tau(  11) = (   0.1314218   0.9248062   0.3189972  )
        12        O      tau(  12) = (   0.3797244   0.7272031   0.2742874  )
        13        O      tau(  13) = (   0.3662315   0.1762062   0.2720888  )
        14        O      tau(  14) = (   0.1171240   0.3646150   0.3169340  )
        15        O      tau(  15) = (   0.1510364   0.9068326   0.5881934  )
        16        O      tau(  16) = (   0.3981989   0.7453439   0.0053495  )
        17        O      tau(  17) = (   0.3490561   0.1888693   0.0010856  )
        18        O      tau(  18) = (   0.0982395   0.3475583   0.5894443  )
        19        O      tau(  19) = (   0.0992163   0.5918099   0.4542505  )
        20        O      tau(  20) = (   0.3467441   1.0504690   0.1405000  )
        21        O      tau(  21) = (   0.3739183   0.4303319   0.4477971  )
        22        O      tau(  22) = (   0.1230967   0.1088895   0.1422960  )
        23        O      tau(  23) = (   0.1242901   0.6635968   0.1442928  )
        24        O      tau(  24) = (   0.4011802   0.4971632   0.1376281  )
        25        O      tau(  25) = (   0.1484006   0.0497464   0.4550965  )
        26        O      tau(  26) = (   0.3736100   0.9942556   0.4492158  )
        27        Ni     tau(  27) = (   0.2413539   0.8509941   0.7820408  )
        28        Mn     tau(  28) = (   0.4917018   0.7787406   1.1173619  )
        29        Ni     tau(  29) = (   0.0044877   0.2932623   0.7802771  )
        30        Ni     tau(  30) = (   0.2563139   0.2275682   1.1136128  )
        31        Ni     tau(  31) = (   0.4969120   1.0949007   0.9482637  )
        32        Ni     tau(  32) = (   0.2488318   0.5341111   0.9472032  )
        33        P      tau(  33) = (   0.2076029   0.9882917   1.1106372  )
        34        P      tau(  34) = (   0.4577012   0.6460068   0.7865316  )
        35        P      tau(  35) = (   0.2881931   0.0932770   0.7837574  )
        36        P      tau(  36) = (   0.0392916   0.4238898   1.1104509  )
        37        O      tau(  37) = (   0.1306755   0.9148866   0.9708199  )
        38        O      tau(  38) = (   0.3789780   0.7172835   0.9261101  )
        39        O      tau(  39) = (   0.3654852   0.1662865   0.9239115  )
        40        O      tau(  40) = (   0.1163776   0.3546954   0.9687567  )
        41        O      tau(  41) = (   0.1502901   0.8969129   1.2400160  )
        42        O      tau(  42) = (   0.3974525   0.7354243   0.6571722  )
        43        O      tau(  43) = (   0.3483097   0.1789497   0.6529083  )
        44        O      tau(  44) = (   0.0974932   0.3376387   1.2412670  )
        45        O      tau(  45) = (   0.0984699   0.5818903   1.1060732  )
        46        O      tau(  46) = (   0.3459978   1.0405493   0.7923226  )
        47        O      tau(  47) = (   0.3731719   0.4204123   1.0996198  )
        48        O      tau(  48) = (   0.1223503   0.0989699   0.7941187  )
        49        O      tau(  49) = (   0.1235438   0.6536772   0.7961155  )
        50        O      tau(  50) = (   0.4004339   0.4872435   0.7894508  )
        51        O      tau(  51) = (   0.1476543   0.0398268   1.1069192  )
        52        O      tau(  52) = (   0.3728637   0.9843360   1.1010385  )
        53        Ni     tau(  53) = (   0.2411808   0.8324089   1.4309579  )
        54        Mn     tau(  54) = (   0.4946671   0.7639191   1.7613784  )
        55        Ni     tau(  55) = (   0.0045903   0.2758768   1.4289237  )
        56        Ni     tau(  56) = (   0.2582374   0.2038640   1.7770492  )
        57        Ni     tau(  57) = (   0.4995768   1.0765738   1.5968468  )
        58        Ni     tau(  58) = (   0.2446418   0.5161336   1.5986178  )
        59        P      tau(  59) = (   0.2110282   0.9624759   1.7570741  )
        60        P      tau(  60) = (   0.4555417   0.6266544   1.4355841  )
        61        P      tau(  61) = (   0.2894304   0.0771248   1.4326669  )
        62        P      tau(  62) = (   0.0328189   0.3995898   1.7561322  )
        63        O      tau(  63) = (   0.1349035   0.8971112   1.6106303  )
        64        O      tau(  64) = (   0.3788937   0.6993990   1.5743359  )
        65        O      tau(  65) = (   0.3659027   0.1511080   1.5708695  )
        66        O      tau(  66) = (   0.1105339   0.3441016   1.6092044  )
        67        O      tau(  67) = (   0.1557886   0.8603680   1.8762740  )
        68        O      tau(  68) = (   0.3942965   0.7173118   1.3080767  )
        69        O      tau(  69) = (   0.3497106   0.1654865   1.3026958  )
        70        O      tau(  70) = (   0.0882498   0.2997460   1.8754938  )
        71        O      tau(  71) = (   0.0879634   0.5612479   1.7635252  )
        72        O      tau(  72) = (   0.3490189   1.0246514   1.4369127  )
        73        O      tau(  73) = (   0.3670773   0.4040889   1.7520727  )
        74        O      tau(  74) = (   0.1226660   0.0818304   1.4423052  )
        75        O      tau(  75) = (   0.1225220   0.6345628   1.4463845  )
        76        O      tau(  76) = (   0.3964037   0.4688262   1.4379717  )
        77        O      tau(  77) = (   0.1495563   0.0133210   1.7552094  )
        78        O      tau(  78) = (   0.3782473   0.9569750   1.7438122  )
        79        Ni     tau(  79) = (   0.7421002   0.8609138   0.1302181  )
        80        Mn     tau(  80) = (   0.9924481   0.7886602   0.4655392  )
        81        Ni     tau(  81) = (   0.5052341   0.3031820   0.1284544  )
        82        Ni     tau(  82) = (   0.7570603   0.2374878   0.4617901  )
        83        Ni     tau(  83) = (   0.9976584   1.1048203   0.2964410  )
        84        Ni     tau(  84) = (   0.7495781   0.5440308   0.2953805  )
        85        P      tau(  85) = (   0.7083492   0.9982113   0.4588145  )
        86        P      tau(  86) = (   0.9584476   0.6559264   0.1347090  )
        87        P      tau(  87) = (   0.7889394   0.1031966   0.1319347  )
        88        P      tau(  88) = (   0.5400379   0.4338094   0.4586283  )
        89        O      tau(  89) = (   0.6314218   0.9248062   0.3189972  )
        90        O      tau(  90) = (   0.8797244   0.7272031   0.2742874  )
        91        O      tau(  91) = (   0.8662315   0.1762062   0.2720888  )
        92        O      tau(  92) = (   0.6171240   0.3646150   0.3169340  )
        93        O      tau(  93) = (   0.6510364   0.9068326   0.5881934  )
        94        O      tau(  94) = (   0.8981989   0.7453439   0.0053495  )
        95        O      tau(  95) = (   0.8490561   0.1888693   0.0010856  )
        96        O      tau(  96) = (   0.5982395   0.3475583   0.5894443  )
        97        O      tau(  97) = (   0.5992163   0.5918099   0.4542505  )
        98        O      tau(  98) = (   0.8467441   1.0504690   0.1405000  )
        99        O      tau(  99) = (   0.8739183   0.4303319   0.4477971  )
       100        O      tau( 100) = (   0.6230967   0.1088895   0.1422960  )
       101        O      tau( 101) = (   0.6242901   0.6635968   0.1442928  )
       102        O      tau( 102) = (   0.9011802   0.4971632   0.1376281  )
       103        O      tau( 103) = (   0.6484006   0.0497464   0.4550965  )
       104        O      tau( 104) = (   0.8736100   0.9942556   0.4492158  )
       105        Ni     tau( 105) = (   0.7413539   0.8509941   0.7820408  )
       106        Mn     tau( 106) = (   0.9917018   0.7787406   1.1173619  )
       107        Ni     tau( 107) = (   0.5044877   0.2932623   0.7802771  )
       108        Ni     tau( 108) = (   0.7563139   0.2275682   1.1136128  )
       109        Ni     tau( 109) = (   0.9969120   1.0949007   0.9482637  )
       110        Ni     tau( 110) = (   0.7488318   0.5341111   0.9472032  )
       111        P      tau( 111) = (   0.7076029   0.9882917   1.1106372  )
       112        P      tau( 112) = (   0.9577012   0.6460068   0.7865316  )
       113        P      tau( 113) = (   0.7881931   0.0932770   0.7837574  )
       114        P      tau( 114) = (   0.5392916   0.4238898   1.1104509  )
       115        O      tau( 115) = (   0.6306755   0.9148866   0.9708199  )
       116        O      tau( 116) = (   0.8789780   0.7172835   0.9261101  )
       117        O      tau( 117) = (   0.8654852   0.1662865   0.9239115  )
       118        O      tau( 118) = (   0.6163776   0.3546954   0.9687567  )
       119        O      tau( 119) = (   0.6502901   0.8969129   1.2400160  )
       120        O      tau( 120) = (   0.8974525   0.7354243   0.6571722  )
       121        O      tau( 121) = (   0.8483097   0.1789497   0.6529083  )
       122        O      tau( 122) = (   0.5974932   0.3376387   1.2412670  )
       123        O      tau( 123) = (   0.5984699   0.5818903   1.1060732  )
       124        O      tau( 124) = (   0.8459978   1.0405493   0.7923226  )
       125        O      tau( 125) = (   0.8731719   0.4204123   1.0996198  )
       126        O      tau( 126) = (   0.6223503   0.0989699   0.7941187  )
       127        O      tau( 127) = (   0.6235438   0.6536772   0.7961155  )
       128        O      tau( 128) = (   0.9004339   0.4872435   0.7894508  )
       129        O      tau( 129) = (   0.6476543   0.0398268   1.1069192  )
       130        O      tau( 130) = (   0.8728637   0.9843360   1.1010385  )
       131        Ni     tau( 131) = (   0.7410267   0.8325162   1.4305848  )
       132        Mn     tau( 132) = (   0.9957516   0.7600299   1.7607963  )
       133        Ni     tau( 133) = (   0.5040907   0.2758675   1.4300929  )
       134        Ni     tau( 134) = (   0.7492107   0.2133490   1.7410454  )
       135        Ni     tau( 135) = (   1.0009965   1.0739722   1.5938039  )
       136        Ni     tau( 136) = (   0.7435634   0.5197355   1.5956846  )
       137        P      tau( 137) = (   0.7125069   0.9656475   1.7574601  )
       138        P      tau( 138) = (   0.9562771   0.6261995   1.4348061  )
       139        P      tau( 139) = (   0.7897796   0.0749975   1.4289502  )
       140        P      tau( 140) = (   0.5344908   0.4056646   1.7624424  )
       141        O      tau( 141) = (   0.6363110   0.9022539   1.6111310  )
       142        O      tau( 142) = (   0.8791375   0.6993590   1.5736065  )
       143        O      tau( 143) = (   0.8677034   0.1479917   1.5677577  )
       144        O      tau( 144) = (   0.6096326   0.3453508   1.6130362  )
       145        O      tau( 145) = (   0.6538676   0.8663746   1.8771614  )
       146        O      tau( 146) = (   0.8948308   0.7180504   1.3081207  )
       147        O      tau( 147) = (   0.8505931   0.1642134   1.3003625  )
       148        O      tau( 148) = (   0.5994798   0.3097877   1.8805913  )
       149        O      tau( 149) = (   0.5905617   0.5666921   1.7630040  )
       150        O      tau( 150) = (   0.8496482   1.0230984   1.4339530  )
       151        O      tau( 151) = (   0.8648476   0.4011035   1.7429415  )
       152        O      tau( 152) = (   0.6235315   0.0826198   1.4430822  )
       153        O      tau( 153) = (   0.6220766   0.6363263   1.4460487  )
       154        O      tau( 154) = (   0.8951957   0.4690084   1.4354565  )
       155        O      tau( 155) = (   0.6579777   0.0195851   1.7588791  )
       156        O      tau( 156) = (   0.8798126   0.9576364   1.7467312  )
       157        O      tau( 157) = (   0.3700635   0.1208406   1.9168676  )
       158        H      tau( 158) = (   0.4553109   0.1803133   1.9415520  )

     -------------------------------------------------
     Parameters for Dispersion (Grimme-D2) Correction:
     -------------------------------------------------
       atom      VdW radius       C_6     

        Ni         2.952        374.666
        Mn         2.952        374.666
        P          3.222        271.980
        O          2.536         24.284
        H          1.892          4.857

     number of k points=     1  Gaussian smearing, width (Ry)=  0.0100
                       cart. coord. in units 2pi/alat
        k(    1) = (   0.0000000   0.0000000   0.0000000), wk =   1.0000000

     Dense  grid:  1938023 G-vectors     FFT dimensions: ( 125, 144, 450)

     Smooth grid:   490328 G-vectors     FFT dimensions: (  80,  90, 288)

     Estimated max dynamical RAM per process >     326.29 MB

     Estimated total dynamical RAM >      20.39 GB

     Check: negative core charge=   -0.000001
     Generating pointlists ...
     new r_m :   0.0814 (alat units)  1.4170 (a.u.) for type    1
     new r_m :   0.0904 (alat units)  1.5735 (a.u.) for type    2
     new r_m :   0.0681 (alat units)  1.1861 (a.u.) for type    3
     new r_m :   0.0441 (alat units)  0.7671 (a.u.) for type    4
     new r_m :   0.0441 (alat units)  0.7671 (a.u.) for type    5

     Initial potential from superposition of free atoms

     starting charge    1092.8893, renormalised to    1093.0000

     negative rho (up, down):  1.374E-03 4.518E-04
 
     Adding external electric field

     Computed dipole along edir(3) : 
        Dipole                1.6504 Ry au,          4.1949 Debye
        Dipole field          0.0010 Ry au, 
 
        Potential amp.       -0.1114 Ry
        Total length         55.1515 bohr
 
 
     Adding external electric field

     Computed dipole along edir(3) : 
        Dipole                1.6504 Ry au,          4.1949 Debye
        Dipole field          0.0010 Ry au, 
 
        Potential amp.       -0.1114 Ry
        Total length         55.1515 bohr
 
     Starting wfcs are  815 randomized atomic wfcs

     total cpu time spent up to now is       11.0 secs

     Self-consistent Calculation

     iteration #  1     ecut=    50.00 Ry     beta= 0.10
     Davidson diagonalization with overlap
     ethr =  1.00E-02,  avg # of iterations =  6.0

     negative rho (up, down):  4.143E-01 3.028E-06
 
     Adding external electric field

     Computed dipole along edir(3) : 
        Dipole               -2.8901 Ry au,         -7.3460 Debye
        Dipole field         -0.0018 Ry au, 
 
        Potential amp.        0.1951 Ry
        Total length         55.1515 bohr
 
 
     Adding external electric field

     Computed dipole along edir(3) : 
        Dipole               -2.8901 Ry au,         -7.3460 Debye
        Dipole field         -0.0018 Ry au, 
 
        Potential amp.        0.1951 Ry
        Total length         55.1515 bohr
 

     total cpu time spent up to now is       42.2 secs

     total energy              =   -7521.38025245 Ry
     estimated scf accuracy    <     750.51935901 Ry

     total magnetization       =   219.00 Bohr mag/cell
     absolute magnetization    =   307.88 Bohr mag/cell

     iteration #  2     ecut=    50.00 Ry     beta= 0.10
     Davidson diagonalization with overlap
     ethr =  1.00E-02,  avg # of iterations =  2.0

     negative rho (up, down):  3.721E-01 3.524E-06
 
     Adding external electric field

     Computed dipole along edir(3) : 
        Dipole               -2.3222 Ry au,         -5.9024 Debye
        Dipole field         -0.0014 Ry au, 
 
        Potential amp.        0.1568 Ry
        Total length         55.1515 bohr
 
 
     Adding external electric field

     Computed dipole along edir(3) : 
        Dipole               -2.3222 Ry au,         -5.9024 Debye
        Dipole field         -0.0014 Ry au, 
 
        Potential amp.        0.1568 Ry
        Total length         55.1515 bohr
 

     total cpu time spent up to now is       60.6 secs

     total energy              =   -7605.94622853 Ry
     estimated scf accuracy    <     134.16984562 Ry

     total magnetization       =   148.84 Bohr mag/cell
     absolute magnetization    =   200.49 Bohr mag/cell

     iteration #  3     ecut=    50.00 Ry     beta= 0.10
     Davidson diagonalization with overlap
     ethr =  1.00E-02,  avg # of iterations =  1.0

     negative rho (up, down):  3.171E-01 3.945E-06
 
     Adding external electric field

     Computed dipole along edir(3) : 
        Dipole               -1.8932 Ry au,         -4.8120 Debye
        Dipole field         -0.0012 Ry au, 
 
        Potential amp.        0.1278 Ry
        Total length         55.1515 bohr
 
 
     Adding external electric field

     Computed dipole along edir(3) : 
        Dipole               -1.8932 Ry au,         -4.8120 Debye
        Dipole field         -0.0012 Ry au, 
 
        Potential amp.        0.1278 Ry
        Total length         55.1515 bohr
 

     total cpu time spent up to now is       73.8 secs

     total energy              =   -7640.88510204 Ry
     estimated scf accuracy    <      98.21822242 Ry

     total magnetization       =   128.36 Bohr mag/cell
     absolute magnetization    =   180.31 Bohr mag/cell

     iteration #  4     ecut=    50.00 Ry     beta= 0.10
     Davidson diagonalization with overlap
     ethr =  8.99E-03,  avg # of iterations =  1.0

     negative rho (up, down):  2.433E-01 5.171E-07
 
     Adding external electric field

     Computed dipole along edir(3) : 
        Dipole               -1.8375 Ry au,         -4.6704 Debye
        Dipole field         -0.0011 Ry au, 
 
        Potential amp.        0.1241 Ry
        Total length         55.1515 bohr
 
 
     Adding external electric field

     Computed dipole along edir(3) : 
        Dipole               -1.8375 Ry au,         -4.6704 Debye
        Dipole field         -0.0011 Ry au, 
 
        Potential amp.        0.1241 Ry
        Total length         55.1515 bohr
 

     total cpu time spent up to now is       86.9 secs

     total energy              =   -7671.63856647 Ry
     estimated scf accuracy    <      77.29769504 Ry

     total magnetization       =   109.38 Bohr mag/cell
     absolute magnetization    =   164.83 Bohr mag/cell

     iteration #  5     ecut=    50.00 Ry     beta= 0.10
     Davidson diagonalization with overlap
     ethr =  7.07E-03,  avg # of iterations =  1.0

     negative rho (up, down):  1.020E-03 2.505E-07
 
     Adding external electric field

     Computed dipole along edir(3) : 
        Dipole               -1.0785 Ry au,         -2.7414 Debye
        Dipole field         -0.0007 Ry au, 
 
        Potential amp.        0.0728 Ry
        Total length         55.1515 bohr
 
 
     Adding external electric field

     Computed dipole along edir(3) : 
        Dipole               -1.0785 Ry au,         -2.7414 Debye
        Dipole field         -0.0007 Ry au, 
 
        Potential amp.        0.0728 Ry
        Total length         55.1515 bohr
 

     total cpu time spent up to now is      100.0 secs

     total energy              =   -7731.30010644 Ry
     estimated scf accuracy    <      59.25336012 Ry

     total magnetization       =    97.00 Bohr mag/cell
     absolute magnetization    =   149.52 Bohr mag/cell

     iteration #  6     ecut=    50.00 Ry     beta= 0.10
     Davidson diagonalization with overlap
     ethr =  5.42E-03,  avg # of iterations =  2.0

     negative rho (up, down):  1.068E-04 1.238E-04
 
     Adding external electric field

     Computed dipole along edir(3) : 
        Dipole               -0.7495 Ry au,         -1.9050 Debye
        Dipole field         -0.0005 Ry au, 
 
        Potential amp.        0.0506 Ry
        Total length         55.1515 bohr
 
 
     Adding external electric field

     Computed dipole along edir(3) : 
        Dipole               -0.7495 Ry au,         -1.9050 Debye
        Dipole field         -0.0005 Ry au, 
 
        Potential amp.        0.0506 Ry
        Total length         55.1515 bohr
 

     total cpu time spent up to now is      115.4 secs

     total energy              =   -7736.79026404 Ry
     estimated scf accuracy    <      13.88242971 Ry

     total magnetization       =    80.02 Bohr mag/cell
     absolute magnetization    =   107.40 Bohr mag/cell

     iteration #  7     ecut=    50.00 Ry     beta= 0.10
     Davidson diagonalization with overlap
     ethr =  1.27E-03,  avg # of iterations =  6.0

     negative rho (up, down):  6.562E-05 9.622E-05
 
     Adding external electric field

     Computed dipole along edir(3) : 
        Dipole               -0.8913 Ry au,         -2.2654 Debye
        Dipole field         -0.0005 Ry au, 
 
        Potential amp.        0.0602 Ry
        Total length         55.1515 bohr
 
 
     Adding external electric field

     Computed dipole along edir(3) : 
        Dipole               -0.8913 Ry au,         -2.2654 Debye
        Dipole field         -0.0005 Ry au, 
 
        Potential amp.        0.0602 Ry
        Total length         55.1515 bohr
 

     total cpu time spent up to now is      137.0 secs

     total energy              =   -7738.22161218 Ry
     estimated scf accuracy    <      17.42159283 Ry

     total magnetization       =    71.19 Bohr mag/cell
     absolute magnetization    =    90.87 Bohr mag/cell

     iteration #  8     ecut=    50.00 Ry     beta= 0.10
     Davidson diagonalization with overlap
     ethr =  1.27E-03,  avg # of iterations =  1.0

     negative rho (up, down):  2.950E-04 5.244E-04
 
     Adding external electric field

     Computed dipole along edir(3) : 
        Dipole               -0.4169 Ry au,         -1.0597 Debye
        Dipole field         -0.0003 Ry au, 
 
        Potential amp.        0.0281 Ry
        Total length         55.1515 bohr
 
 
     Adding external electric field

     Computed dipole along edir(3) : 
        Dipole               -0.4169 Ry au,         -1.0597 Debye
        Dipole field         -0.0003 Ry au, 
 
        Potential amp.        0.0281 Ry
        Total length         55.1515 bohr
 

     total cpu time spent up to now is      149.6 secs

     total energy              =   -7736.63222376 Ry
     estimated scf accuracy    <      27.64273600 Ry

     total magnetization       =    69.42 Bohr mag/cell
     absolute magnetization    =    88.43 Bohr mag/cell

     iteration #  9     ecut=    50.00 Ry     beta= 0.10
     Davidson diagonalization with overlap
     ethr =  1.27E-03,  avg # of iterations =  2.0

     negative rho (up, down):  1.327E-04 3.507E-04
 
     Adding external electric field

     Computed dipole along edir(3) : 
        Dipole               -0.4642 Ry au,         -1.1798 Debye
        Dipole field         -0.0003 Ry au, 
 
        Potential amp.        0.0313 Ry
        Total length         55.1515 bohr
 
 
     Adding external electric field

     Computed dipole along edir(3) : 
        Dipole               -0.4642 Ry au,         -1.1798 Debye
        Dipole field         -0.0003 Ry au, 
 
        Potential amp.        0.0313 Ry
        Total length         55.1515 bohr
 

     total cpu time spent up to now is      163.8 secs

     total energy              =   -7737.82134099 Ry
     estimated scf accuracy    <       2.63418367 Ry

     total magnetization       =    90.79 Bohr mag/cell
     absolute magnetization    =   103.36 Bohr mag/cell

     iteration # 10     ecut=    50.00 Ry     beta= 0.10
     Davidson diagonalization with overlap
     ethr =  2.41E-04,  avg # of iterations =  2.0

     negative rho (up, down):  9.828E-05 2.771E-04
 
     Adding external electric field

     Computed dipole along edir(3) : 
        Dipole               -0.4642 Ry au,         -1.1799 Debye
        Dipole field         -0.0003 Ry au, 
 
        Potential amp.        0.0313 Ry
        Total length         55.1515 bohr
 
 
     Adding external electric field

     Computed dipole along edir(3) : 
        Dipole               -0.4642 Ry au,         -1.1799 Debye
        Dipole field         -0.0003 Ry au, 
 
        Potential amp.        0.0313 Ry
        Total length         55.1515 bohr
 

     total cpu time spent up to now is      177.5 secs

     total energy              =   -7737.87367871 Ry
     estimated scf accuracy    <       1.27549188 Ry

     total magnetization       =    89.26 Bohr mag/cell
     absolute magnetization    =   100.90 Bohr mag/cell

     iteration # 11     ecut=    50.00 Ry     beta= 0.10
     Davidson diagonalization with overlap
     ethr =  1.17E-04,  avg # of iterations = 12.5

     negative rho (up, down):  1.886E-05 1.101E-04
 
     Adding external electric field

     Computed dipole along edir(3) : 
        Dipole               -0.4323 Ry au,         -1.0989 Debye
        Dipole field         -0.0003 Ry au, 
 
        Potential amp.        0.0292 Ry
        Total length         55.1515 bohr
 
 
     Adding external electric field

     Computed dipole along edir(3) : 
        Dipole               -0.4323 Ry au,         -1.0989 Debye
        Dipole field         -0.0003 Ry au, 
 
        Potential amp.        0.0292 Ry
        Total length         55.1515 bohr
 

     total cpu time spent up to now is      202.6 secs

     total energy              =   -7737.96295180 Ry
     estimated scf accuracy    <       1.13616243 Ry

     total magnetization       =    89.10 Bohr mag/cell
     absolute magnetization    =    99.74 Bohr mag/cell

     iteration # 12     ecut=    50.00 Ry     beta= 0.10
     Davidson diagonalization with overlap
     ethr =  1.04E-04,  avg # of iterations =  2.0

     negative rho (up, down):  1.260E-05 1.001E-04
 
     Adding external electric field

     Computed dipole along edir(3) : 
        Dipole               -0.4416 Ry au,         -1.1223 Debye
        Dipole field         -0.0003 Ry au, 
 
        Potential amp.        0.0298 Ry
        Total length         55.1515 bohr
 
 
     Adding external electric field

     Computed dipole along edir(3) : 
        Dipole               -0.4416 Ry au,         -1.1223 Debye
        Dipole field         -0.0003 Ry au, 
 
        Potential amp.        0.0298 Ry
        Total length         55.1515 bohr
 

     total cpu time spent up to now is      216.7 secs

     total energy              =   -7737.99232759 Ry
     estimated scf accuracy    <       1.44271266 Ry

     total magnetization       =    86.91 Bohr mag/cell
     absolute magnetization    =    95.80 Bohr mag/cell

     iteration # 13     ecut=    50.00 Ry     beta= 0.10
     Davidson diagonalization with overlap
     ethr =  1.04E-04,  avg # of iterations =  1.0

     negative rho (up, down):  1.168E-04 3.229E-04
 
     Adding external electric field

     Computed dipole along edir(3) : 
        Dipole               -0.3641 Ry au,         -0.9254 Debye
        Dipole field         -0.0002 Ry au, 
 
        Potential amp.        0.0246 Ry
        Total length         55.1515 bohr
 
 
     Adding external electric field

     Computed dipole along edir(3) : 
        Dipole               -0.3641 Ry au,         -0.9254 Debye
        Dipole field         -0.0002 Ry au, 
 
        Potential amp.        0.0246 Ry
        Total length         55.1515 bohr
 

     total cpu time spent up to now is      229.1 secs

     total energy              =   -7738.13481928 Ry
     estimated scf accuracy    <       1.16591901 Ry

     total magnetization       =    86.51 Bohr mag/cell
     absolute magnetization    =    95.15 Bohr mag/cell

     iteration # 14     ecut=    50.00 Ry     beta= 0.10
     Davidson diagonalization with overlap
     ethr =  1.04E-04,  avg # of iterations =  2.0

     negative rho (up, down):  2.351E-05 3.730E-04
 
     Adding external electric field

     Computed dipole along edir(3) : 
        Dipole               -0.3591 Ry au,         -0.9127 Debye
        Dipole field         -0.0002 Ry au, 
 
        Potential amp.        0.0242 Ry
        Total length         55.1515 bohr
 
 
     Adding external electric field

     Computed dipole along edir(3) : 
        Dipole               -0.3591 Ry au,         -0.9127 Debye
        Dipole field         -0.0002 Ry au, 
 
        Potential amp.        0.0242 Ry
        Total length         55.1515 bohr
 

     total cpu time spent up to now is      243.5 secs

     total energy              =   -7738.21507477 Ry
     estimated scf accuracy    <       1.02155416 Ry

     total magnetization       =    90.89 Bohr mag/cell
     absolute magnetization    =    95.71 Bohr mag/cell

     iteration # 15     ecut=    50.00 Ry     beta= 0.10
     Davidson diagonalization with overlap
     ethr =  9.35E-05,  avg # of iterations =  1.5

     negative rho (up, down):  1.599E-05 5.157E-04
 
     Adding external electric field

     Computed dipole along edir(3) : 
        Dipole               -0.3390 Ry au,         -0.8617 Debye
        Dipole field         -0.0002 Ry au, 
 
        Potential amp.        0.0229 Ry
        Total length         55.1515 bohr
 
 
     Adding external electric field

     Computed dipole along edir(3) : 
        Dipole               -0.3390 Ry au,         -0.8617 Debye
        Dipole field         -0.0002 Ry au, 
 
        Potential amp.        0.0229 Ry
        Total length         55.1515 bohr
 

     total cpu time spent up to now is      257.2 secs

     total energy              =   -7738.22117487 Ry
     estimated scf accuracy    <       0.46982605 Ry

     total magnetization       =    89.92 Bohr mag/cell
     absolute magnetization    =    94.19 Bohr mag/cell

     iteration # 16     ecut=    50.00 Ry     beta= 0.10
     Davidson diagonalization with overlap
     ethr =  4.30E-05,  avg # of iterations =  2.0

     negative rho (up, down):  2.165E-04 1.277E-03
 
     Adding external electric field

     Computed dipole along edir(3) : 
        Dipole               -0.3087 Ry au,         -0.7846 Debye
        Dipole field         -0.0002 Ry au, 
 
        Potential amp.        0.0208 Ry
        Total length         55.1515 bohr
 
 
     Adding external electric field

     Computed dipole along edir(3) : 
        Dipole               -0.3087 Ry au,         -0.7846 Debye
        Dipole field         -0.0002 Ry au, 
 
        Potential amp.        0.0208 Ry
        Total length         55.1515 bohr
 

     total cpu time spent up to now is      271.0 secs

     total energy              =   -7738.26879533 Ry
     estimated scf accuracy    <       0.39555180 Ry

     total magnetization       =    89.28 Bohr mag/cell
     absolute magnetization    =    93.11 Bohr mag/cell

     iteration # 17     ecut=    50.00 Ry     beta= 0.10
     Davidson diagonalization with overlap
     ethr =  3.62E-05,  avg # of iterations =  2.0

     negative rho (up, down):  2.061E-04 2.222E-03
 
     Adding external electric field

     Computed dipole along edir(3) : 
        Dipole               -0.2768 Ry au,         -0.7036 Debye
        Dipole field         -0.0002 Ry au, 
 
        Potential amp.        0.0187 Ry
        Total length         55.1515 bohr
 
 
     Adding external electric field

     Computed dipole along edir(3) : 
        Dipole               -0.2768 Ry au,         -0.7036 Debye
        Dipole field         -0.0002 Ry au, 
 
        Potential amp.        0.0187 Ry
        Total length         55.1515 bohr
 

     total cpu time spent up to now is      285.1 secs

     total energy              =   -7738.22658757 Ry
     estimated scf accuracy    <       0.52457989 Ry

     total magnetization       =    90.18 Bohr mag/cell
     absolute magnetization    =    92.96 Bohr mag/cell

     iteration # 18     ecut=    50.00 Ry     beta= 0.10
     Davidson diagonalization with overlap
     ethr =  3.62E-05,  avg # of iterations =  2.0

     negative rho (up, down):  1.009E-04 1.806E-03
 
     Adding external electric field

     Computed dipole along edir(3) : 
        Dipole               -0.2835 Ry au,         -0.7206 Debye
        Dipole field         -0.0002 Ry au, 
 
        Potential amp.        0.0191 Ry
        Total length         55.1515 bohr
 
 
     Adding external electric field

     Computed dipole along edir(3) : 
        Dipole               -0.2835 Ry au,         -0.7206 Debye
        Dipole field         -0.0002 Ry au, 
 
        Potential amp.        0.0191 Ry
        Total length         55.1515 bohr
 

     total cpu time spent up to now is      299.1 secs

     total energy              =   -7738.23036102 Ry
     estimated scf accuracy    <       0.30900632 Ry

     total magnetization       =    88.58 Bohr mag/cell
     absolute magnetization    =    90.71 Bohr mag/cell

     iteration # 19     ecut=    50.00 Ry     beta= 0.10
     Davidson diagonalization with overlap
     ethr =  2.83E-05,  avg # of iterations =  2.0

     negative rho (up, down):  6.377E-05 1.816E-03
 
     Adding external electric field

     Computed dipole along edir(3) : 
        Dipole               -0.2578 Ry au,         -0.6552 Debye
        Dipole field         -0.0002 Ry au, 
 
        Potential amp.        0.0174 Ry
        Total length         55.1515 bohr
 
 
     Adding external electric field

     Computed dipole along edir(3) : 
        Dipole               -0.2578 Ry au,         -0.6552 Debye
        Dipole field         -0.0002 Ry au, 
 
        Potential amp.        0.0174 Ry
        Total length         55.1515 bohr
 

     total cpu time spent up to now is      312.9 secs

     total energy              =   -7738.23417084 Ry
     estimated scf accuracy    <       0.24497625 Ry

     total magnetization       =    88.46 Bohr mag/cell
     absolute magnetization    =    90.64 Bohr mag/cell

     iteration # 20     ecut=    50.00 Ry     beta= 0.10
     Davidson diagonalization with overlap
     ethr =  2.24E-05,  avg # of iterations =  9.5

     negative rho (up, down):  0.000E+00 7.325E-04
 
     Adding external electric field

     Computed dipole along edir(3) : 
        Dipole               -0.1796 Ry au,         -0.4565 Debye
        Dipole field         -0.0001 Ry au, 
 
        Potential amp.        0.0121 Ry
        Total length         55.1515 bohr
 
 
     Adding external electric field

     Computed dipole along edir(3) : 
        Dipole               -0.1796 Ry au,         -0.4565 Debye
        Dipole field         -0.0001 Ry au, 
 
        Potential amp.        0.0121 Ry
        Total length         55.1515 bohr
 

     total cpu time spent up to now is      331.7 secs

     total energy              =   -7738.23444805 Ry
     estimated scf accuracy    <       0.23194277 Ry

     total magnetization       =    88.47 Bohr mag/cell
     absolute magnetization    =    90.45 Bohr mag/cell

     iteration # 21     ecut=    50.00 Ry     beta= 0.10
     Davidson diagonalization with overlap
     ethr =  2.12E-05,  avg # of iterations = 19.5

     negative rho (up, down):  1.023E-05 1.029E-03
 
     Adding external electric field

     Computed dipole along edir(3) : 
        Dipole               -0.1607 Ry au,         -0.4085 Debye
        Dipole field         -0.0001 Ry au, 
 
        Potential amp.        0.0109 Ry
        Total length         55.1515 bohr
 
 
     Adding external electric field

     Computed dipole along edir(3) : 
        Dipole               -0.1607 Ry au,         -0.4085 Debye
        Dipole field         -0.0001 Ry au, 
 
        Potential amp.        0.0109 Ry
        Total length         55.1515 bohr
 

     total cpu time spent up to now is      362.7 secs

     total energy              =   -7738.25768574 Ry
     estimated scf accuracy    <       0.20883132 Ry

     total magnetization       =    86.24 Bohr mag/cell
     absolute magnetization    =    88.05 Bohr mag/cell

     iteration # 22     ecut=    50.00 Ry     beta= 0.10
     Davidson diagonalization with overlap
     ethr =  1.91E-05,  avg # of iterations =  3.0

     negative rho (up, down):  1.127E-09 9.463E-05
 
     Adding external electric field

     Computed dipole along edir(3) : 
        Dipole               -0.0827 Ry au,         -0.2102 Debye
        Dipole field         -0.0001 Ry au, 
 
        Potential amp.        0.0056 Ry
        Total length         55.1515 bohr
 
 
     Adding external electric field

     Computed dipole along edir(3) : 
        Dipole               -0.0827 Ry au,         -0.2102 Debye
        Dipole field         -0.0001 Ry au, 
 
        Potential amp.        0.0056 Ry
        Total length         55.1515 bohr
 

     total cpu time spent up to now is      377.0 secs

     total energy              =   -7738.27882175 Ry
     estimated scf accuracy    <       0.28424197 Ry

     total magnetization       =    89.51 Bohr mag/cell
     absolute magnetization    =    91.03 Bohr mag/cell

     iteration # 23     ecut=    50.00 Ry     beta= 0.10
     Davidson diagonalization with overlap
     ethr =  1.91E-05,  avg # of iterations =  3.0

     negative rho (up, down):  7.404E-11 3.711E-05
 
     Adding external electric field

     Computed dipole along edir(3) : 
        Dipole               -0.0915 Ry au,         -0.2326 Debye
        Dipole field         -0.0001 Ry au, 
 
        Potential amp.        0.0062 Ry
        Total length         55.1515 bohr
 
 
     Adding external electric field

     Computed dipole along edir(3) : 
        Dipole               -0.0915 Ry au,         -0.2326 Debye
        Dipole field         -0.0001 Ry au, 
 
        Potential amp.        0.0062 Ry
        Total length         55.1515 bohr
 

     total cpu time spent up to now is      390.4 secs

     total energy              =   -7738.28383411 Ry
     estimated scf accuracy    <       0.21723888 Ry

     total magnetization       =    88.18 Bohr mag/cell
     absolute magnetization    =    89.68 Bohr mag/cell

     iteration # 24     ecut=    50.00 Ry     beta= 0.10
     Davidson diagonalization with overlap
     ethr =  1.91E-05,  avg # of iterations =  2.0

     negative rho (up, down):  8.031E-10 4.671E-04
 
     Adding external electric field

     Computed dipole along edir(3) : 
        Dipole               -0.0929 Ry au,         -0.2360 Debye
        Dipole field         -0.0001 Ry au, 
 
        Potential amp.        0.0063 Ry
        Total length         55.1515 bohr
 
 
     Adding external electric field

     Computed dipole along edir(3) : 
        Dipole               -0.0929 Ry au,         -0.2360 Debye
        Dipole field         -0.0001 Ry au, 
 
        Potential amp.        0.0063 Ry
        Total length         55.1515 bohr
 

     total cpu time spent up to now is      404.3 secs

     total energy              =   -7738.25919340 Ry
     estimated scf accuracy    <       0.70735242 Ry

     total magnetization       =    85.85 Bohr mag/cell
     absolute magnetization    =    87.44 Bohr mag/cell

     iteration # 25     ecut=    50.00 Ry     beta= 0.10
     Davidson diagonalization with overlap
     ethr =  1.91E-05,  avg # of iterations =  2.5

     negative rho (up, down):  2.016E-09 3.772E-04
 
     Adding external electric field

     Computed dipole along edir(3) : 
        Dipole               -0.1378 Ry au,         -0.3501 Debye
        Dipole field         -0.0001 Ry au, 
 
        Potential amp.        0.0093 Ry
        Total length         55.1515 bohr
 
 
     Adding external electric field

     Computed dipole along edir(3) : 
        Dipole               -0.1378 Ry au,         -0.3501 Debye
        Dipole field         -0.0001 Ry au, 
 
        Potential amp.        0.0093 Ry
        Total length         55.1515 bohr
 

     total cpu time spent up to now is      418.5 secs

     total energy              =   -7738.27714669 Ry
     estimated scf accuracy    <       0.13854525 Ry

     total magnetization       =    87.79 Bohr mag/cell
     absolute magnetization    =    89.26 Bohr mag/cell

     iteration # 26     ecut=    50.00 Ry     beta= 0.10
     Davidson diagonalization with overlap
     c_bands:  3 eigenvalues not converged
     ethr =  1.27E-05,  avg # of iterations = 21.0

     negative rho (up, down):  1.255E-04 7.163E-04
 
     Adding external electric field

     Computed dipole along edir(3) : 
        Dipole                0.1093 Ry au,          0.2777 Debye
        Dipole field          0.0001 Ry au, 
 
        Potential amp.       -0.0074 Ry
        Total length         55.1515 bohr
 
 
     Adding external electric field

     Computed dipole along edir(3) : 
        Dipole                0.1093 Ry au,          0.2777 Debye
        Dipole field          0.0001 Ry au, 
 
        Potential amp.       -0.0074 Ry
        Total length         55.1515 bohr
 

     total cpu time spent up to now is      448.6 secs

     total energy              =   -7738.29075981 Ry
     estimated scf accuracy    <       0.40787047 Ry

     total magnetization       =    87.38 Bohr mag/cell
     absolute magnetization    =    88.79 Bohr mag/cell

     iteration # 27     ecut=    50.00 Ry     beta= 0.10
     Davidson diagonalization with overlap
     ethr =  1.27E-05,  avg # of iterations =  3.0

     negative rho (up, down):  9.265E-04 1.693E-03
 
     Adding external electric field

     Computed dipole along edir(3) : 
        Dipole                0.1811 Ry au,          0.4602 Debye
        Dipole field          0.0001 Ry au, 
 
        Potential amp.       -0.0122 Ry
        Total length         55.1515 bohr
 
 
     Adding external electric field

     Computed dipole along edir(3) : 
        Dipole                0.1811 Ry au,          0.4602 Debye
        Dipole field          0.0001 Ry au, 
 
        Potential amp.       -0.0122 Ry
        Total length         55.1515 bohr
 

     total cpu time spent up to now is      463.3 secs

     total energy              =   -7738.31185485 Ry
     estimated scf accuracy    <       0.31783400 Ry

     total magnetization       =    89.71 Bohr mag/cell
     absolute magnetization    =    90.91 Bohr mag/cell

     iteration # 28     ecut=    50.00 Ry     beta= 0.10
     Davidson diagonalization with overlap
     ethr =  1.27E-05,  avg # of iterations =  2.0

     negative rho (up, down):  3.030E-04 6.132E-04
 
     Adding external electric field

     Computed dipole along edir(3) : 
        Dipole                0.1876 Ry au,          0.4768 Debye
        Dipole field          0.0001 Ry au, 
 
        Potential amp.       -0.0127 Ry
        Total length         55.1515 bohr
 
 
     Adding external electric field

     Computed dipole along edir(3) : 
        Dipole                0.1876 Ry au,          0.4768 Debye
        Dipole field          0.0001 Ry au, 
 
        Potential amp.       -0.0127 Ry
        Total length         55.1515 bohr
 

     total cpu time spent up to now is      477.4 secs

     total energy              =   -7738.30304877 Ry
     estimated scf accuracy    <       0.30190723 Ry

     total magnetization       =    89.68 Bohr mag/cell
     absolute magnetization    =    90.97 Bohr mag/cell

     iteration # 29     ecut=    50.00 Ry     beta= 0.10
     Davidson diagonalization with overlap
     ethr =  1.27E-05,  avg # of iterations =  2.0

     negative rho (up, down):  5.109E-04 5.936E-04
 
     Adding external electric field

     Computed dipole along edir(3) : 
        Dipole                0.1827 Ry au,          0.4644 Debye
        Dipole field          0.0001 Ry au, 
 
        Potential amp.       -0.0123 Ry
        Total length         55.1515 bohr
 
 
     Adding external electric field

     Computed dipole along edir(3) : 
        Dipole                0.1827 Ry au,          0.4644 Debye
        Dipole field          0.0001 Ry au, 
 
        Potential amp.       -0.0123 Ry
        Total length         55.1515 bohr
 

     total cpu time spent up to now is      491.3 secs

     total energy              =   -7738.30849978 Ry
     estimated scf accuracy    <       0.32105722 Ry

     total magnetization       =    89.24 Bohr mag/cell
     absolute magnetization    =    90.90 Bohr mag/cell

     iteration # 30     ecut=    50.00 Ry     beta= 0.10
     Davidson diagonalization with overlap
     ethr =  1.27E-05,  avg # of iterations =  1.5

     negative rho (up, down):  4.056E-04 4.024E-04
 
     Adding external electric field

     Computed dipole along edir(3) : 
        Dipole                0.1683 Ry au,          0.4278 Debye
        Dipole field          0.0001 Ry au, 
 
        Potential amp.       -0.0114 Ry
        Total length         55.1515 bohr
 
 
     Adding external electric field

     Computed dipole along edir(3) : 
        Dipole                0.1683 Ry au,          0.4278 Debye
        Dipole field          0.0001 Ry au, 
 
        Potential amp.       -0.0114 Ry
        Total length         55.1515 bohr
 

     total cpu time spent up to now is      504.0 secs

     total energy              =   -7738.30734793 Ry
     estimated scf accuracy    <       0.29088609 Ry

     total magnetization       =    89.39 Bohr mag/cell
     absolute magnetization    =    90.79 Bohr mag/cell

     iteration # 31     ecut=    50.00 Ry     beta= 0.10
     Davidson diagonalization with overlap
     ethr =  1.27E-05,  avg # of iterations =  1.5

     negative rho (up, down):  1.347E-03 1.749E-03
 
     Adding external electric field

     Computed dipole along edir(3) : 
        Dipole                0.1904 Ry au,          0.4839 Debye
        Dipole field          0.0001 Ry au, 
 
        Potential amp.       -0.0129 Ry
        Total length         55.1515 bohr
 
 
     Adding external electric field

     Computed dipole along edir(3) : 
        Dipole                0.1904 Ry au,          0.4839 Debye
        Dipole field          0.0001 Ry au, 
 
        Potential amp.       -0.0129 Ry
        Total length         55.1515 bohr
 

     total cpu time spent up to now is      517.3 secs

     total energy              =   -7738.30662060 Ry
     estimated scf accuracy    <       0.22162608 Ry

     total magnetization       =    88.83 Bohr mag/cell
     absolute magnetization    =    90.17 Bohr mag/cell

     iteration # 32     ecut=    50.00 Ry     beta= 0.10
     Davidson diagonalization with overlap
     ethr =  1.27E-05,  avg # of iterations =  2.0

     negative rho (up, down):  1.023E-03 1.400E-03
 
     Adding external electric field

     Computed dipole along edir(3) : 
        Dipole                0.1873 Ry au,          0.4762 Debye
        Dipole field          0.0001 Ry au, 
 
        Potential amp.       -0.0126 Ry
        Total length         55.1515 bohr
 
 
     Adding external electric field

     Computed dipole along edir(3) : 
        Dipole                0.1873 Ry au,          0.4762 Debye
        Dipole field          0.0001 Ry au, 
 
        Potential amp.       -0.0126 Ry
        Total length         55.1515 bohr
 

     total cpu time spent up to now is      531.2 secs

     total energy              =   -7738.30911280 Ry
     estimated scf accuracy    <       0.22184095 Ry

     total magnetization       =    88.64 Bohr mag/cell
     absolute magnetization    =    89.94 Bohr mag/cell

     iteration # 33     ecut=    50.00 Ry     beta= 0.10
     Davidson diagonalization with overlap
     ethr =  1.27E-05,  avg # of iterations =  1.5

     negative rho (up, down):  4.421E-05 1.932E-05
 
     Adding external electric field

     Computed dipole along edir(3) : 
        Dipole                0.1217 Ry au,          0.3093 Debye
        Dipole field          0.0001 Ry au, 
 
        Potential amp.       -0.0082 Ry
        Total length         55.1515 bohr
 
 
     Adding external electric field

     Computed dipole along edir(3) : 
        Dipole                0.1217 Ry au,          0.3093 Debye
        Dipole field          0.0001 Ry au, 
 
        Potential amp.       -0.0082 Ry
        Total length         55.1515 bohr
 

     total cpu time spent up to now is      544.5 secs

     total energy              =   -7738.30733584 Ry
     estimated scf accuracy    <       0.28086408 Ry

     total magnetization       =    88.88 Bohr mag/cell
     absolute magnetization    =    90.14 Bohr mag/cell

     iteration # 34     ecut=    50.00 Ry     beta= 0.10
     Davidson diagonalization with overlap
     ethr =  1.27E-05,  avg # of iterations =  2.0

     negative rho (up, down):  9.645E-04 1.173E-03
 
     Adding external electric field

     Computed dipole along edir(3) : 
        Dipole                0.1997 Ry au,          0.5075 Debye
        Dipole field          0.0001 Ry au, 
 
        Potential amp.       -0.0135 Ry
        Total length         55.1515 bohr
 
 
     Adding external electric field

     Computed dipole along edir(3) : 
        Dipole                0.1997 Ry au,          0.5075 Debye
        Dipole field          0.0001 Ry au, 
 
        Potential amp.       -0.0135 Ry
        Total length         55.1515 bohr
 

     total cpu time spent up to now is      559.1 secs

     total energy              =   -7738.30742907 Ry
     estimated scf accuracy    <       0.27682564 Ry

     total magnetization       =    88.91 Bohr mag/cell
     absolute magnetization    =    90.31 Bohr mag/cell

     iteration # 35     ecut=    50.00 Ry     beta= 0.10
     Davidson diagonalization with overlap
     ethr =  1.27E-05,  avg # of iterations =  1.5

     negative rho (up, down):  3.347E-05 8.927E-05
 
     Adding external electric field

     Computed dipole along edir(3) : 
        Dipole                0.1249 Ry au,          0.3174 Debye
        Dipole field          0.0001 Ry au, 
 
        Potential amp.       -0.0084 Ry
        Total length         55.1515 bohr
 
 
     Adding external electric field

     Computed dipole along edir(3) : 
        Dipole                0.1249 Ry au,          0.3174 Debye
        Dipole field          0.0001 Ry au, 
 
        Potential amp.       -0.0084 Ry
        Total length         55.1515 bohr
 

     total cpu time spent up to now is      572.6 secs

     total energy              =   -7738.29353123 Ry
     estimated scf accuracy    <       0.27691124 Ry

     total magnetization       =    89.05 Bohr mag/cell
     absolute magnetization    =    90.38 Bohr mag/cell

     iteration # 36     ecut=    50.00 Ry     beta= 0.10
     Davidson diagonalization with overlap
     ethr =  1.27E-05,  avg # of iterations =  2.0

     negative rho (up, down):  2.436E-04 3.700E-04
 
     Adding external electric field

     Computed dipole along edir(3) : 
        Dipole                0.1354 Ry au,          0.3441 Debye
        Dipole field          0.0001 Ry au, 
 
        Potential amp.       -0.0091 Ry
        Total length         55.1515 bohr
 
 
     Adding external electric field

     Computed dipole along edir(3) : 
        Dipole                0.1354 Ry au,          0.3441 Debye
        Dipole field          0.0001 Ry au, 
 
        Potential amp.       -0.0091 Ry
        Total length         55.1515 bohr
 

     total cpu time spent up to now is      586.4 secs

     total energy              =   -7738.30066552 Ry
     estimated scf accuracy    <       0.06900224 Ry

     total magnetization       =    88.11 Bohr mag/cell
     absolute magnetization    =    89.86 Bohr mag/cell

     iteration # 37     ecut=    50.00 Ry     beta= 0.10
     Davidson diagonalization with overlap
     ethr =  6.31E-06,  avg # of iterations =  1.5

     negative rho (up, down):  2.965E-04 4.778E-04
 
     Adding external electric field

     Computed dipole along edir(3) : 
        Dipole                0.1114 Ry au,          0.2833 Debye
        Dipole field          0.0001 Ry au, 
 
        Potential amp.       -0.0075 Ry
        Total length         55.1515 bohr
 
 
     Adding external electric field

     Computed dipole along edir(3) : 
        Dipole                0.1114 Ry au,          0.2833 Debye
        Dipole field          0.0001 Ry au, 
 
        Potential amp.       -0.0075 Ry
        Total length         55.1515 bohr
 

     total cpu time spent up to now is      600.3 secs

     total energy              =   -7738.30368636 Ry
     estimated scf accuracy    <       0.07615610 Ry

     total magnetization       =    88.68 Bohr mag/cell
     absolute magnetization    =    90.15 Bohr mag/cell

     iteration # 38     ecut=    50.00 Ry     beta= 0.10
     Davidson diagonalization with overlap
     ethr =  6.31E-06,  avg # of iterations =  2.0

     negative rho (up, down):  6.585E-04 7.205E-04
 
     Adding external electric field

     Computed dipole along edir(3) : 
        Dipole                0.1497 Ry au,          0.3804 Debye
        Dipole field          0.0001 Ry au, 
 
        Potential amp.       -0.0101 Ry
        Total length         55.1515 bohr
 
 
     Adding external electric field

     Computed dipole along edir(3) : 
        Dipole                0.1497 Ry au,          0.3804 Debye
        Dipole field          0.0001 Ry au, 
 
        Potential amp.       -0.0101 Ry
        Total length         55.1515 bohr
 

     total cpu time spent up to now is      614.6 secs

     total energy              =   -7738.30342120 Ry
     estimated scf accuracy    <       0.03874778 Ry

     total magnetization       =    88.37 Bohr mag/cell
     absolute magnetization    =    89.80 Bohr mag/cell

     iteration # 39     ecut=    50.00 Ry     beta= 0.10
     Davidson diagonalization with overlap
     ethr =  3.55E-06,  avg # of iterations =  2.0

     negative rho (up, down):  3.906E-04 7.105E-04
 
     Adding external electric field

     Computed dipole along edir(3) : 
        Dipole                0.1466 Ry au,          0.3726 Debye
        Dipole field          0.0001 Ry au, 
 
        Potential amp.       -0.0099 Ry
        Total length         55.1515 bohr
 
 
     Adding external electric field

     Computed dipole along edir(3) : 
        Dipole                0.1466 Ry au,          0.3726 Debye
        Dipole field          0.0001 Ry au, 
 
        Potential amp.       -0.0099 Ry
        Total length         55.1515 bohr
 

     total cpu time spent up to now is      628.5 secs

     total energy              =   -7738.30296294 Ry
     estimated scf accuracy    <       0.08178261 Ry

     total magnetization       =    88.62 Bohr mag/cell
     absolute magnetization    =    89.92 Bohr mag/cell

     iteration # 40     ecut=    50.00 Ry     beta= 0.10
     Davidson diagonalization with overlap
     ethr =  3.55E-06,  avg # of iterations =  2.0

     negative rho (up, down):  6.509E-04 6.877E-04
 
     Adding external electric field

     Computed dipole along edir(3) : 
        Dipole                0.1320 Ry au,          0.3355 Debye
        Dipole field          0.0001 Ry au, 
 
        Potential amp.       -0.0089 Ry
        Total length         55.1515 bohr
 
 
     Adding external electric field

     Computed dipole along edir(3) : 
        Dipole                0.1320 Ry au,          0.3355 Debye
        Dipole field          0.0001 Ry au, 
 
        Potential amp.       -0.0089 Ry
        Total length         55.1515 bohr
 

     total cpu time spent up to now is      642.5 secs

     total energy              =   -7738.30381939 Ry
     estimated scf accuracy    <       0.06219005 Ry

     total magnetization       =    88.33 Bohr mag/cell
     absolute magnetization    =    89.63 Bohr mag/cell

     iteration # 41     ecut=    50.00 Ry     beta= 0.10
     Davidson diagonalization with overlap
     c_bands:  3 eigenvalues not converged
     ethr =  3.55E-06,  avg # of iterations = 11.0

     negative rho (up, down):  9.023E-04 8.643E-04
 
     Adding external electric field

     Computed dipole along edir(3) : 
        Dipole                0.1262 Ry au,          0.3208 Debye
        Dipole field          0.0001 Ry au, 
 
        Potential amp.       -0.0085 Ry
        Total length         55.1515 bohr
 
 
     Adding external electric field

     Computed dipole along edir(3) : 
        Dipole                0.1262 Ry au,          0.3208 Debye
        Dipole field          0.0001 Ry au, 
 
        Potential amp.       -0.0085 Ry
        Total length         55.1515 bohr
 

     total cpu time spent up to now is      662.7 secs

     total energy              =   -7738.30378555 Ry
     estimated scf accuracy    <       0.07975366 Ry

     total magnetization       =    88.52 Bohr mag/cell
     absolute magnetization    =    89.79 Bohr mag/cell

     iteration # 42     ecut=    50.00 Ry     beta= 0.10
     Davidson diagonalization with overlap
     c_bands:  3 eigenvalues not converged
     c_bands:  2 eigenvalues not converged
     ethr =  3.55E-06,  avg # of iterations = 20.0

     negative rho (up, down):  1.016E-03 9.603E-04
 
     Adding external electric field

     Computed dipole along edir(3) : 
        Dipole                0.1339 Ry au,          0.3403 Debye
        Dipole field          0.0001 Ry au, 
 
        Potential amp.       -0.0090 Ry
        Total length         55.1515 bohr
 
 
     Adding external electric field

     Computed dipole along edir(3) : 
        Dipole                0.1339 Ry au,          0.3403 Debye
        Dipole field          0.0001 Ry au, 
 
        Potential amp.       -0.0090 Ry
        Total length         55.1515 bohr
 

     total cpu time spent up to now is      687.6 secs

     total energy              =   -7738.30392658 Ry
     estimated scf accuracy    <       0.03393698 Ry

     total magnetization       =    88.26 Bohr mag/cell
     absolute magnetization    =    89.56 Bohr mag/cell

     iteration # 43     ecut=    50.00 Ry     beta= 0.10
     Davidson diagonalization with overlap
     ethr =  3.10E-06,  avg # of iterations =  2.0

     negative rho (up, down):  9.170E-04 8.798E-04
 
     Adding external electric field

     Computed dipole along edir(3) : 
        Dipole                0.1418 Ry au,          0.3603 Debye
        Dipole field          0.0001 Ry au, 
 
        Potential amp.       -0.0096 Ry
        Total length         55.1515 bohr
 
 
     Adding external electric field

     Computed dipole along edir(3) : 
        Dipole                0.1418 Ry au,          0.3603 Debye
        Dipole field          0.0001 Ry au, 
 
        Potential amp.       -0.0096 Ry
        Total length         55.1515 bohr
 

     total cpu time spent up to now is      701.9 secs

     total energy              =   -7738.30420132 Ry
     estimated scf accuracy    <       0.03026512 Ry

     total magnetization       =    88.29 Bohr mag/cell
     absolute magnetization    =    89.61 Bohr mag/cell

     iteration # 44     ecut=    50.00 Ry     beta= 0.10
     Davidson diagonalization with overlap
     ethr =  2.77E-06,  avg # of iterations =  2.0

     negative rho (up, down):  5.471E-04 5.737E-04
 
     Adding external electric field

     Computed dipole along edir(3) : 
        Dipole                0.0864 Ry au,          0.2195 Debye
        Dipole field          0.0001 Ry au, 
 
        Potential amp.       -0.0058 Ry
        Total length         55.1515 bohr
 
 
     Adding external electric field

     Computed dipole along edir(3) : 
        Dipole                0.0864 Ry au,          0.2195 Debye
        Dipole field          0.0001 Ry au, 
 
        Potential amp.       -0.0058 Ry
        Total length         55.1515 bohr
 

     total cpu time spent up to now is      715.0 secs

     total energy              =   -7738.30411490 Ry
     estimated scf accuracy    <       0.05204886 Ry

     total magnetization       =    88.45 Bohr mag/cell
     absolute magnetization    =    89.75 Bohr mag/cell

     iteration # 45     ecut=    50.00 Ry     beta= 0.10
     Davidson diagonalization with overlap
     ethr =  2.77E-06,  avg # of iterations =  1.0

     negative rho (up, down):  4.916E-04 4.663E-04
 
     Adding external electric field

     Computed dipole along edir(3) : 
        Dipole                0.1135 Ry au,          0.2885 Debye
        Dipole field          0.0001 Ry au, 
 
        Potential amp.       -0.0077 Ry
        Total length         55.1515 bohr
 
 
     Adding external electric field

     Computed dipole along edir(3) : 
        Dipole                0.1135 Ry au,          0.2885 Debye
        Dipole field          0.0001 Ry au, 
 
        Potential amp.       -0.0077 Ry
        Total length         55.1515 bohr
 

     total cpu time spent up to now is      727.2 secs

     total energy              =   -7738.30399063 Ry
     estimated scf accuracy    <       0.03624251 Ry

     total magnetization       =    88.27 Bohr mag/cell
     absolute magnetization    =    89.66 Bohr mag/cell

     iteration # 46     ecut=    50.00 Ry     beta= 0.10
     Davidson diagonalization with overlap
     ethr =  2.77E-06,  avg # of iterations =  2.0

     negative rho (up, down):  4.310E-04 4.366E-04
 
     Adding external electric field

     Computed dipole along edir(3) : 
        Dipole                0.0704 Ry au,          0.1791 Debye
        Dipole field          0.0000 Ry au, 
 
        Potential amp.       -0.0048 Ry
        Total length         55.1515 bohr
 
 
     Adding external electric field

     Computed dipole along edir(3) : 
        Dipole                0.0704 Ry au,          0.1791 Debye
        Dipole field          0.0000 Ry au, 
 
        Potential amp.       -0.0048 Ry
        Total length         55.1515 bohr
 

     total cpu time spent up to now is      740.2 secs

     total energy              =   -7738.30459068 Ry
     estimated scf accuracy    <       0.03290871 Ry

     total magnetization       =    88.21 Bohr mag/cell
     absolute magnetization    =    89.66 Bohr mag/cell

     iteration # 47     ecut=    50.00 Ry     beta= 0.10
     Davidson diagonalization with overlap
     ethr =  2.77E-06,  avg # of iterations =  1.0

     negative rho (up, down):  6.122E-04 5.564E-04
 
     Adding external electric field

     Computed dipole along edir(3) : 
        Dipole                0.1644 Ry au,          0.4179 Debye
        Dipole field          0.0001 Ry au, 
 
        Potential amp.       -0.0111 Ry
        Total length         55.1515 bohr
 
 
     Adding external electric field

     Computed dipole along edir(3) : 
        Dipole                0.1644 Ry au,          0.4179 Debye
        Dipole field          0.0001 Ry au, 
 
        Potential amp.       -0.0111 Ry
        Total length         55.1515 bohr
 

     total cpu time spent up to now is      752.3 secs

     total energy              =   -7738.30299803 Ry
     estimated scf accuracy    <       0.03349614 Ry

     total magnetization       =    88.12 Bohr mag/cell
     absolute magnetization    =    89.55 Bohr mag/cell

     iteration # 48     ecut=    50.00 Ry     beta= 0.10
     Davidson diagonalization with overlap
     ethr =  2.77E-06,  avg # of iterations =  1.5

     negative rho (up, down):  7.825E-04 7.694E-04
 
     Adding external electric field

     Computed dipole along edir(3) : 
        Dipole                0.1514 Ry au,          0.3849 Debye
        Dipole field          0.0001 Ry au, 
 
        Potential amp.       -0.0102 Ry
        Total length         55.1515 bohr
 
 
     Adding external electric field

     Computed dipole along edir(3) : 
        Dipole                0.1514 Ry au,          0.3849 Debye
        Dipole field          0.0001 Ry au, 
 
        Potential amp.       -0.0102 Ry
        Total length         55.1515 bohr
 

     total cpu time spent up to now is      765.4 secs

     total energy              =   -7738.30414138 Ry
     estimated scf accuracy    <       0.05973725 Ry

     total magnetization       =    88.42 Bohr mag/cell
     absolute magnetization    =    89.77 Bohr mag/cell

     iteration # 49     ecut=    50.00 Ry     beta= 0.10
     Davidson diagonalization with overlap
     ethr =  2.77E-06,  avg # of iterations =  1.5

     negative rho (up, down):  5.006E-04 3.775E-04
 
     Adding external electric field

     Computed dipole along edir(3) : 
        Dipole                0.1227 Ry au,          0.3119 Debye
        Dipole field          0.0001 Ry au, 
 
        Potential amp.       -0.0083 Ry
        Total length         55.1515 bohr
 
 
     Adding external electric field

     Computed dipole along edir(3) : 
        Dipole                0.1227 Ry au,          0.3119 Debye
        Dipole field          0.0001 Ry au, 
 
        Potential amp.       -0.0083 Ry
        Total length         55.1515 bohr
 

     total cpu time spent up to now is      778.4 secs

     total energy              =   -7738.30361828 Ry
     estimated scf accuracy    <       0.05478330 Ry

     total magnetization       =    88.41 Bohr mag/cell
     absolute magnetization    =    89.75 Bohr mag/cell

     iteration # 50     ecut=    50.00 Ry     beta= 0.10
     Davidson diagonalization with overlap
     ethr =  2.77E-06,  avg # of iterations =  1.0

     negative rho (up, down):  6.357E-04 5.337E-04
 
     Adding external electric field

     Computed dipole along edir(3) : 
        Dipole                0.1515 Ry au,          0.3850 Debye
        Dipole field          0.0001 Ry au, 
 
        Potential amp.       -0.0102 Ry
        Total length         55.1515 bohr
 
 
     Adding external electric field

     Computed dipole along edir(3) : 
        Dipole                0.1515 Ry au,          0.3850 Debye
        Dipole field          0.0001 Ry au, 
 
        Potential amp.       -0.0102 Ry
        Total length         55.1515 bohr
 

     total cpu time spent up to now is      790.8 secs

     total energy              =   -7738.30392116 Ry
     estimated scf accuracy    <       0.06061900 Ry

     total magnetization       =    88.46 Bohr mag/cell
     absolute magnetization    =    89.83 Bohr mag/cell

     iteration # 51     ecut=    50.00 Ry     beta= 0.10
     Davidson diagonalization with overlap
     ethr =  2.77E-06,  avg # of iterations =  1.5

     negative rho (up, down):  6.953E-04 7.935E-04
 
     Adding external electric field

     Computed dipole along edir(3) : 
        Dipole                0.1262 Ry au,          0.3209 Debye
        Dipole field          0.0001 Ry au, 
 
        Potential amp.       -0.0085 Ry
        Total length         55.1515 bohr
 
 
     Adding external electric field

     Computed dipole along edir(3) : 
        Dipole                0.1262 Ry au,          0.3209 Debye
        Dipole field          0.0001 Ry au, 
 
        Potential amp.       -0.0085 Ry
        Total length         55.1515 bohr
 

     total cpu time spent up to now is      803.9 secs

     total energy              =   -7738.30419899 Ry
     estimated scf accuracy    <       0.05980865 Ry

     total magnetization       =    88.47 Bohr mag/cell
     absolute magnetization    =    89.83 Bohr mag/cell

     iteration # 52     ecut=    50.00 Ry     beta= 0.10
     Davidson diagonalization with overlap
     ethr =  2.77E-06,  avg # of iterations =  1.0

     negative rho (up, down):  8.194E-04 6.183E-04
 
     Adding external electric field

     Computed dipole along edir(3) : 
        Dipole                0.1945 Ry au,          0.4943 Debye
        Dipole field          0.0001 Ry au, 
 
        Potential amp.       -0.0131 Ry
        Total length         55.1515 bohr
 
 
     Adding external electric field

     Computed dipole along edir(3) : 
        Dipole                0.1945 Ry au,          0.4943 Debye
        Dipole field          0.0001 Ry au, 
 
        Potential amp.       -0.0131 Ry
        Total length         55.1515 bohr
 

     total cpu time spent up to now is      816.0 secs

     total energy              =   -7738.30339312 Ry
     estimated scf accuracy    <       0.05299210 Ry

     total magnetization       =    88.35 Bohr mag/cell
     absolute magnetization    =    89.68 Bohr mag/cell

     iteration # 53     ecut=    50.00 Ry     beta= 0.10
     Davidson diagonalization with overlap
     ethr =  2.77E-06,  avg # of iterations =  1.5

     negative rho (up, down):  9.252E-04 6.914E-04
 
     Adding external electric field

     Computed dipole along edir(3) : 
        Dipole                0.2036 Ry au,          0.5175 Debye
        Dipole field          0.0001 Ry au, 
 
        Potential amp.       -0.0137 Ry
        Total length         55.1515 bohr
 
 
     Adding external electric field

     Computed dipole along edir(3) : 
        Dipole                0.2036 Ry au,          0.5175 Debye
        Dipole field          0.0001 Ry au, 
 
        Potential amp.       -0.0137 Ry
        Total length         55.1515 bohr
 

     total cpu time spent up to now is      829.3 secs

     total energy              =   -7738.30325994 Ry
     estimated scf accuracy    <       0.05368631 Ry

     total magnetization       =    88.44 Bohr mag/cell
     absolute magnetization    =    89.78 Bohr mag/cell

     iteration # 54     ecut=    50.00 Ry     beta= 0.10
     Davidson diagonalization with overlap
     ethr =  2.77E-06,  avg # of iterations =  1.0

     negative rho (up, down):  7.258E-04 5.868E-04
 
     Adding external electric field

     Computed dipole along edir(3) : 
        Dipole                0.1569 Ry au,          0.3988 Debye
        Dipole field          0.0001 Ry au, 
 
        Potential amp.       -0.0106 Ry
        Total length         55.1515 bohr
 
 
     Adding external electric field

     Computed dipole along edir(3) : 
        Dipole                0.1569 Ry au,          0.3988 Debye
        Dipole field          0.0001 Ry au, 
 
        Potential amp.       -0.0106 Ry
        Total length         55.1515 bohr
 

     total cpu time spent up to now is      842.0 secs

     total energy              =   -7738.30356292 Ry
     estimated scf accuracy    <       0.04653608 Ry

     total magnetization       =    88.41 Bohr mag/cell
     absolute magnetization    =    89.75 Bohr mag/cell

     iteration # 55     ecut=    50.00 Ry     beta= 0.10
     Davidson diagonalization with overlap
     ethr =  2.77E-06,  avg # of iterations =  1.5

     negative rho (up, down):  9.007E-04 7.228E-04
 
     Adding external electric field

     Computed dipole along edir(3) : 
        Dipole                0.2158 Ry au,          0.5486 Debye
        Dipole field          0.0001 Ry au, 
 
        Potential amp.       -0.0146 Ry
        Total length         55.1515 bohr
 
 
     Adding external electric field

     Computed dipole along edir(3) : 
        Dipole                0.2158 Ry au,          0.5486 Debye
        Dipole field          0.0001 Ry au, 
 
        Potential amp.       -0.0146 Ry
        Total length         55.1515 bohr
 

     total cpu time spent up to now is      854.7 secs

     total energy              =   -7738.30320239 Ry
     estimated scf accuracy    <       0.04389595 Ry

     total magnetization       =    88.35 Bohr mag/cell
     absolute magnetization    =    89.71 Bohr mag/cell

     iteration # 56     ecut=    50.00 Ry     beta= 0.10
     Davidson diagonalization with overlap
     ethr =  2.77E-06,  avg # of iterations =  1.5

     negative rho (up, down):  2.097E-03 1.993E-03
 
     Adding external electric field

     Computed dipole along edir(3) : 
        Dipole                0.2307 Ry au,          0.5863 Debye
        Dipole field          0.0001 Ry au, 
 
        Potential amp.       -0.0156 Ry
        Total length         55.1515 bohr
 
 
     Adding external electric field

     Computed dipole along edir(3) : 
        Dipole                0.2307 Ry au,          0.5863 Debye
        Dipole field          0.0001 Ry au, 
 
        Potential amp.       -0.0156 Ry
        Total length         55.1515 bohr
 

     total cpu time spent up to now is      868.0 secs

     total energy              =   -7738.30181758 Ry
     estimated scf accuracy    <       0.04233057 Ry

     total magnetization       =    88.35 Bohr mag/cell
     absolute magnetization    =    89.77 Bohr mag/cell

     iteration # 57     ecut=    50.00 Ry     beta= 0.10
     Davidson diagonalization with overlap
     ethr =  2.77E-06,  avg # of iterations =  2.0

     negative rho (up, down):  2.826E-03 2.683E-03
 
     Adding external electric field

     Computed dipole along edir(3) : 
        Dipole                0.2797 Ry au,          0.7110 Debye
        Dipole field          0.0002 Ry au, 
 
        Potential amp.       -0.0189 Ry
        Total length         55.1515 bohr
 
 
     Adding external electric field

     Computed dipole along edir(3) : 
        Dipole                0.2797 Ry au,          0.7110 Debye
        Dipole field          0.0002 Ry au, 
 
        Potential amp.       -0.0189 Ry
        Total length         55.1515 bohr
 

     total cpu time spent up to now is      881.6 secs

     total energy              =   -7738.30114250 Ry
     estimated scf accuracy    <       0.02727649 Ry

     total magnetization       =    88.25 Bohr mag/cell
     absolute magnetization    =    89.60 Bohr mag/cell

     iteration # 58     ecut=    50.00 Ry     beta= 0.10
     Davidson diagonalization with overlap
     ethr =  2.50E-06,  avg # of iterations =  1.5

     negative rho (up, down):  3.268E-03 3.400E-03
 
     Adding external electric field

     Computed dipole along edir(3) : 
        Dipole                0.2587 Ry au,          0.6576 Debye
[...]
    -5.9167  -5.8986  -5.8857  -5.8770  -5.8646  -5.8429  -5.8349  -5.8054
    -5.7781  -5.7724  -5.7328  -5.7229  -5.7057  -5.6786  -5.6676  -5.6495
    -5.6312  -5.6009  -5.5552  -5.5512  -5.5267  -5.4960  -5.4806  -5.4703
    -5.4653  -5.4355  -5.4288  -5.4005  -5.3823  -5.3672  -5.3548  -5.3255
    -5.2077  -5.1972  -5.1811  -5.1742  -5.1601  -5.1351  -5.0714  -5.0277
    -5.0090  -4.9912  -4.9485  -4.9198  -4.9090  -4.8905  -4.8574  -4.8167
    -4.7918  -4.7366  -4.7260  -4.7107  -4.6718  -4.6560  -4.6236  -4.5461
    -4.5455  -4.4813  -4.4587  -4.4013  -4.3949  -4.3769  -4.3365  -4.3280
    -4.3116  -4.2631  -4.1905  -4.1799  -4.1444  -4.1171  -4.0986  -4.0741
    -4.0645  -4.0413  -4.0375  -3.9654  -3.9209  -3.9001  -3.8880  -3.8495
    -3.8296  -3.8109  -3.7670  -3.7569  -3.7530  -3.7207  -3.6977  -3.6609
    -3.6343  -3.5868  -3.5844  -3.5787  -3.5577  -3.5374  -3.5369  -3.5173
    -3.5007  -3.4780  -3.4567  -3.4525  -3.4415  -3.4286  -3.4033  -3.3887
    -3.3608  -3.3572  -3.3418  -3.3134  -3.3092  -3.2678  -3.2522  -3.2062
    -3.2018  -3.1912  -3.1836  -3.1655  -3.1564  -3.1029  -3.0785  -3.0562
    -3.0326  -3.0136  -3.0087  -2.9991  -2.9953  -2.9841  -2.9668  -2.9286
    -2.9112  -2.9003  -2.8746  -2.8337  -2.8290  -2.8192  -2.7827  -2.7654
    -2.7417  -2.7290  -2.7139  -2.7003  -2.6966  -2.6779  -2.6621  -2.6535
    -2.6381  -2.6295  -2.6240  -2.6030  -2.5903  -2.5803  -2.5733  -2.5590
    -2.5426  -2.5299  -2.5145  -2.4939  -2.4758  -2.4699  -2.4460  -2.4363
    -2.4078  -2.4006  -2.3756  -2.3495  -2.3165  -2.2989  -2.2804  -2.2572
    -2.2452  -2.2305  -2.2090  -2.1698  -2.1559  -2.1370  -2.1253  -2.1000
    -2.0966  -2.0763  -2.0667  -2.0551  -2.0400  -2.0174  -1.9993  -1.9532
    -1.9395  -1.9109  -1.9064  -1.8973  -1.8870  -1.8762  -1.8437  -1.8199
    -1.8104  -1.7941  -1.7766  -1.7691  -1.7601  -1.7492  -1.7318  -1.7147
    -1.6896  -1.6618  -1.6472  -1.6056  -1.5974  -1.5801  -1.5624  -1.5413
    -1.5292  -1.4979  -1.4771  -1.4575  -1.4521  -1.4417  -1.4148  -1.3924
    -1.3835  -1.3736  -1.3520  -1.3430  -1.3179  -1.3022  -1.2470  -1.2423
    -1.2239  -1.2157  -1.1950  -1.1551  -1.1503  -1.0831  -1.0421  -1.0283
    -0.9782  -0.8745  -0.8588  -0.8163  -0.7481  -0.6894  -0.6834  -0.4478
    -0.2839  -0.2496  -0.2377  -0.1057   0.2168   0.2496   0.2715   0.2791
     0.2842   0.3002   0.3348   0.3437   0.3691   0.3787   0.3940   0.3996
     0.4058   0.4176   0.4280   0.4342   0.4419   0.4545   0.4615   0.4699
     0.4756   0.4866   0.4876   0.4962   0.5015   0.5108   0.5131   0.5249
     0.5410   0.5432   0.5525   0.5590   0.5644   0.5696   0.5721   0.5985
     0.6050   0.6077   0.6150   0.6193   0.6330   0.6451   0.6471   0.6483
     0.6641   0.6685   0.6708   0.6824   0.6841   0.7041   0.7080   0.7121
     0.7211   0.7264   0.7292   0.7389   0.7546   0.7693   0.7814   0.7841
     0.7925   0.7966   0.8049   0.8295   0.8344   0.8441   0.8474   0.8500
     0.8622   0.8654   0.8839   0.8979   0.9013   0.9067   0.9183   0.9239
     0.9312   0.9600   0.9700   0.9850   0.9858   0.9875   0.9910   1.0167
     1.0529   1.1304   1.1327   1.2313   1.2535   1.7027   1.7807   1.7888
     1.7941   1.8096   1.8204   1.8372   1.8473   1.8596   1.9429   1.9594
     1.9717   1.9914   2.0168   2.0402   2.0514   2.0801   2.0939   2.1451
     2.1561   2.1703   2.1805   2.2078   2.2215   2.2376   2.2512   2.2686
     2.2790   2.2998   2.3210   2.3361   2.3481   2.3588   2.3900   2.3989
     2.4111   2.4132   2.4609   2.4629   2.4916   2.5089   2.5161   2.5216
     2.5335   2.5390   2.5588   2.5678   2.5871   2.6188   2.6267   2.6457
     2.6659   2.6719   2.6836   2.7421   2.8100   2.8267   2.8855   2.8943
     2.8973   2.9416   3.5207   3.5551   3.6058   3.6325   3.7666   3.7967
     3.8779   3.8915   3.9051   3.9502   3.9636   4.0161   4.1010   4.1090
     4.1179   4.1408   4.1650   4.1700   4.1916   4.2062   4.6771   4.7971
     4.8477   4.8825   4.9508   4.9646   4.9992   5.0539   5.0618   5.1350
     5.1365   5.1938   5.4380   6.3022   6.3927   6.5293   6.6405   6.7348
     6.8126   6.8664   6.9190   6.9642   7.0021   7.0816   7.1506   7.2168
     7.2952   7.3594   7.4095   7.4201   7.4665   7.5052   7.6495   7.6877
     7.7269   7.7641   7.7747   7.8188   7.8626   7.9092   7.9278   7.9692
     8.0255   8.0571   8.0899   8.1183   8.1717   8.1921   8.2126   8.2439
     8.2797   8.3145   8.3690   8.3850   8.4248   8.4338   8.4450   8.4690
     8.4811   8.5086   8.5355   8.5530   8.5886   8.5976   8.6150   8.6709
     8.6932   8.7074   8.7251   8.7471   8.7683   8.8097   8.8376   8.8782

     the Fermi energy is     1.6936 ev

!    total energy              =   -7738.30204582 Ry
     estimated scf accuracy    <       0.00000091 Ry
     smearing contrib. (-TS)   =      -0.02504748 Ry
     internal energy E=F+TS    =   -7738.27699833 Ry

     The total energy is F=E-TS. E is the sum of the following terms:
     one-electron contribution =  -95055.03201503 Ry
     hartree contribution      =   48145.06479080 Ry
     xc contribution           =   -2218.74947831 Ry
     ewald contribution        =   41392.24818328 Ry
     Dispersion Correction     =      -1.80864955 Ry
     electric field correction =       0.00017047 Ry

     total magnetization       =    88.32 Bohr mag/cell
     absolute magnetization    =    89.69 Bohr mag/cell

     convergence has been achieved in  84 iterations

     negative rho (up, down):  1.048E-03 5.892E-04

     Forces acting on atoms (cartesian axes, Ry/au):

     atom    1 type  1   force =     0.02521100   -0.03075768    0.01830761
     atom    2 type  2   force =    -0.01379908   -0.00143780   -0.00997823
     atom    3 type  1   force =    -0.02324907   -0.01875095    0.01960613
     atom    4 type  1   force =     0.00571922    0.00405297   -0.00657157
     atom    5 type  1   force =    -0.00193090    0.00125000   -0.00546638
     atom    6 type  1   force =     0.00208023    0.00763051   -0.00912593
     atom    7 type  3   force =    -0.00773208    0.00117328   -0.01040116
     atom    8 type  3   force =    -0.03499742    0.05414917   -0.08324859
     atom    9 type  3   force =     0.03413200    0.03816094   -0.06424707
     atom   10 type  3   force =    -0.00305530   -0.00247758   -0.01155791
     atom   11 type  4   force =     0.00677952    0.00566397    0.01398869
     atom   12 type  4   force =    -0.00022109   -0.00295416    0.01479290
     atom   13 type  4   force =     0.00191102    0.00164200    0.01729259
     atom   14 type  4   force =    -0.00053577   -0.00124842    0.01281311
     atom   15 type  4   force =    -0.00063074    0.00460038   -0.00201385
     atom   16 type  4   force =    -0.00039429    0.00256990    0.04050504
     atom   17 type  4   force =     0.00166251    0.00800176    0.03810759
     atom   18 type  4   force =     0.00795804   -0.00444304   -0.00049914
     atom   19 type  4   force =     0.00043099    0.01185943    0.00427582
     atom   20 type  4   force =    -0.00973335   -0.02662887   -0.00363510
     atom   21 type  4   force =    -0.01106179   -0.00043398    0.00066566
     atom   22 type  4   force =    -0.03189873    0.00313047    0.00790503
     atom   23 type  4   force =     0.03195103    0.00059488    0.01412403
     atom   24 type  4   force =     0.00708198   -0.03686725    0.00382925
     atom   25 type  4   force =    -0.00309998    0.00164165    0.00393320
     atom   26 type  4   force =     0.01774884   -0.00687299    0.00079693
     atom   27 type  1   force =    -0.00522568   -0.00886612    0.00277163
     atom   28 type  2   force =    -0.01383404   -0.00041657    0.00491025
     atom   29 type  1   force =     0.00299528   -0.00494259   -0.00118612
     atom   30 type  1   force =     0.00390129    0.00352786    0.00195735
     atom   31 type  1   force =     0.00133577   -0.00482403    0.00028847
     atom   32 type  1   force =    -0.00078075    0.00127235   -0.00170528
     atom   33 type  3   force =    -0.00628499   -0.00045179   -0.00041165
     atom   34 type  3   force =    -0.00800589    0.00260066   -0.00017186
     atom   35 type  3   force =     0.00437257   -0.00058324    0.00296792
     atom   36 type  3   force =     0.00092895   -0.00176769   -0.00497105
     atom   37 type  4   force =     0.00828313    0.00495212    0.00751415
     atom   38 type  4   force =     0.00379187   -0.00088410   -0.01932038
     atom   39 type  4   force =    -0.00153360    0.00364322   -0.00986728
     atom   40 type  4   force =    -0.00176492   -0.00225124    0.00911879
     atom   41 type  4   force =    -0.00046566    0.00350622   -0.00644149
     atom   42 type  4   force =    -0.00429412   -0.00455681    0.01812745
     atom   43 type  4   force =     0.00770199    0.00338783    0.00773809
     atom   44 type  4   force =     0.01044537   -0.00462895   -0.00765864
     atom   45 type  4   force =     0.00286505    0.00439938    0.00057998
     atom   46 type  4   force =     0.00236498   -0.00013280   -0.00556848
     atom   47 type  4   force =    -0.01280289   -0.00010285   -0.00351010
     atom   48 type  4   force =    -0.01460377    0.00124207    0.00335739
     atom   49 type  4   force =     0.01347928    0.00256211    0.00444202
     atom   50 type  4   force =    -0.00268822   -0.00487630   -0.00045138
     atom   51 type  4   force =    -0.00501501    0.00145673    0.00002504
     atom   52 type  4   force =     0.01579905   -0.00421312   -0.00438087
     atom   53 type  1   force =     0.00036254   -0.00042879   -0.00025235
     atom   54 type  2   force =     0.00027198    0.00009615   -0.00026861
     atom   55 type  1   force =     0.00033889    0.00013583   -0.00004200
     atom   56 type  1   force =    -0.00124342    0.00130725   -0.00185472
     atom   57 type  1   force =     0.00019326   -0.00067317   -0.00033016
     atom   58 type  1   force =    -0.00000780    0.00047627   -0.00013522
     atom   59 type  3   force =    -0.00085190   -0.00014281   -0.00012973
     atom   60 type  3   force =     0.00021108   -0.00022292    0.00036994
     atom   61 type  3   force =     0.00009917    0.00016629   -0.00023095
     atom   62 type  3   force =    -0.00007954   -0.00036456   -0.00023407
     atom   63 type  4   force =     0.00089092    0.00014221   -0.00039310
     atom   64 type  4   force =    -0.00007904   -0.00013975    0.00044311
     atom   65 type  4   force =    -0.00065368   -0.00045826    0.00062800
     atom   66 type  4   force =    -0.00091806   -0.00043499   -0.00036887
     atom   67 type  4   force =     0.00061131   -0.00038654   -0.00030345
     atom   68 type  4   force =     0.00024456    0.00070036    0.00078064
     atom   69 type  4   force =    -0.00005788    0.00042606   -0.00013474
     atom   70 type  4   force =    -0.00089652   -0.00018886   -0.00084632
     atom   71 type  4   force =     0.00092021   -0.00043814    0.00042288
     atom   72 type  4   force =    -0.00024474    0.00017083   -0.00000594
     atom   73 type  4   force =     0.00003622    0.00017635    0.00003987
     atom   74 type  4   force =    -0.00009071    0.00040640   -0.00048783
     atom   75 type  4   force =     0.00008378   -0.00063024   -0.00003099
     atom   76 type  4   force =    -0.00010597   -0.00047067    0.00029041
     atom   77 type  4   force =     0.00028208    0.00070371    0.00032320
     atom   78 type  4   force =    -0.00077638   -0.00034229    0.00037064
     atom   79 type  1   force =     0.02518838   -0.03076368    0.01829738
     atom   80 type  2   force =    -0.01371142   -0.00144108   -0.00995024
     atom   81 type  1   force =    -0.02326241   -0.01874512    0.01959819
     atom   82 type  1   force =     0.00572130    0.00405216   -0.00657100
     atom   83 type  1   force =    -0.00190282    0.00125939   -0.00546348
     atom   84 type  1   force =     0.00207819    0.00762060   -0.00912071
     atom   85 type  3   force =    -0.00773260    0.00116113   -0.01039075
     atom   86 type  3   force =    -0.03499854    0.05415042   -0.08325275
     atom   87 type  3   force =     0.03413639    0.03816156   -0.06424481
     atom   88 type  3   force =    -0.00304430   -0.00248182   -0.01156259
     atom   89 type  4   force =     0.00690277    0.00567852    0.01397648
     atom   90 type  4   force =    -0.00012437   -0.00286862    0.01478932
     atom   91 type  4   force =     0.00200042    0.00163047    0.01726870
     atom   92 type  4   force =    -0.00037524   -0.00124070    0.01281179
     atom   93 type  4   force =    -0.00063209    0.00480769   -0.00190177
     atom   94 type  4   force =    -0.00045134    0.00252676    0.04029228
     atom   95 type  4   force =     0.00179509    0.00800389    0.03810535
     atom   96 type  4   force =     0.00775950   -0.00445431   -0.00052289
     atom   97 type  4   force =     0.00052514    0.01193037    0.00417442
     atom   98 type  4   force =    -0.00961965   -0.02646411   -0.00360387
     atom   99 type  4   force =    -0.01107288   -0.00039717    0.00086120
     atom  100 type  4   force =    -0.03193357    0.00302581    0.00777791
     atom  101 type  4   force =     0.03198179    0.00059431    0.01413010
     atom  102 type  4   force =     0.00690320   -0.03687238    0.00383341
     atom  103 type  4   force =    -0.00301186    0.00159408    0.00390765
     atom  104 type  4   force =     0.01787032   -0.00687433    0.00079208
     atom  105 type  1   force =    -0.00524286   -0.00885367    0.00267688
     atom  106 type  2   force =    -0.01307260    0.00012006    0.00459385
     atom  107 type  1   force =     0.00299307   -0.00505162   -0.00122845
     atom  108 type  1   force =     0.00239073    0.00513839   -0.00174815
     atom  109 type  1   force =     0.00173723   -0.00475101    0.00037924
     atom  110 type  1   force =    -0.00079322    0.00130461   -0.00172554
     atom  111 type  3   force =    -0.00619178   -0.00172636   -0.00288722
     atom  112 type  3   force =    -0.00801833    0.00261103   -0.00023475
     atom  113 type  3   force =     0.00449989   -0.00067353    0.00282918
     atom  114 type  3   force =     0.00082694   -0.00197091   -0.00407987
     atom  115 type  4   force =     0.00860411    0.00516261    0.00775576
     atom  116 type  4   force =     0.00380182   -0.00092652   -0.01930308
     atom  117 type  4   force =    -0.00139456    0.00363217   -0.00988069
     atom  118 type  4   force =    -0.00138956   -0.00270553    0.00929452
     atom  119 type  4   force =    -0.00141531    0.00372520   -0.00685376
     atom  120 type  4   force =    -0.00415119   -0.00467105    0.01812272
     atom  121 type  4   force =     0.00770734    0.00335904    0.00777040
     atom  122 type  4   force =     0.01007543   -0.00532981   -0.00617418
     atom  123 type  4   force =     0.00278164    0.00462591    0.00046923
     atom  124 type  4   force =     0.00214335   -0.00007974   -0.00557570
     atom  125 type  4   force =    -0.01277625   -0.00014262   -0.00369349
     atom  126 type  4   force =    -0.01471418    0.00124550    0.00343828
     atom  127 type  4   force =     0.01349674    0.00246246    0.00459270
     atom  128 type  4   force =    -0.00286469   -0.00487820   -0.00044462
     atom  129 type  4   force =    -0.00531218    0.00144489    0.00047734
     atom  130 type  4   force =     0.01530276   -0.00414239   -0.00439973
     atom  131 type  1   force =    -0.00002647   -0.00021794   -0.00025361
     atom  132 type  2   force =     0.00034400   -0.00043907   -0.00017565
     atom  133 type  1   force =    -0.00044939   -0.00024387   -0.00002890
     atom  134 type  1   force =     0.00021698    0.00110911   -0.00012781
     atom  135 type  1   force =     0.00033397   -0.00052995   -0.00081804
     atom  136 type  1   force =    -0.00040234   -0.00035287    0.00023383
     atom  137 type  3   force =     0.00010773    0.00008526    0.00003502
     atom  138 type  3   force =    -0.00068252   -0.00029688    0.00024002
     atom  139 type  3   force =    -0.00009463    0.00015756    0.00051489
     atom  140 type  3   force =     0.00014043    0.00039750    0.00008026
     atom  141 type  4   force =     0.00045012   -0.00018003    0.00022673
     atom  142 type  4   force =    -0.00034682    0.00038116    0.00000969
     atom  143 type  4   force =    -0.00000594    0.00035399    0.00046218
     atom  144 type  4   force =    -0.00051799   -0.00051451    0.00013277
     atom  145 type  4   force =     0.00013714   -0.00039971    0.00001432
     atom  146 type  4   force =     0.00083965    0.00039369    0.00030322
     atom  147 type  4   force =     0.00014516    0.00023356    0.00062774
     atom  148 type  4   force =     0.00035621    0.00019099   -0.00030456
     atom  149 type  4   force =    -0.00014277    0.00034718   -0.00024661
     atom  150 type  4   force =    -0.00021877   -0.00006655    0.00007387
     atom  151 type  4   force =    -0.00013149   -0.00070501   -0.00003842
     atom  152 type  4   force =    -0.00015223   -0.00035528   -0.00026714
     atom  153 type  4   force =    -0.00044291    0.00018867    0.00039881
     atom  154 type  4   force =     0.00036048   -0.00023094    0.00026715
     atom  155 type  4   force =    -0.00061820    0.00012997   -0.00009953
     atom  156 type  4   force =     0.00000635   -0.00037664    0.00017604
     atom  157 type  4   force =    -0.00656714   -0.00870844   -0.00097627
     atom  158 type  5   force =     0.00751544    0.00523963    0.00136551

     Total force =     0.262975     Total SCF correction =     0.004725
 
     init_run     :      8.18s CPU      8.79s WALL (       1 calls)
     electrons    :   1214.08s CPU   1261.20s WALL (       1 calls)
     forces       :      4.43s CPU      4.71s WALL (       1 calls)
     force_london :      0.09s CPU      0.09s WALL (       1 calls)

     Called by init_run:
     wfcinit      :      4.69s CPU      4.84s WALL (       1 calls)
     potinit      :      0.62s CPU      0.82s WALL (       1 calls)
     hinit0       :      1.62s CPU      1.71s WALL (       1 calls)

     Called by electrons:
     c_bands      :    947.41s CPU    973.48s WALL (      84 calls)
     sum_band     :    164.62s CPU    175.68s WALL (      84 calls)
     v_of_rho     :     21.53s CPU     23.32s WALL (      85 calls)
     newd         :     54.55s CPU     62.88s WALL (      85 calls)
     mix_rho      :     24.75s CPU     24.84s WALL (      84 calls)
     energy_londo :      0.08s CPU      0.08s WALL (       1 calls)

     Called by c_bands:
     init_us_2    :      1.92s CPU      1.99s WALL (     340 calls)
     init_us_2:cp :      1.92s CPU      1.99s WALL (     340 calls)
     regterg      :    930.25s CPU    956.09s WALL (     171 calls)

     Called by *egterg:
     rdiaghg      :    238.79s CPU    252.68s WALL (     705 calls)
     h_psi        :    348.27s CPU    353.65s WALL (     707 calls)
     s_psi        :     46.60s CPU     46.62s WALL (     707 calls)
     g_psi        :      0.35s CPU      0.35s WALL (     534 calls)

     Called by h_psi:
     h_psi:calbec :     94.50s CPU     98.79s WALL (     707 calls)
     vloc_psi     :    202.78s CPU    203.37s WALL (     707 calls)
     add_vuspsi   :     50.40s CPU     50.89s WALL (     707 calls)

     General routines
     calbec       :    138.33s CPU    144.78s WALL (     883 calls)
     fft          :     44.81s CPU     47.16s WALL (    1543 calls)
     ffts         :     14.26s CPU     14.29s WALL (   10463 calls)
     fftw         :    235.76s CPU    236.42s WALL (  286646 calls)
     interpolate  :      1.76s CPU      1.85s WALL (     170 calls)
 
     Parallel routines
 
     PWSCF        :  20m28.77s CPU  21m17.04s WALL

 
   This run was terminated on:  22:26: 3  17Nov2025            

=------------------------------------------------------------------------------=
   JOB DONE.
=------------------------------------------------------------------------------=
