
     Program PWSCF v.7.2 starts on 17Nov2025 at 21:28:31 

     This program is part of the open-source Quantum ESPRESSO suite
     for quantum simulation of materials; please cite
         "P. Giannozzi et al., J. Phys.:Condens. Matter 21 395502 (2009);
         "P. Giannozzi et al., J. Phys.:Condens. Matter 29 465901 (2017);
         "P. Giannozzi et al., J. Chem. Phys. 152 154105 (2020);
          URL http://www.quantum-espresso.org", 
     in publications or presentations arising from this work. More details at
     http://www.quantum-espresso.org/quote

     Parallel version (MPI), running on    64 processors

     MPI processes distributed on     4 nodes
     503870 MiB available memory on the printing compute node when the environment starts
 
     Reading input from PWINPUT_atm157_xp

     Current dimensions of program PWSCF are:
     Max number of different atomic species (ntypx) = 10
     Max number of k-points (npk) =  40000
     Max angular momentum in pseudopotentials (lmaxx) =  4
     Presently no symmetry can be used with electric field

     file Ni.pbe-n-rrkjus_psl.1.0.0.UPF: wavefunction(s)  3D renormalized
     file Mn.pbe-spn-rrkjus_psl.0.3.1.UPF: wavefunction(s)  3D renormalized
     file O.pbe-rrkjus.UPF: wavefunction(s)  2S renormalized
     file H.pbe-rrkjus.UPF: wavefunction(s)  1S renormalized

     gamma-point specific algorithms are used
 
     R & G space division:  proc/nbgrp/npool/nimage =      64
     Subspace diagonalization in iterative solution of the eigenvalue problem:
     one sub-group per band group will be used
     custom distributed-memory algorithm (size of sub-group:  7*  7 procs)

 
     Parallelization info
     --------------------
     sticks:   dense  smooth     PW     G-vecs:    dense   smooth      PW
     Min         207      82     20                60552    15302    1896
     Max         210      84     22                60574    15336    1950
     Sum       13325    5345   1333              3876045   980655  122653
 
     Using Slab Decomposition
 


     bravais-lattice index     =            0
     lattice parameter (alat)  =      17.4067  a.u.
     unit-cell volume          =   20529.8182 (a.u.)^3
     number of atoms/cell      =          158
     number of atomic types    =            5
     number of electrons       =      1093.00
     number of Kohn-Sham states=          656
     kinetic-energy cutoff     =      50.0000  Ry
     charge density cutoff     =     500.0000  Ry
     scf convergence threshold =      1.0E-06
     mixing beta               =       0.1000
     number of iterations used =            8  local-TF  mixing
     Exchange-correlation=  SLA  PW   PBE  PBE
                           (   1   4   3   4   0   0   0)

     celldm(1)=  17.406729  celldm(2)=   0.000000  celldm(3)=   0.000000
     celldm(4)=   0.000000  celldm(5)=   0.000000  celldm(6)=   0.000000

     crystal axes: (cart. coord. in units of alat)
               a(1) = (   1.000000   0.000000   0.000000 )  
               a(2) = (  -0.001404   1.105696   0.000000 )  
               a(3) = (   0.000000   0.000000   3.520448 )  

     reciprocal axes: (cart. coord. in units 2 pi/alat)
               b(1) = (  1.000000  0.001270  0.000000 )  
               b(2) = (  0.000000  0.904408  0.000000 )  
               b(3) = (  0.000000  0.000000  0.284055 )  


     PseudoPot. # 1 for Ni read from file:
     ~/PSEUDO/Ni.pbe-n-rrkjus_psl.1.0.0.UPF
     MD5 check sum: Not computed, couldn't open file
     Pseudo is Ultrasoft + core correction, Zval = 10.0
     Generated using "atomic" code by A. Dal Corso  v.5.1.2
     Using radial grid of 1195 points,  6 beta functions with: 
                l(1) =   0
                l(2) =   0
                l(3) =   1
                l(4) =   1
                l(5) =   2
                l(6) =   2
     Q(r) pseudized with 0 coefficients 


     PseudoPot. # 2 for Mn read from file:
     ~/PSEUDO/Mn.pbe-spn-rrkjus_psl.0.3.1.UPF
     MD5 check sum: Not computed, couldn't open file
     Pseudo is Ultrasoft + core correction, Zval = 15.0
     Generated using &quot;atomic&quot; code by A. Dal Corso  v.6.2.2
     Using radial grid of 1187 points,  6 beta functions with: 
                l(1) =   0
                l(2) =   0
                l(3) =   1
                l(4) =   1
                l(5) =   2
                l(6) =   2
     Q(r) pseudized with 0 coefficients 


     PseudoPot. # 3 for P  read from file:
     ~/PSEUDO/P.pbe-n-rrkjus_psl.1.0.0.UPF
     MD5 check sum: Not computed, couldn't open file
     Pseudo is Ultrasoft + core correction, Zval =  5.0
     Generated using "atomic" code by A. Dal Corso  v.5.1
     Using radial grid of 1147 points,  6 beta functions with: 
                l(1) =   0
                l(2) =   0
                l(3) =   1
                l(4) =   1
                l(5) =   2
                l(6) =   2
     Q(r) pseudized with 0 coefficients 


     PseudoPot. # 4 for O  read from file:
     ~/PSEUDO/O.pbe-rrkjus.UPF
     MD5 check sum: Not computed, couldn't open file
     Pseudo is Ultrasoft, Zval =  6.0
     Generated by new atomic code, or converted to UPF format
     Using radial grid of 1269 points,  4 beta functions with: 
                l(1) =   0
                l(2) =   0
                l(3) =   1
                l(4) =   1
     Q(r) pseudized with 0 coefficients 


     PseudoPot. # 5 for H  read from file:
     ~/PSEUDO/H.pbe-rrkjus.UPF
     MD5 check sum: Not computed, couldn't open file
     Pseudo is Ultrasoft, Zval =  1.0
     Generated by new atomic code, or converted to UPF format
     Using radial grid of 1061 points,  2 beta functions with: 
                l(1) =   0
                l(2) =   0
     Q(r) pseudized with 0 coefficients 


     atomic species   valence    mass     pseudopotential
     Ni               10.00    58.69300     Ni( 1.00)
     Mn               15.00    54.93800     Mn( 1.00)
     P                 5.00    30.97300     P ( 1.00)
     O                 6.00    15.99900     O ( 1.00)
     H                 1.00     1.00790     H ( 1.00)

     Starting magnetic structure 
     atomic species   magnetization
     Ni              1.000
     Mn              1.000
     P               1.000
     O               1.000
     H               0.000

     No symmetry found



   Cartesian axes

     site n.     atom                  positions (alat units)
         1        Ni     tau(   1) = (   0.2421002   0.8609138   0.1302181  )
         2        Mn     tau(   2) = (   0.4924481   0.7886602   0.4655392  )
         3        Ni     tau(   3) = (   0.0052341   0.3031820   0.1284544  )
         4        Ni     tau(   4) = (   0.2570603   0.2374878   0.4617901  )
         5        Ni     tau(   5) = (   0.4976584   1.1048203   0.2964410  )
         6        Ni     tau(   6) = (   0.2495781   0.5440308   0.2953805  )
         7        P      tau(   7) = (   0.2083492   0.9982113   0.4588145  )
         8        P      tau(   8) = (   0.4584476   0.6559264   0.1347090  )
         9        P      tau(   9) = (   0.2889394   0.1031966   0.1319347  )
        10        P      tau(  10) = (   0.0400379   0.4338094   0.4586283  )
        11        O      tau(  11) = (   0.1314218   0.9248062   0.3189972  )
        12        O      tau(  12) = (   0.3797244   0.7272031   0.2742874  )
        13        O      tau(  13) = (   0.3662315   0.1762062   0.2720888  )
        14        O      tau(  14) = (   0.1171240   0.3646150   0.3169340  )
        15        O      tau(  15) = (   0.1510364   0.9068326   0.5881934  )
        16        O      tau(  16) = (   0.3981989   0.7453439   0.0053495  )
        17        O      tau(  17) = (   0.3490561   0.1888693   0.0010856  )
        18        O      tau(  18) = (   0.0982395   0.3475583   0.5894443  )
        19        O      tau(  19) = (   0.0992163   0.5918099   0.4542505  )
        20        O      tau(  20) = (   0.3467441   1.0504690   0.1405000  )
        21        O      tau(  21) = (   0.3739183   0.4303319   0.4477971  )
        22        O      tau(  22) = (   0.1230967   0.1088895   0.1422960  )
        23        O      tau(  23) = (   0.1242901   0.6635968   0.1442928  )
        24        O      tau(  24) = (   0.4011802   0.4971632   0.1376281  )
        25        O      tau(  25) = (   0.1484006   0.0497464   0.4550965  )
        26        O      tau(  26) = (   0.3736100   0.9942556   0.4492158  )
        27        Ni     tau(  27) = (   0.2413539   0.8509941   0.7820408  )
        28        Mn     tau(  28) = (   0.4917018   0.7787406   1.1173619  )
        29        Ni     tau(  29) = (   0.0044877   0.2932623   0.7802771  )
        30        Ni     tau(  30) = (   0.2563139   0.2275682   1.1136128  )
        31        Ni     tau(  31) = (   0.4969120   1.0949007   0.9482637  )
        32        Ni     tau(  32) = (   0.2488318   0.5341111   0.9472032  )
        33        P      tau(  33) = (   0.2076029   0.9882917   1.1106372  )
        34        P      tau(  34) = (   0.4577012   0.6460068   0.7865316  )
        35        P      tau(  35) = (   0.2881931   0.0932770   0.7837574  )
        36        P      tau(  36) = (   0.0392916   0.4238898   1.1104509  )
        37        O      tau(  37) = (   0.1306755   0.9148866   0.9708199  )
        38        O      tau(  38) = (   0.3789780   0.7172835   0.9261101  )
        39        O      tau(  39) = (   0.3654852   0.1662865   0.9239115  )
        40        O      tau(  40) = (   0.1163776   0.3546954   0.9687567  )
        41        O      tau(  41) = (   0.1502901   0.8969129   1.2400160  )
        42        O      tau(  42) = (   0.3974525   0.7354243   0.6571722  )
        43        O      tau(  43) = (   0.3483097   0.1789497   0.6529083  )
        44        O      tau(  44) = (   0.0974932   0.3376387   1.2412670  )
        45        O      tau(  45) = (   0.0984699   0.5818903   1.1060732  )
        46        O      tau(  46) = (   0.3459978   1.0405493   0.7923226  )
        47        O      tau(  47) = (   0.3731719   0.4204123   1.0996198  )
        48        O      tau(  48) = (   0.1223503   0.0989699   0.7941187  )
        49        O      tau(  49) = (   0.1235438   0.6536772   0.7961155  )
        50        O      tau(  50) = (   0.4004339   0.4872435   0.7894508  )
        51        O      tau(  51) = (   0.1476543   0.0398268   1.1069192  )
        52        O      tau(  52) = (   0.3728637   0.9843360   1.1010385  )
        53        Ni     tau(  53) = (   0.2411808   0.8324089   1.4309579  )
        54        Mn     tau(  54) = (   0.4946671   0.7639191   1.7613784  )
        55        Ni     tau(  55) = (   0.0045903   0.2758768   1.4289237  )
        56        Ni     tau(  56) = (   0.2582374   0.2038640   1.7770492  )
        57        Ni     tau(  57) = (   0.4995768   1.0765738   1.5968468  )
        58        Ni     tau(  58) = (   0.2446418   0.5161336   1.5986178  )
        59        P      tau(  59) = (   0.2110282   0.9624759   1.7570741  )
        60        P      tau(  60) = (   0.4555417   0.6266544   1.4355841  )
        61        P      tau(  61) = (   0.2894304   0.0771248   1.4326669  )
        62        P      tau(  62) = (   0.0328189   0.3995898   1.7561322  )
        63        O      tau(  63) = (   0.1349035   0.8971112   1.6106303  )
        64        O      tau(  64) = (   0.3788937   0.6993990   1.5743359  )
        65        O      tau(  65) = (   0.3659027   0.1511080   1.5708695  )
        66        O      tau(  66) = (   0.1105339   0.3441016   1.6092044  )
        67        O      tau(  67) = (   0.1557886   0.8603680   1.8762740  )
        68        O      tau(  68) = (   0.3942965   0.7173118   1.3080767  )
        69        O      tau(  69) = (   0.3497106   0.1654865   1.3026958  )
        70        O      tau(  70) = (   0.0882498   0.2997460   1.8754938  )
        71        O      tau(  71) = (   0.0879634   0.5612479   1.7635252  )
        72        O      tau(  72) = (   0.3490189   1.0246514   1.4369127  )
        73        O      tau(  73) = (   0.3670773   0.4040889   1.7520727  )
        74        O      tau(  74) = (   0.1226660   0.0818304   1.4423052  )
        75        O      tau(  75) = (   0.1225220   0.6345628   1.4463845  )
        76        O      tau(  76) = (   0.3964037   0.4688262   1.4379717  )
        77        O      tau(  77) = (   0.1495563   0.0133210   1.7552094  )
        78        O      tau(  78) = (   0.3782473   0.9569750   1.7438122  )
        79        Ni     tau(  79) = (   0.7421002   0.8609138   0.1302181  )
        80        Mn     tau(  80) = (   0.9924481   0.7886602   0.4655392  )
        81        Ni     tau(  81) = (   0.5052341   0.3031820   0.1284544  )
        82        Ni     tau(  82) = (   0.7570603   0.2374878   0.4617901  )
        83        Ni     tau(  83) = (   0.9976584   1.1048203   0.2964410  )
        84        Ni     tau(  84) = (   0.7495781   0.5440308   0.2953805  )
        85        P      tau(  85) = (   0.7083492   0.9982113   0.4588145  )
        86        P      tau(  86) = (   0.9584476   0.6559264   0.1347090  )
        87        P      tau(  87) = (   0.7889394   0.1031966   0.1319347  )
        88        P      tau(  88) = (   0.5400379   0.4338094   0.4586283  )
        89        O      tau(  89) = (   0.6314218   0.9248062   0.3189972  )
        90        O      tau(  90) = (   0.8797244   0.7272031   0.2742874  )
        91        O      tau(  91) = (   0.8662315   0.1762062   0.2720888  )
        92        O      tau(  92) = (   0.6171240   0.3646150   0.3169340  )
        93        O      tau(  93) = (   0.6510364   0.9068326   0.5881934  )
        94        O      tau(  94) = (   0.8981989   0.7453439   0.0053495  )
        95        O      tau(  95) = (   0.8490561   0.1888693   0.0010856  )
        96        O      tau(  96) = (   0.5982395   0.3475583   0.5894443  )
        97        O      tau(  97) = (   0.5992163   0.5918099   0.4542505  )
        98        O      tau(  98) = (   0.8467441   1.0504690   0.1405000  )
        99        O      tau(  99) = (   0.8739183   0.4303319   0.4477971  )
       100        O      tau( 100) = (   0.6230967   0.1088895   0.1422960  )
       101        O      tau( 101) = (   0.6242901   0.6635968   0.1442928  )
       102        O      tau( 102) = (   0.9011802   0.4971632   0.1376281  )
       103        O      tau( 103) = (   0.6484006   0.0497464   0.4550965  )
       104        O      tau( 104) = (   0.8736100   0.9942556   0.4492158  )
       105        Ni     tau( 105) = (   0.7413539   0.8509941   0.7820408  )
       106        Mn     tau( 106) = (   0.9917018   0.7787406   1.1173619  )
       107        Ni     tau( 107) = (   0.5044877   0.2932623   0.7802771  )
       108        Ni     tau( 108) = (   0.7563139   0.2275682   1.1136128  )
       109        Ni     tau( 109) = (   0.9969120   1.0949007   0.9482637  )
       110        Ni     tau( 110) = (   0.7488318   0.5341111   0.9472032  )
       111        P      tau( 111) = (   0.7076029   0.9882917   1.1106372  )
       112        P      tau( 112) = (   0.9577012   0.6460068   0.7865316  )
       113        P      tau( 113) = (   0.7881931   0.0932770   0.7837574  )
       114        P      tau( 114) = (   0.5392916   0.4238898   1.1104509  )
       115        O      tau( 115) = (   0.6306755   0.9148866   0.9708199  )
       116        O      tau( 116) = (   0.8789780   0.7172835   0.9261101  )
       117        O      tau( 117) = (   0.8654852   0.1662865   0.9239115  )
       118        O      tau( 118) = (   0.6163776   0.3546954   0.9687567  )
       119        O      tau( 119) = (   0.6502901   0.8969129   1.2400160  )
       120        O      tau( 120) = (   0.8974525   0.7354243   0.6571722  )
       121        O      tau( 121) = (   0.8483097   0.1789497   0.6529083  )
       122        O      tau( 122) = (   0.5974932   0.3376387   1.2412670  )
       123        O      tau( 123) = (   0.5984699   0.5818903   1.1060732  )
       124        O      tau( 124) = (   0.8459978   1.0405493   0.7923226  )
       125        O      tau( 125) = (   0.8731719   0.4204123   1.0996198  )
       126        O      tau( 126) = (   0.6223503   0.0989699   0.7941187  )
       127        O      tau( 127) = (   0.6235438   0.6536772   0.7961155  )
       128        O      tau( 128) = (   0.9004339   0.4872435   0.7894508  )
       129        O      tau( 129) = (   0.6476543   0.0398268   1.1069192  )
       130        O      tau( 130) = (   0.8728637   0.9843360   1.1010385  )
       131        Ni     tau( 131) = (   0.7410267   0.8325162   1.4305848  )
       132        Mn     tau( 132) = (   0.9957516   0.7600299   1.7607963  )
       133        Ni     tau( 133) = (   0.5040907   0.2758675   1.4300929  )
       134        Ni     tau( 134) = (   0.7492107   0.2133490   1.7410454  )
       135        Ni     tau( 135) = (   1.0009965   1.0739722   1.5938039  )
       136        Ni     tau( 136) = (   0.7435634   0.5197355   1.5956846  )
       137        P      tau( 137) = (   0.7125069   0.9656475   1.7574601  )
       138        P      tau( 138) = (   0.9562771   0.6261995   1.4348061  )
       139        P      tau( 139) = (   0.7897796   0.0749975   1.4289502  )
       140        P      tau( 140) = (   0.5344908   0.4056646   1.7624424  )
       141        O      tau( 141) = (   0.6363110   0.9022539   1.6111310  )
       142        O      tau( 142) = (   0.8791375   0.6993590   1.5736065  )
       143        O      tau( 143) = (   0.8677034   0.1479917   1.5677577  )
       144        O      tau( 144) = (   0.6096326   0.3453508   1.6130362  )
       145        O      tau( 145) = (   0.6538676   0.8663746   1.8771614  )
       146        O      tau( 146) = (   0.8948308   0.7180504   1.3081207  )
       147        O      tau( 147) = (   0.8505931   0.1642134   1.3003625  )
       148        O      tau( 148) = (   0.5994798   0.3097877   1.8805913  )
       149        O      tau( 149) = (   0.5905617   0.5666921   1.7630040  )
       150        O      tau( 150) = (   0.8496482   1.0230984   1.4339530  )
       151        O      tau( 151) = (   0.8648476   0.4011035   1.7429415  )
       152        O      tau( 152) = (   0.6235315   0.0826198   1.4430822  )
       153        O      tau( 153) = (   0.6220766   0.6363263   1.4460487  )
       154        O      tau( 154) = (   0.8951957   0.4690084   1.4354565  )
       155        O      tau( 155) = (   0.6579777   0.0195851   1.7588791  )
       156        O      tau( 156) = (   0.8798126   0.9576364   1.7467312  )
       157        O      tau( 157) = (   0.3711491   0.1197550   1.9168676  )
       158        H      tau( 158) = (   0.4553109   0.1803133   1.9415520  )

     -------------------------------------------------
     Parameters for Dispersion (Grimme-D2) Correction:
     -------------------------------------------------
       atom      VdW radius       C_6     

        Ni         2.952        374.666
        Mn         2.952        374.666
        P          3.222        271.980
        O          2.536         24.284
        H          1.892          4.857

     number of k points=     1  Gaussian smearing, width (Ry)=  0.0100
                       cart. coord. in units 2pi/alat
        k(    1) = (   0.0000000   0.0000000   0.0000000), wk =   1.0000000

     Dense  grid:  1938023 G-vectors     FFT dimensions: ( 125, 144, 450)

     Smooth grid:   490328 G-vectors     FFT dimensions: (  80,  90, 288)

     Estimated max dynamical RAM per process >     326.29 MB

     Estimated total dynamical RAM >      20.39 GB

     Check: negative core charge=   -0.000001
     Generating pointlists ...
     new r_m :   0.0819 (alat units)  1.4247 (a.u.) for type    1
     new r_m :   0.0904 (alat units)  1.5735 (a.u.) for type    2
     new r_m :   0.0681 (alat units)  1.1861 (a.u.) for type    3
     new r_m :   0.0440 (alat units)  0.7653 (a.u.) for type    4
     new r_m :   0.0440 (alat units)  0.7653 (a.u.) for type    5

     Initial potential from superposition of free atoms

     starting charge    1092.8893, renormalised to    1093.0000

     negative rho (up, down):  1.374E-03 4.518E-04
 
     Adding external electric field

     Computed dipole along edir(3) : 
        Dipole                1.6504 Ry au,          4.1949 Debye
        Dipole field          0.0010 Ry au, 
 
        Potential amp.       -0.1114 Ry
        Total length         55.1515 bohr
 
 
     Adding external electric field

     Computed dipole along edir(3) : 
        Dipole                1.6504 Ry au,          4.1949 Debye
        Dipole field          0.0010 Ry au, 
 
        Potential amp.       -0.1114 Ry
        Total length         55.1515 bohr
 
     Starting wfcs are  815 randomized atomic wfcs

     total cpu time spent up to now is       10.5 secs

     Self-consistent Calculation

     iteration #  1     ecut=    50.00 Ry     beta= 0.10
     Davidson diagonalization with overlap
     ethr =  1.00E-02,  avg # of iterations =  6.0

     negative rho (up, down):  3.893E-01 1.474E-06
 
     Adding external electric field

     Computed dipole along edir(3) : 
        Dipole               -3.5252 Ry au,         -8.9603 Debye
        Dipole field         -0.0022 Ry au, 
 
        Potential amp.        0.2380 Ry
        Total length         55.1515 bohr
 
 
     Adding external electric field

     Computed dipole along edir(3) : 
        Dipole               -3.5252 Ry au,         -8.9603 Debye
        Dipole field         -0.0022 Ry au, 
 
        Potential amp.        0.2380 Ry
        Total length         55.1515 bohr
 

     total cpu time spent up to now is       38.4 secs

     total energy              =   -7518.26945568 Ry
     estimated scf accuracy    <     750.44830369 Ry

     total magnetization       =   219.00 Bohr mag/cell
     absolute magnetization    =   307.87 Bohr mag/cell

     iteration #  2     ecut=    50.00 Ry     beta= 0.10
     Davidson diagonalization with overlap
     ethr =  1.00E-02,  avg # of iterations =  2.0

     negative rho (up, down):  3.638E-01 1.157E-06
 
     Adding external electric field

     Computed dipole along edir(3) : 
        Dipole               -2.4689 Ry au,         -6.2754 Debye
        Dipole field         -0.0015 Ry au, 
 
        Potential amp.        0.1667 Ry
        Total length         55.1515 bohr
 
 
     Adding external electric field

     Computed dipole along edir(3) : 
        Dipole               -2.4689 Ry au,         -6.2754 Debye
        Dipole field         -0.0015 Ry au, 
 
        Potential amp.        0.1667 Ry
        Total length         55.1515 bohr
 

     total cpu time spent up to now is       55.1 secs

     total energy              =   -7601.80223082 Ry
     estimated scf accuracy    <     185.40338795 Ry

     total magnetization       =   156.39 Bohr mag/cell
     absolute magnetization    =   205.60 Bohr mag/cell

     iteration #  3     ecut=    50.00 Ry     beta= 0.10
     Davidson diagonalization with overlap
     ethr =  1.00E-02,  avg # of iterations =  1.5

     negative rho (up, down):  3.198E-01 1.109E-06
 
     Adding external electric field

     Computed dipole along edir(3) : 
        Dipole               -2.0679 Ry au,         -5.2561 Debye
        Dipole field         -0.0013 Ry au, 
 
        Potential amp.        0.1396 Ry
        Total length         55.1515 bohr
 
 
     Adding external electric field

     Computed dipole along edir(3) : 
        Dipole               -2.0679 Ry au,         -5.2561 Debye
        Dipole field         -0.0013 Ry au, 
 
        Potential amp.        0.1396 Ry
        Total length         55.1515 bohr
 

     total cpu time spent up to now is       68.2 secs

     total energy              =   -7633.70005628 Ry
     estimated scf accuracy    <     102.07971648 Ry

     total magnetization       =   133.12 Bohr mag/cell
     absolute magnetization    =   184.65 Bohr mag/cell

     iteration #  4     ecut=    50.00 Ry     beta= 0.10
     Davidson diagonalization with overlap
     ethr =  9.34E-03,  avg # of iterations =  1.5

     negative rho (up, down):  2.502E-01 4.979E-07
 
     Adding external electric field

     Computed dipole along edir(3) : 
        Dipole               -2.0448 Ry au,         -5.1973 Debye
        Dipole field         -0.0013 Ry au, 
 
        Potential amp.        0.1381 Ry
        Total length         55.1515 bohr
 
 
     Adding external electric field

     Computed dipole along edir(3) : 
        Dipole               -2.0448 Ry au,         -5.1973 Debye
        Dipole field         -0.0013 Ry au, 
 
        Potential amp.        0.1381 Ry
        Total length         55.1515 bohr
 

     total cpu time spent up to now is       80.9 secs

     total energy              =   -7664.43153187 Ry
     estimated scf accuracy    <      80.67197769 Ry

     total magnetization       =   116.55 Bohr mag/cell
     absolute magnetization    =   169.68 Bohr mag/cell

     iteration #  5     ecut=    50.00 Ry     beta= 0.10
     Davidson diagonalization with overlap
     ethr =  7.38E-03,  avg # of iterations =  1.0

     negative rho (up, down):  1.832E-02 1.287E-06
 
     Adding external electric field

     Computed dipole along edir(3) : 
        Dipole               -1.6089 Ry au,         -4.0895 Debye
        Dipole field         -0.0010 Ry au, 
 
        Potential amp.        0.1086 Ry
        Total length         55.1515 bohr
 
 
     Adding external electric field

     Computed dipole along edir(3) : 
        Dipole               -1.6089 Ry au,         -4.0895 Debye
        Dipole field         -0.0010 Ry au, 
 
        Potential amp.        0.1086 Ry
        Total length         55.1515 bohr
 

     total cpu time spent up to now is       92.8 secs

     total energy              =   -7725.02253543 Ry
     estimated scf accuracy    <      65.08317861 Ry

     total magnetization       =    97.16 Bohr mag/cell
     absolute magnetization    =   152.25 Bohr mag/cell

     iteration #  6     ecut=    50.00 Ry     beta= 0.10
     Davidson diagonalization with overlap
     ethr =  5.95E-03,  avg # of iterations =  1.0

     negative rho (up, down):  4.987E-04 7.154E-04
 
     Adding external electric field

     Computed dipole along edir(3) : 
        Dipole               -1.1445 Ry au,         -2.9092 Debye
        Dipole field         -0.0007 Ry au, 
 
        Potential amp.        0.0773 Ry
        Total length         55.1515 bohr
 
 
     Adding external electric field

     Computed dipole along edir(3) : 
        Dipole               -1.1445 Ry au,         -2.9092 Debye
        Dipole field         -0.0007 Ry au, 
 
        Potential amp.        0.0773 Ry
        Total length         55.1515 bohr
 

     total cpu time spent up to now is      105.3 secs

     total energy              =   -7736.04610102 Ry
     estimated scf accuracy    <      13.14152915 Ry

     total magnetization       =    91.00 Bohr mag/cell
     absolute magnetization    =   123.10 Bohr mag/cell

     iteration #  7     ecut=    50.00 Ry     beta= 0.10
     Davidson diagonalization with overlap
     ethr =  1.20E-03,  avg # of iterations =  6.0

     negative rho (up, down):  4.776E-04 6.986E-04
 
     Adding external electric field

     Computed dipole along edir(3) : 
        Dipole               -1.1241 Ry au,         -2.8572 Debye
        Dipole field         -0.0007 Ry au, 
 
        Potential amp.        0.0759 Ry
        Total length         55.1515 bohr
 
 
     Adding external electric field

     Computed dipole along edir(3) : 
        Dipole               -1.1241 Ry au,         -2.8572 Debye
        Dipole field         -0.0007 Ry au, 
 
        Potential amp.        0.0759 Ry
        Total length         55.1515 bohr
 

     total cpu time spent up to now is      127.3 secs

     total energy              =   -7738.34572135 Ry
     estimated scf accuracy    <      24.98227153 Ry

     total magnetization       =    70.50 Bohr mag/cell
     absolute magnetization    =    87.83 Bohr mag/cell

     iteration #  8     ecut=    50.00 Ry     beta= 0.10
     Davidson diagonalization with overlap
     ethr =  1.20E-03,  avg # of iterations =  1.0

     negative rho (up, down):  4.145E-04 6.122E-04
 
     Adding external electric field

     Computed dipole along edir(3) : 
        Dipole               -1.0669 Ry au,         -2.7117 Debye
        Dipole field         -0.0007 Ry au, 
 
        Potential amp.        0.0720 Ry
        Total length         55.1515 bohr
 
 
     Adding external electric field

     Computed dipole along edir(3) : 
        Dipole               -1.0669 Ry au,         -2.7117 Debye
        Dipole field         -0.0007 Ry au, 
 
        Potential amp.        0.0720 Ry
        Total length         55.1515 bohr
 

     total cpu time spent up to now is      139.5 secs

     total energy              =   -7738.26054421 Ry
     estimated scf accuracy    <      23.86326039 Ry

     total magnetization       =    70.76 Bohr mag/cell
     absolute magnetization    =    87.66 Bohr mag/cell

     iteration #  9     ecut=    50.00 Ry     beta= 0.10
     Davidson diagonalization with overlap
     ethr =  1.20E-03,  avg # of iterations =  1.0

     negative rho (up, down):  1.560E-04 4.454E-04
 
     Adding external electric field

     Computed dipole along edir(3) : 
        Dipole               -0.7137 Ry au,         -1.8141 Debye
        Dipole field         -0.0004 Ry au, 
 
        Potential amp.        0.0482 Ry
        Total length         55.1515 bohr
 
 
     Adding external electric field

     Computed dipole along edir(3) : 
        Dipole               -0.7137 Ry au,         -1.8141 Debye
        Dipole field         -0.0004 Ry au, 
 
        Potential amp.        0.0482 Ry
        Total length         55.1515 bohr
 

     total cpu time spent up to now is      151.4 secs

     total energy              =   -7737.35903222 Ry
     estimated scf accuracy    <      21.35536187 Ry

     total magnetization       =    71.00 Bohr mag/cell
     absolute magnetization    =    87.29 Bohr mag/cell

     iteration # 10     ecut=    50.00 Ry     beta= 0.10
     Davidson diagonalization with overlap
     ethr =  1.20E-03,  avg # of iterations =  1.5

     negative rho (up, down):  1.379E-04 4.019E-04
 
     Adding external electric field

     Computed dipole along edir(3) : 
        Dipole               -0.6847 Ry au,         -1.7402 Debye
        Dipole field         -0.0004 Ry au, 
 
        Potential amp.        0.0462 Ry
        Total length         55.1515 bohr
 
 
     Adding external electric field

     Computed dipole along edir(3) : 
        Dipole               -0.6847 Ry au,         -1.7402 Debye
        Dipole field         -0.0004 Ry au, 
 
        Potential amp.        0.0462 Ry
        Total length         55.1515 bohr
 

     total cpu time spent up to now is      164.3 secs

     total energy              =   -7737.90328840 Ry
     estimated scf accuracy    <       1.75276000 Ry

     total magnetization       =    86.38 Bohr mag/cell
     absolute magnetization    =    97.13 Bohr mag/cell

     iteration # 11     ecut=    50.00 Ry     beta= 0.10
     Davidson diagonalization with overlap
     c_bands:  3 eigenvalues not converged
     ethr =  1.60E-04,  avg # of iterations = 11.5

     negative rho (up, down):  1.013E-04 3.915E-04
 
     Adding external electric field

     Computed dipole along edir(3) : 
        Dipole               -0.6927 Ry au,         -1.7607 Debye
        Dipole field         -0.0004 Ry au, 
 
        Potential amp.        0.0468 Ry
        Total length         55.1515 bohr
 
 
     Adding external electric field

     Computed dipole along edir(3) : 
        Dipole               -0.6927 Ry au,         -1.7607 Debye
        Dipole field         -0.0004 Ry au, 
 
        Potential amp.        0.0468 Ry
        Total length         55.1515 bohr
 

     total cpu time spent up to now is      185.1 secs

     total energy              =   -7737.92410695 Ry
     estimated scf accuracy    <       1.15133072 Ry

     total magnetization       =    88.37 Bohr mag/cell
     absolute magnetization    =    98.09 Bohr mag/cell

     iteration # 12     ecut=    50.00 Ry     beta= 0.10
     Davidson diagonalization with overlap
     ethr =  1.05E-04,  avg # of iterations =  2.0

     negative rho (up, down):  4.328E-05 2.436E-04
 
     Adding external electric field

     Computed dipole along edir(3) : 
        Dipole               -0.6441 Ry au,         -1.6372 Debye
        Dipole field         -0.0004 Ry au, 
 
        Potential amp.        0.0435 Ry
        Total length         55.1515 bohr
 
 
     Adding external electric field

     Computed dipole along edir(3) : 
        Dipole               -0.6441 Ry au,         -1.6372 Debye
        Dipole field         -0.0004 Ry au, 
 
        Potential amp.        0.0435 Ry
        Total length         55.1515 bohr
 

     total cpu time spent up to now is      198.3 secs

     total energy              =   -7738.01195335 Ry
     estimated scf accuracy    <       1.14036048 Ry

     total magnetization       =    86.47 Bohr mag/cell
     absolute magnetization    =    95.67 Bohr mag/cell

     iteration # 13     ecut=    50.00 Ry     beta= 0.10
     Davidson diagonalization with overlap
     ethr =  1.04E-04,  avg # of iterations =  1.5

     negative rho (up, down):  7.062E-06 1.737E-04
 
     Adding external electric field

     Computed dipole along edir(3) : 
        Dipole               -0.5817 Ry au,         -1.4786 Debye
        Dipole field         -0.0004 Ry au, 
 
        Potential amp.        0.0393 Ry
        Total length         55.1515 bohr
 
 
     Adding external electric field

     Computed dipole along edir(3) : 
        Dipole               -0.5817 Ry au,         -1.4786 Debye
        Dipole field         -0.0004 Ry au, 
 
        Potential amp.        0.0393 Ry
        Total length         55.1515 bohr
 

     total cpu time spent up to now is      211.5 secs

     total energy              =   -7738.14581733 Ry
     estimated scf accuracy    <       0.61381375 Ry

     total magnetization       =    87.96 Bohr mag/cell
     absolute magnetization    =    95.46 Bohr mag/cell

     iteration # 14     ecut=    50.00 Ry     beta= 0.10
     Davidson diagonalization with overlap
     ethr =  5.62E-05,  avg # of iterations =  2.0

     negative rho (up, down):  1.143E-05 2.208E-04
 
     Adding external electric field

     Computed dipole along edir(3) : 
        Dipole               -0.5211 Ry au,         -1.3244 Debye
        Dipole field         -0.0003 Ry au, 
 
        Potential amp.        0.0352 Ry
        Total length         55.1515 bohr
 
 
     Adding external electric field

     Computed dipole along edir(3) : 
        Dipole               -0.5211 Ry au,         -1.3244 Debye
        Dipole field         -0.0003 Ry au, 
 
        Potential amp.        0.0352 Ry
        Total length         55.1515 bohr
 

     total cpu time spent up to now is      224.8 secs

     total energy              =   -7738.24899842 Ry
     estimated scf accuracy    <       0.43036873 Ry

     total magnetization       =    88.33 Bohr mag/cell
     absolute magnetization    =    93.64 Bohr mag/cell

     iteration # 15     ecut=    50.00 Ry     beta= 0.10
     Davidson diagonalization with overlap
     ethr =  3.94E-05,  avg # of iterations =  8.0

     negative rho (up, down):  3.473E-05 7.635E-04
 
     Adding external electric field

     Computed dipole along edir(3) : 
        Dipole               -0.4666 Ry au,         -1.1859 Debye
        Dipole field         -0.0003 Ry au, 
 
        Potential amp.        0.0315 Ry
        Total length         55.1515 bohr
 
 
     Adding external electric field

     Computed dipole along edir(3) : 
        Dipole               -0.4666 Ry au,         -1.1859 Debye
        Dipole field         -0.0003 Ry au, 
 
        Potential amp.        0.0315 Ry
        Total length         55.1515 bohr
 

     total cpu time spent up to now is      241.6 secs

     total energy              =   -7738.26224565 Ry
     estimated scf accuracy    <       0.32228220 Ry

     total magnetization       =    87.89 Bohr mag/cell
     absolute magnetization    =    91.40 Bohr mag/cell

     iteration # 16     ecut=    50.00 Ry     beta= 0.10
     Davidson diagonalization with overlap
     ethr =  2.95E-05,  avg # of iterations =  2.0

     negative rho (up, down):  3.895E-05 7.114E-04
 
     Adding external electric field

     Computed dipole along edir(3) : 
        Dipole               -0.4749 Ry au,         -1.2071 Debye
        Dipole field         -0.0003 Ry au, 
 
        Potential amp.        0.0321 Ry
        Total length         55.1515 bohr
 
 
     Adding external electric field

     Computed dipole along edir(3) : 
        Dipole               -0.4749 Ry au,         -1.2071 Debye
        Dipole field         -0.0003 Ry au, 
 
        Potential amp.        0.0321 Ry
        Total length         55.1515 bohr
 

     total cpu time spent up to now is      255.1 secs

     total energy              =   -7738.27495411 Ry
     estimated scf accuracy    <       0.45739376 Ry

     total magnetization       =    86.96 Bohr mag/cell
     absolute magnetization    =    89.60 Bohr mag/cell

     iteration # 17     ecut=    50.00 Ry     beta= 0.10
     Davidson diagonalization with overlap
     ethr =  2.95E-05,  avg # of iterations =  1.5

     negative rho (up, down):  1.036E-04 5.973E-04
 
     Adding external electric field

     Computed dipole along edir(3) : 
        Dipole               -0.3995 Ry au,         -1.0154 Debye
        Dipole field         -0.0002 Ry au, 
 
        Potential amp.        0.0270 Ry
        Total length         55.1515 bohr
 
 
     Adding external electric field

     Computed dipole along edir(3) : 
        Dipole               -0.3995 Ry au,         -1.0154 Debye
        Dipole field         -0.0002 Ry au, 
 
        Potential amp.        0.0270 Ry
        Total length         55.1515 bohr
 

     total cpu time spent up to now is      267.8 secs

     total energy              =   -7738.29278793 Ry
     estimated scf accuracy    <       0.57705306 Ry

     total magnetization       =    86.54 Bohr mag/cell
     absolute magnetization    =    89.17 Bohr mag/cell

     iteration # 18     ecut=    50.00 Ry     beta= 0.10
     Davidson diagonalization with overlap
     ethr =  2.95E-05,  avg # of iterations =  1.5

     negative rho (up, down):  1.248E-04 3.717E-04
 
     Adding external electric field

     Computed dipole along edir(3) : 
        Dipole               -0.3456 Ry au,         -0.8785 Debye
        Dipole field         -0.0002 Ry au, 
 
        Potential amp.        0.0233 Ry
        Total length         55.1515 bohr
 
 
     Adding external electric field

     Computed dipole along edir(3) : 
        Dipole               -0.3456 Ry au,         -0.8785 Debye
        Dipole field         -0.0002 Ry au, 
 
        Potential amp.        0.0233 Ry
        Total length         55.1515 bohr
 

     total cpu time spent up to now is      280.6 secs

     total energy              =   -7738.30770624 Ry
     estimated scf accuracy    <       0.25992754 Ry

     total magnetization       =    87.87 Bohr mag/cell
     absolute magnetization    =    89.63 Bohr mag/cell

     iteration # 19     ecut=    50.00 Ry     beta= 0.10
     Davidson diagonalization with overlap
     ethr =  2.38E-05,  avg # of iterations =  2.0

     negative rho (up, down):  6.144E-05 2.600E-04
 
     Adding external electric field

     Computed dipole along edir(3) : 
        Dipole               -0.3212 Ry au,         -0.8164 Debye
        Dipole field         -0.0002 Ry au, 
 
        Potential amp.        0.0217 Ry
        Total length         55.1515 bohr
 
 
     Adding external electric field

     Computed dipole along edir(3) : 
        Dipole               -0.3212 Ry au,         -0.8164 Debye
        Dipole field         -0.0002 Ry au, 
 
        Potential amp.        0.0217 Ry
        Total length         55.1515 bohr
 

     total cpu time spent up to now is      294.6 secs

     total energy              =   -7738.31051366 Ry
     estimated scf accuracy    <       0.31706035 Ry

     total magnetization       =    87.71 Bohr mag/cell
     absolute magnetization    =    89.14 Bohr mag/cell

     iteration # 20     ecut=    50.00 Ry     beta= 0.10
     Davidson diagonalization with overlap
     ethr =  2.38E-05,  avg # of iterations =  1.5

     negative rho (up, down):  2.008E-05 3.446E-05
 
     Adding external electric field

     Computed dipole along edir(3) : 
        Dipole               -0.2665 Ry au,         -0.6773 Debye
        Dipole field         -0.0002 Ry au, 
 
        Potential amp.        0.0180 Ry
        Total length         55.1515 bohr
 
 
     Adding external electric field

     Computed dipole along edir(3) : 
        Dipole               -0.2665 Ry au,         -0.6773 Debye
        Dipole field         -0.0002 Ry au, 
 
        Potential amp.        0.0180 Ry
        Total length         55.1515 bohr
 

     total cpu time spent up to now is      307.5 secs

     total energy              =   -7738.30219777 Ry
     estimated scf accuracy    <       0.55479372 Ry

     total magnetization       =    86.74 Bohr mag/cell
     absolute magnetization    =    88.14 Bohr mag/cell

     iteration # 21     ecut=    50.00 Ry     beta= 0.10
     Davidson diagonalization with overlap
     ethr =  2.38E-05,  avg # of iterations =  9.5

     negative rho (up, down):  1.905E-04 2.142E-04
 
     Adding external electric field

     Computed dipole along edir(3) : 
        Dipole               -0.1587 Ry au,         -0.4035 Debye
        Dipole field         -0.0001 Ry au, 
 
        Potential amp.        0.0107 Ry
        Total length         55.1515 bohr
 
 
     Adding external electric field

     Computed dipole along edir(3) : 
        Dipole               -0.1587 Ry au,         -0.4035 Debye
        Dipole field         -0.0001 Ry au, 
 
        Potential amp.        0.0107 Ry
        Total length         55.1515 bohr
 

     total cpu time spent up to now is      325.4 secs

     total energy              =   -7738.30304345 Ry
     estimated scf accuracy    <       0.12571882 Ry

     total magnetization       =    88.19 Bohr mag/cell
     absolute magnetization    =    89.50 Bohr mag/cell

     iteration # 22     ecut=    50.00 Ry     beta= 0.10
     Davidson diagonalization with overlap
     c_bands:  5 eigenvalues not converged
     c_bands:  3 eigenvalues not converged
     ethr =  1.15E-05,  avg # of iterations = 20.0

     negative rho (up, down):  1.395E-04 1.778E-04
 
     Adding external electric field

     Computed dipole along edir(3) : 
        Dipole               -0.1558 Ry au,         -0.3959 Debye
        Dipole field         -0.0001 Ry au, 
 
        Potential amp.        0.0105 Ry
        Total length         55.1515 bohr
 
 
     Adding external electric field

     Computed dipole along edir(3) : 
        Dipole               -0.1558 Ry au,         -0.3959 Debye
        Dipole field         -0.0001 Ry au, 
 
        Potential amp.        0.0105 Ry
        Total length         55.1515 bohr
 

     total cpu time spent up to now is      352.5 secs

     total energy              =   -7738.30543475 Ry
     estimated scf accuracy    <       0.06893853 Ry

     total magnetization       =    88.18 Bohr mag/cell
     absolute magnetization    =    89.49 Bohr mag/cell

     iteration # 23     ecut=    50.00 Ry     beta= 0.10
     Davidson diagonalization with overlap
     ethr =  6.31E-06,  avg # of iterations = 16.0

     negative rho (up, down):  1.377E-04 1.785E-04
 
     Adding external electric field

     Computed dipole along edir(3) : 
        Dipole               -0.1512 Ry au,         -0.3842 Debye
        Dipole field         -0.0001 Ry au, 
 
        Potential amp.        0.0102 Ry
        Total length         55.1515 bohr
 
 
     Adding external electric field

     Computed dipole along edir(3) : 
        Dipole               -0.1512 Ry au,         -0.3842 Debye
        Dipole field         -0.0001 Ry au, 
 
        Potential amp.        0.0102 Ry
        Total length         55.1515 bohr
 

     total cpu time spent up to now is      379.0 secs

     total energy              =   -7738.30549802 Ry
     estimated scf accuracy    <       0.06993260 Ry

     total magnetization       =    88.15 Bohr mag/cell
     absolute magnetization    =    89.44 Bohr mag/cell

     iteration # 24     ecut=    50.00 Ry     beta= 0.10
     Davidson diagonalization with overlap
     ethr =  6.31E-06,  avg # of iterations =  1.5

     negative rho (up, down):  1.089E-04 1.617E-04
 
     Adding external electric field

     Computed dipole along edir(3) : 
        Dipole               -0.1918 Ry au,         -0.4875 Debye
        Dipole field         -0.0001 Ry au, 
 
        Potential amp.        0.0130 Ry
        Total length         55.1515 bohr
 
 
     Adding external electric field

     Computed dipole along edir(3) : 
        Dipole               -0.1918 Ry au,         -0.4875 Debye
        Dipole field         -0.0001 Ry au, 
 
        Potential amp.        0.0130 Ry
        Total length         55.1515 bohr
 

     total cpu time spent up to now is      391.1 secs

     total energy              =   -7738.30374929 Ry
     estimated scf accuracy    <       0.07094941 Ry

     total magnetization       =    88.14 Bohr mag/cell
     absolute magnetization    =    89.42 Bohr mag/cell

     iteration # 25     ecut=    50.00 Ry     beta= 0.10
     Davidson diagonalization with overlap
     ethr =  6.31E-06,  avg # of iterations =  1.5

     negative rho (up, down):  6.954E-05 1.193E-04
 
     Adding external electric field

     Computed dipole along edir(3) : 
        Dipole               -0.1380 Ry au,         -0.3508 Debye
        Dipole field         -0.0001 Ry au, 
 
        Potential amp.        0.0093 Ry
        Total length         55.1515 bohr
 
 
     Adding external electric field

     Computed dipole along edir(3) : 
        Dipole               -0.1380 Ry au,         -0.3508 Debye
        Dipole field         -0.0001 Ry au, 
 
        Potential amp.        0.0093 Ry
        Total length         55.1515 bohr
 

     total cpu time spent up to now is      403.4 secs

     total energy              =   -7738.30400923 Ry
     estimated scf accuracy    <       0.07174760 Ry

     total magnetization       =    88.25 Bohr mag/cell
     absolute magnetization    =    89.44 Bohr mag/cell

     iteration # 26     ecut=    50.00 Ry     beta= 0.10
     Davidson diagonalization with overlap
     ethr =  6.31E-06,  avg # of iterations =  1.5

     negative rho (up, down):  7.149E-05 8.598E-05
 
     Adding external electric field

     Computed dipole along edir(3) : 
        Dipole               -0.1317 Ry au,         -0.3346 Debye
        Dipole field         -0.0001 Ry au, 
 
        Potential amp.        0.0089 Ry
        Total length         55.1515 bohr
 
 
     Adding external electric field

     Computed dipole along edir(3) : 
        Dipole               -0.1317 Ry au,         -0.3346 Debye
        Dipole field         -0.0001 Ry au, 
 
        Potential amp.        0.0089 Ry
        Total length         55.1515 bohr
 

     total cpu time spent up to now is      415.6 secs

     total energy              =   -7738.30455152 Ry
     estimated scf accuracy    <       0.06879769 Ry

     total magnetization       =    88.30 Bohr mag/cell
     absolute magnetization    =    89.60 Bohr mag/cell

     iteration # 27     ecut=    50.00 Ry     beta= 0.10
     Davidson diagonalization with overlap
     ethr =  6.29E-06,  avg # of iterations =  1.0

     negative rho (up, down):  7.944E-04 9.834E-04
 
     Adding external electric field

     Computed dipole along edir(3) : 
        Dipole               -0.0360 Ry au,         -0.0914 Debye
        Dipole field         -0.0000 Ry au, 
 
        Potential amp.        0.0024 Ry
        Total length         55.1515 bohr
 
 
     Adding external electric field

     Computed dipole along edir(3) : 
        Dipole               -0.0360 Ry au,         -0.0914 Debye
        Dipole field         -0.0000 Ry au, 
 
        Potential amp.        0.0024 Ry
        Total length         55.1515 bohr
 

     total cpu time spent up to now is      427.8 secs

     total energy              =   -7738.30433118 Ry
     estimated scf accuracy    <       0.07467914 Ry

     total magnetization       =    88.29 Bohr mag/cell
     absolute magnetization    =    89.88 Bohr mag/cell

     iteration # 28     ecut=    50.00 Ry     beta= 0.10
     Davidson diagonalization with overlap
     ethr =  6.29E-06,  avg # of iterations =  2.0

     negative rho (up, down):  1.056E-03 1.263E-03
 
     Adding external electric field

     Computed dipole along edir(3) : 
        Dipole                0.0381 Ry au,          0.0970 Debye
        Dipole field          0.0000 Ry au, 
 
        Potential amp.       -0.0026 Ry
        Total length         55.1515 bohr
 
 
     Adding external electric field

     Computed dipole along edir(3) : 
        Dipole                0.0381 Ry au,          0.0970 Debye
        Dipole field          0.0000 Ry au, 
 
        Potential amp.       -0.0026 Ry
        Total length         55.1515 bohr
 

     total cpu time spent up to now is      440.4 secs

     total energy              =   -7738.30605163 Ry
     estimated scf accuracy    <       0.06270908 Ry

     total magnetization       =    88.28 Bohr mag/cell
     absolute magnetization    =    89.70 Bohr mag/cell

     iteration # 29     ecut=    50.00 Ry     beta= 0.10
     Davidson diagonalization with overlap
     ethr =  5.74E-06,  avg # of iterations =  1.5

     negative rho (up, down):  1.260E-03 1.447E-03
 
     Adding external electric field

     Computed dipole along edir(3) : 
        Dipole                0.0776 Ry au,          0.1973 Debye
        Dipole field          0.0000 Ry au, 
 
        Potential amp.       -0.0052 Ry
        Total length         55.1515 bohr
 
 
     Adding external electric field

     Computed dipole along edir(3) : 
        Dipole                0.0776 Ry au,          0.1973 Debye
        Dipole field          0.0000 Ry au, 
 
        Potential amp.       -0.0052 Ry
        Total length         55.1515 bohr
 

     total cpu time spent up to now is      451.8 secs

     total energy              =   -7738.30631647 Ry
     estimated scf accuracy    <       0.06035144 Ry

     total magnetization       =    88.19 Bohr mag/cell
     absolute magnetization    =    89.60 Bohr mag/cell

     iteration # 30     ecut=    50.00 Ry     beta= 0.10
     Davidson diagonalization with overlap
     ethr =  5.52E-06,  avg # of iterations =  1.0

     negative rho (up, down):  1.116E-03 1.143E-03
 
     Adding external electric field

     Computed dipole along edir(3) : 
        Dipole                0.1121 Ry au,          0.2850 Debye
        Dipole field          0.0001 Ry au, 
 
        Potential amp.       -0.0076 Ry
        Total length         55.1515 bohr
 
 
     Adding external electric field

     Computed dipole along edir(3) : 
        Dipole                0.1121 Ry au,          0.2850 Debye
        Dipole field          0.0001 Ry au, 
 
        Potential amp.       -0.0076 Ry
        Total length         55.1515 bohr
 

     total cpu time spent up to now is      463.0 secs

     total energy              =   -7738.30565456 Ry
     estimated scf accuracy    <       0.05837746 Ry

     total magnetization       =    88.21 Bohr mag/cell
     absolute magnetization    =    89.59 Bohr mag/cell

     iteration # 31     ecut=    50.00 Ry     beta= 0.10
     Davidson diagonalization with overlap
     ethr =  5.34E-06,  avg # of iterations =  1.5

     negative rho (up, down):  1.204E-03 1.199E-03
 
     Adding external electric field

     Computed dipole along edir(3) : 
        Dipole                0.1533 Ry au,          0.3896 Debye
        Dipole field          0.0001 Ry au, 
 
        Potential amp.       -0.0104 Ry
        Total length         55.1515 bohr
 
 
     Adding external electric field

     Computed dipole along edir(3) : 
        Dipole                0.1533 Ry au,          0.3896 Debye
        Dipole field          0.0001 Ry au, 
 
        Potential amp.       -0.0104 Ry
        Total length         55.1515 bohr
 

     total cpu time spent up to now is      474.9 secs

     total energy              =   -7738.30541274 Ry
     estimated scf accuracy    <       0.05699486 Ry

     total magnetization       =    88.34 Bohr mag/cell
     absolute magnetization    =    89.69 Bohr mag/cell

     iteration # 32     ecut=    50.00 Ry     beta= 0.10
     Davidson diagonalization with overlap
     ethr =  5.21E-06,  avg # of iterations =  1.0

     negative rho (up, down):  1.454E-03 1.118E-03
 
     Adding external electric field

     Computed dipole along edir(3) : 
        Dipole                0.3252 Ry au,          0.8266 Debye
        Dipole field          0.0002 Ry au, 
 
        Potential amp.       -0.0220 Ry
        Total length         55.1515 bohr
 
 
     Adding external electric field

     Computed dipole along edir(3) : 
        Dipole                0.3252 Ry au,          0.8266 Debye
        Dipole field          0.0002 Ry au, 
 
        Potential amp.       -0.0220 Ry
        Total length         55.1515 bohr
 

     total cpu time spent up to now is      486.1 secs

     total energy              =   -7738.30021895 Ry
     estimated scf accuracy    <       0.05521930 Ry

     total magnetization       =    88.35 Bohr mag/cell
     absolute magnetization    =    89.69 Bohr mag/cell

     iteration # 33     ecut=    50.00 Ry     beta= 0.10
     Davidson diagonalization with overlap
     ethr =  5.05E-06,  avg # of iterations =  2.0

     negative rho (up, down):  1.531E-03 1.414E-03
 
     Adding external electric field

     Computed dipole along edir(3) : 
        Dipole                0.2745 Ry au,          0.6976 Debye
        Dipole field          0.0002 Ry au, 
 
        Potential amp.       -0.0185 Ry
        Total length         55.1515 bohr
 
 
     Adding external electric field

     Computed dipole along edir(3) : 
        Dipole                0.2745 Ry au,          0.6976 Debye
        Dipole field          0.0002 Ry au, 
 
        Potential amp.       -0.0185 Ry
        Total length         55.1515 bohr
 

     total cpu time spent up to now is      499.2 secs

     total energy              =   -7738.30362870 Ry
     estimated scf accuracy    <       0.05984933 Ry

     total magnetization       =    88.42 Bohr mag/cell
     absolute magnetization    =    89.59 Bohr mag/cell

     iteration # 34     ecut=    50.00 Ry     beta= 0.10
     Davidson diagonalization with overlap
     ethr =  5.05E-06,  avg # of iterations =  1.0

     negative rho (up, down):  9.751E-04 5.957E-04
 
     Adding external electric field

     Computed dipole along edir(3) : 
        Dipole                0.3334 Ry au,          0.8473 Debye
        Dipole field          0.0002 Ry au, 
 
        Potential amp.       -0.0225 Ry
        Total length         55.1515 bohr
 
 
     Adding external electric field

     Computed dipole along edir(3) : 
        Dipole                0.3334 Ry au,          0.8473 Debye
        Dipole field          0.0002 Ry au, 
 
        Potential amp.       -0.0225 Ry
        Total length         55.1515 bohr
 

     total cpu time spent up to now is      510.4 secs

     total energy              =   -7738.29821838 Ry
     estimated scf accuracy    <       0.07172441 Ry

     total magnetization       =    88.33 Bohr mag/cell
     absolute magnetization    =    89.59 Bohr mag/cell

     iteration # 35     ecut=    50.00 Ry     beta= 0.10
     Davidson diagonalization with overlap
     ethr =  5.05E-06,  avg # of iterations =  2.0

     negative rho (up, down):  9.138E-04 5.949E-04
 
     Adding external electric field

     Computed dipole along edir(3) : 
        Dipole                0.3763 Ry au,          0.9564 Debye
        Dipole field          0.0002 Ry au, 
 
        Potential amp.       -0.0254 Ry
        Total length         55.1515 bohr
 
 
     Adding external electric field

     Computed dipole along edir(3) : 
        Dipole                0.3763 Ry au,          0.9564 Debye
        Dipole field          0.0002 Ry au, 
 
        Potential amp.       -0.0254 Ry
        Total length         55.1515 bohr
 

     total cpu time spent up to now is      523.4 secs

     total energy              =   -7738.30003445 Ry
     estimated scf accuracy    <       0.03524808 Ry

     total magnetization       =    88.45 Bohr mag/cell
     absolute magnetization    =    89.59 Bohr mag/cell

     iteration # 36     ecut=    50.00 Ry     beta= 0.10
     Davidson diagonalization with overlap
     ethr =  3.22E-06,  avg # of iterations =  2.0

     negative rho (up, down):  4.208E-03 3.762E-03
 
     Adding external electric field

     Computed dipole along edir(3) : 
        Dipole                0.5531 Ry au,          1.4057 Debye
        Dipole field          0.0003 Ry au, 
 
        Potential amp.       -0.0373 Ry
        Total length         55.1515 bohr
 
 
     Adding external electric field

     Computed dipole along edir(3) : 
        Dipole                0.5531 Ry au,          1.4057 Debye
        Dipole field          0.0003 Ry au, 
 
        Potential amp.       -0.0373 Ry
        Total length         55.1515 bohr
 

     total cpu time spent up to now is      536.8 secs

     total energy              =   -7738.30049384 Ry
     estimated scf accuracy    <       0.02018260 Ry

     total magnetization       =    88.38 Bohr mag/cell
     absolute magnetization    =    89.61 Bohr mag/cell

     iteration # 37     ecut=    50.00 Ry     beta= 0.10
     Davidson diagonalization with overlap
     c_bands:  3 eigenvalues not converged
     c_bands:  1 eigenvalues not converged
     ethr =  1.85E-06,  avg # of iterations = 20.0

     negative rho (up, down):  3.082E-03 2.888E-03
 
     Adding external electric field

     Computed dipole along edir(3) : 
        Dipole                0.5353 Ry au,          1.3605 Debye
        Dipole field          0.0003 Ry au, 
 
        Potential amp.       -0.0361 Ry
        Total length         55.1515 bohr
 
 
     Adding external electric field

     Computed dipole along edir(3) : 
        Dipole                0.5353 Ry au,          1.3605 Debye
        Dipole field          0.0003 Ry au, 
 
        Potential amp.       -0.0361 Ry
        Total length         55.1515 bohr
 

     total cpu time spent up to now is      566.2 secs

     total energy              =   -7738.30137266 Ry
     estimated scf accuracy    <       0.00784237 Ry

     total magnetization       =    88.26 Bohr mag/cell
     absolute magnetization    =    89.57 Bohr mag/cell

     iteration # 38     ecut=    50.00 Ry     beta= 0.10
     Davidson diagonalization with overlap
     ethr =  7.18E-07,  avg # of iterations =  2.0

     negative rho (up, down):  7.670E-04 7.523E-04
 
     Adding external electric field

     Computed dipole along edir(3) : 
        Dipole                0.4775 Ry au,          1.2137 Debye
        Dipole field          0.0003 Ry au, 
 
        Potential amp.       -0.0322 Ry
        Total length         55.1515 bohr
 
 
     Adding external electric field

     Computed dipole along edir(3) : 
        Dipole                0.4775 Ry au,          1.2137 Debye
        Dipole field          0.0003 Ry au, 
 
        Potential amp.       -0.0322 Ry
        Total length         55.1515 bohr
 

     total cpu time spent up to now is      579.6 secs

     total energy              =   -7738.30163997 Ry
     estimated scf accuracy    <       0.00452083 Ry

     total magnetization       =    88.30 Bohr mag/cell
     absolute magnetization    =    89.64 Bohr mag/cell

     iteration # 39     ecut=    50.00 Ry     beta= 0.10
     Davidson diagonalization with overlap
     ethr =  4.14E-07,  avg # of iterations =  2.0

     negative rho (up, down):  4.935E-04 4.787E-04
 
     Adding external electric field

     Computed dipole along edir(3) : 
        Dipole                0.4958 Ry au,          1.2602 Debye
        Dipole field          0.0003 Ry au, 
 
        Potential amp.       -0.0335 Ry
        Total length         55.1515 bohr
 
 
     Adding external electric field

     Computed dipole along edir(3) : 
        Dipole                0.4958 Ry au,          1.2602 Debye
        Dipole field          0.0003 Ry au, 
 
        Potential amp.       -0.0335 Ry
        Total length         55.1515 bohr
 

     total cpu time spent up to now is      593.3 secs

     total energy              =   -7738.30164280 Ry
     estimated scf accuracy    <       0.00334900 Ry

     total magnetization       =    88.28 Bohr mag/cell
     absolute magnetization    =    89.63 Bohr mag/cell

     iteration # 40     ecut=    50.00 Ry     beta= 0.10
     Davidson diagonalization with overlap
     ethr =  3.06E-07,  avg # of iterations =  2.0

     negative rho (up, down):  6.519E-04 5.614E-04
 
     Adding external electric field

     Computed dipole along edir(3) : 
        Dipole                0.5249 Ry au,          1.3341 Debye
        Dipole field          0.0003 Ry au, 
 
        Potential amp.       -0.0354 Ry
        Total length         55.1515 bohr
 
 
     Adding external electric field

     Computed dipole along edir(3) : 
        Dipole                0.5249 Ry au,          1.3341 Debye
        Dipole field          0.0003 Ry au, 
 
        Potential amp.       -0.0354 Ry
        Total length         55.1515 bohr
 

     total cpu time spent up to now is      606.2 secs

     total energy              =   -7738.30152315 Ry
     estimated scf accuracy    <       0.00215156 Ry

     total magnetization       =    88.27 Bohr mag/cell
     absolute magnetization    =    89.60 Bohr mag/cell

     iteration # 41     ecut=    50.00 Ry     beta= 0.10
     Davidson diagonalization with overlap
     ethr =  1.97E-07,  avg # of iterations =  2.0

     negative rho (up, down):  4.174E-04 3.102E-04
 
     Adding external electric field

     Computed dipole along edir(3) : 
        Dipole                0.5122 Ry au,          1.3019 Debye
        Dipole field          0.0003 Ry au, 
 
        Potential amp.       -0.0346 Ry
        Total length         55.1515 bohr
 
 
     Adding external electric field

     Computed dipole along edir(3) : 
        Dipole                0.5122 Ry au,          1.3019 Debye
        Dipole field          0.0003 Ry au, 
 
        Potential amp.       -0.0346 Ry
        Total length         55.1515 bohr
 

     total cpu time spent up to now is      619.8 secs

     total energy              =   -7738.30161609 Ry
     estimated scf accuracy    <       0.00126720 Ry

     total magnetization       =    88.28 Bohr mag/cell
     absolute magnetization    =    89.59 Bohr mag/cell

     iteration # 42     ecut=    50.00 Ry     beta= 0.10
     Davidson diagonalization with overlap
     ethr =  1.16E-07,  avg # of iterations =  2.0

     negative rho (up, down):  9.313E-05 5.322E-05
 
     Adding external electric field

     Computed dipole along edir(3) : 
        Dipole                0.4845 Ry au,          1.2315 Debye
        Dipole field          0.0003 Ry au, 
 
        Potential amp.       -0.0327 Ry
        Total length         55.1515 bohr
 
 
     Adding external electric field

     Computed dipole along edir(3) : 
        Dipole                0.4845 Ry au,          1.2315 Debye
        Dipole field          0.0003 Ry au, 
 
        Potential amp.       -0.0327 Ry
        Total length         55.1515 bohr
 

     total cpu time spent up to now is      632.9 secs

     total energy              =   -7738.30165235 Ry
     estimated scf accuracy    <       0.00109870 Ry

     total magnetization       =    88.29 Bohr mag/cell
     absolute magnetization    =    89.62 Bohr mag/cell

     iteration # 43     ecut=    50.00 Ry     beta= 0.10
     Davidson diagonalization with overlap
     ethr =  1.01E-07,  avg # of iterations =  2.0

     negative rho (up, down):  3.346E-05 1.391E-05
 
     Adding external electric field

     Computed dipole along edir(3) : 
        Dipole                0.4730 Ry au,          1.2022 Debye
        Dipole field          0.0003 Ry au, 
 
        Potential amp.       -0.0319 Ry
        Total length         55.1515 bohr
 
 
     Adding external electric field

     Computed dipole along edir(3) : 
        Dipole                0.4730 Ry au,          1.2022 Debye
        Dipole field          0.0003 Ry au, 
 
        Potential amp.       -0.0319 Ry
        Total length         55.1515 bohr
 

     total cpu time spent up to now is      646.3 secs

     total energy              =   -7738.30171865 Ry
     estimated scf accuracy    <       0.00090249 Ry

     total magnetization       =    88.29 Bohr mag/cell
     absolute magnetization    =    89.63 Bohr mag/cell

     iteration # 44     ecut=    50.00 Ry     beta= 0.10
     Davidson diagonalization with overlap
     ethr =  8.26E-08,  avg # of iterations =  2.0

     negative rho (up, down):  1.799E-05 8.080E-06
 
     Adding external electric field

     Computed dipole along edir(3) : 
        Dipole                0.4515 Ry au,          1.1475 Debye
        Dipole field          0.0003 Ry au, 
 
        Potential amp.       -0.0305 Ry
        Total length         55.1515 bohr
 
 
     Adding external electric field

     Computed dipole along edir(3) : 
        Dipole                0.4515 Ry au,          1.1475 Debye
        Dipole field          0.0003 Ry au, 
 
        Potential amp.       -0.0305 Ry
        Total length         55.1515 bohr
 

     total cpu time spent up to now is      660.3 secs

     total energy              =   -7738.30173103 Ry
     estimated scf accuracy    <       0.00074962 Ry

     total magnetization       =    88.30 Bohr mag/cell
     absolute magnetization    =    89.64 Bohr mag/cell

     iteration # 45     ecut=    50.00 Ry     beta= 0.10
     Davidson diagonalization with overlap
     c_bands:  1 eigenvalues not converged
     ethr =  6.86E-08,  avg # of iterations = 11.0

     negative rho (up, down):  1.912E-05 8.512E-06
 
     Adding external electric field

     Computed dipole along edir(3) : 
        Dipole                0.4446 Ry au,          1.1299 Debye
        Dipole field          0.0003 Ry au, 
 
        Potential amp.       -0.0300 Ry
        Total length         55.1515 bohr
 
 
     Adding external electric field

     Computed dipole along edir(3) : 
        Dipole                0.4446 Ry au,          1.1299 Debye
        Dipole field          0.0003 Ry au, 
 
        Potential amp.       -0.0300 Ry
        Total length         55.1515 bohr
 

     total cpu time spent up to now is      678.9 secs

     total energy              =   -7738.30174582 Ry
     estimated scf accuracy    <       0.00055174 Ry

     total magnetization       =    88.32 Bohr mag/cell
     absolute magnetization    =    89.66 Bohr mag/cell

     iteration # 46     ecut=    50.00 Ry     beta= 0.10
     Davidson diagonalization with overlap
     ethr =  5.05E-08,  avg # of iterations =  2.5

     negative rho (up, down):  1.608E-05 3.459E-06
 
     Adding external electric field

     Computed dipole along edir(3) : 
        Dipole                0.4563 Ry au,          1.1597 Debye
        Dipole field          0.0003 Ry au, 
 
        Potential amp.       -0.0308 Ry
        Total length         55.1515 bohr
 
 
     Adding external electric field

     Computed dipole along edir(3) : 
        Dipole                0.4563 Ry au,          1.1597 Debye
        Dipole field          0.0003 Ry au, 
 
        Potential amp.       -0.0308 Ry
        Total length         55.1515 bohr
 

     total cpu time spent up to now is      692.7 secs

     total energy              =   -7738.30183525 Ry
     estimated scf accuracy    <       0.00045153 Ry

     total magnetization       =    88.33 Bohr mag/cell
     absolute magnetization    =    89.67 Bohr mag/cell

     iteration # 47     ecut=    50.00 Ry     beta= 0.10
     Davidson diagonalization with overlap
     ethr =  4.13E-08,  avg # of iterations =  1.5

     negative rho (up, down):  3.918E-05 9.313E-06
 
     Adding external electric field

     Computed dipole along edir(3) : 
        Dipole                0.4783 Ry au,          1.2158 Debye
        Dipole field          0.0003 Ry au, 
 
        Potential amp.       -0.0323 Ry
        Total length         55.1515 bohr
 
 
     Adding external electric field

     Computed dipole along edir(3) : 
        Dipole                0.4783 Ry au,          1.2158 Debye
        Dipole field          0.0003 Ry au, 
 
        Potential amp.       -0.0323 Ry
        Total length         55.1515 bohr
 

     total cpu time spent up to now is      705.5 secs

     total energy              =   -7738.30193122 Ry
     estimated scf accuracy    <       0.00033787 Ry

     total magnetization       =    88.33 Bohr mag/cell
     absolute magnetization    =    89.67 Bohr mag/cell

     iteration # 48     ecut=    50.00 Ry     beta= 0.10
     Davidson diagonalization with overlap
     ethr =  3.09E-08,  avg # of iterations =  7.5

     negative rho (up, down):  1.394E-04 4.588E-05
 
     Adding external electric field

     Computed dipole along edir(3) : 
        Dipole                0.4971 Ry au,          1.2634 Debye
        Dipole field          0.0003 Ry au, 
 
        Potential amp.       -0.0336 Ry
        Total length         55.1515 bohr
 
 
     Adding external electric field

     Computed dipole along edir(3) : 
        Dipole                0.4971 Ry au,          1.2634 Debye
        Dipole field          0.0003 Ry au, 
 
        Potential amp.       -0.0336 Ry
        Total length         55.1515 bohr
 

     total cpu time spent up to now is      721.9 secs

     total energy              =   -7738.30197273 Ry
     estimated scf accuracy    <       0.00023684 Ry

     total magnetization       =    88.33 Bohr mag/cell
     absolute magnetization    =    89.68 Bohr mag/cell

     iteration # 49     ecut=    50.00 Ry     beta= 0.10
     Davidson diagonalization with overlap
     ethr =  2.17E-08,  avg # of iterations =  2.0

     negative rho (up, down):  8.447E-04 5.105E-04
 
     Adding external electric field

     Computed dipole along edir(3) : 
        Dipole                0.5288 Ry au,          1.3441 Debye
        Dipole field          0.0003 Ry au, 
 
        Potential amp.       -0.0357 Ry
        Total length         55.1515 bohr
 
 
     Adding external electric field

     Computed dipole along edir(3) : 
        Dipole                0.5288 Ry au,          1.3441 Debye
        Dipole field          0.0003 Ry au, 
 
        Potential amp.       -0.0357 Ry
        Total length         55.1515 bohr
 

     total cpu time spent up to now is      735.3 secs

     total energy              =   -7738.30198915 Ry
     estimated scf accuracy    <       0.00016074 Ry

     total magnetization       =    88.34 Bohr mag/cell
     absolute magnetization    =    89.70 Bohr mag/cell

     iteration # 50     ecut=    50.00 Ry     beta= 0.10
     Davidson diagonalization with overlap
     c_bands:  1 eigenvalues not converged
     ethr =  1.47E-08,  avg # of iterations = 11.0

     negative rho (up, down):  9.229E-04 5.234E-04
 
     Adding external electric field

     Computed dipole along edir(3) : 
        Dipole                0.5295 Ry au,          1.3459 Debye
        Dipole field          0.0003 Ry au, 
 
        Potential amp.       -0.0358 Ry
        Total length         55.1515 bohr
 
 
     Adding external electric field

     Computed dipole along edir(3) : 
        Dipole                0.5295 Ry au,          1.3459 Debye
        Dipole field          0.0003 Ry au, 
 
        Potential amp.       -0.0358 Ry
        Total length         55.1515 bohr
 

     total cpu time spent up to now is      753.3 secs

     total energy              =   -7738.30200456 Ry
     estimated scf accuracy    <       0.00010281 Ry

     total magnetization       =    88.33 Bohr mag/cell
     absolute magnetization    =    89.69 Bohr mag/cell

     iteration # 51     ecut=    50.00 Ry     beta= 0.10
     Davidson diagonalization with overlap
     c_bands:  1 eigenvalues not converged
     ethr =  9.41E-09,  avg # of iterations = 10.5

     negative rho (up, down):  9.345E-04 5.282E-04
 
     Adding external electric field

     Computed dipole along edir(3) : 
        Dipole                0.5252 Ry au,          1.3348 Debye
        Dipole field          0.0003 Ry au, 
 
        Potential amp.       -0.0355 Ry
        Total length         55.1515 bohr
 
 
     Adding external electric field

     Computed dipole along edir(3) : 
        Dipole                0.5252 Ry au,          1.3348 Debye
        Dipole field          0.0003 Ry au, 
 
        Potential amp.       -0.0355 Ry
        Total length         55.1515 bohr
 

     total cpu time spent up to now is      770.6 secs

     total energy              =   -7738.30201292 Ry
     estimated scf accuracy    <       0.00006910 Ry

     total magnetization       =    88.33 Bohr mag/cell
     absolute magnetization    =    89.69 Bohr mag/cell

     iteration # 52     ecut=    50.00 Ry     beta= 0.10
     Davidson diagonalization with overlap
     ethr =  6.32E-09,  avg # of iterations =  4.0

     negative rho (up, down):  1.128E-03 7.022E-04
 
     Adding external electric field

     Computed dipole along edir(3) : 
        Dipole                0.5305 Ry au,          1.3483 Debye
        Dipole field          0.0003 Ry au, 
 
        Potential amp.       -0.0358 Ry
        Total length         55.1515 bohr
 
 
     Adding external electric field

     Computed dipole along edir(3) : 
        Dipole                0.5305 Ry au,          1.3483 Debye
        Dipole field          0.0003 Ry au, 
 
        Potential amp.       -0.0358 Ry
        Total length         55.1515 bohr
 

     total cpu time spent up to now is      784.9 secs

     total energy              =   -7738.30201484 Ry
     estimated scf accuracy    <       0.00007072 Ry

     total magnetization       =    88.33 Bohr mag/cell
     absolute magnetization    =    89.69 Bohr mag/cell

     iteration # 53     ecut=    50.00 Ry     beta= 0.10
     Davidson diagonalization with overlap
     ethr =  6.32E-09,  avg # of iterations =  1.0

     negative rho (up, down):  1.184E-03 7.305E-04
 
     Adding external electric field

     Computed dipole along edir(3) : 
        Dipole                0.5356 Ry au,          1.3613 Debye
        Dipole field          0.0003 Ry au, 
 
        Potential amp.       -0.0362 Ry
        Total length         55.1515 bohr
 
 
     Adding external electric field

     Computed dipole along edir(3) : 
        Dipole                0.5356 Ry au,          1.3613 Debye
        Dipole field          0.0003 Ry au, 
 
        Potential amp.       -0.0362 Ry
        Total length         55.1515 bohr
 

     total cpu time spent up to now is      796.5 secs

     total energy              =   -7738.30201164 Ry
     estimated scf accuracy    <       0.00005027 Ry

     total magnetization       =    88.32 Bohr mag/cell
     absolute magnetization    =    89.69 Bohr mag/cell

     iteration # 54     ecut=    50.00 Ry     beta= 0.10
     Davidson diagonalization with overlap
     ethr =  4.60E-09,  avg # of iterations =  2.0

     negative rho (up, down):  1.141E-03 6.886E-04
 
     Adding external electric field

     Computed dipole along edir(3) : 
        Dipole                0.5377 Ry au,          1.3667 Debye
        Dipole field          0.0003 Ry au, 
 
        Potential amp.       -0.0363 Ry
        Total length         55.1515 bohr
 
 
     Adding external electric field

     Computed dipole along edir(3) : 
        Dipole                0.5377 Ry au,          1.3667 Debye
        Dipole field          0.0003 Ry au, 
 
        Potential amp.       -0.0363 Ry
        Total length         55.1515 bohr
 

     total cpu time spent up to now is      809.4 secs

     total energy              =   -7738.30201009 Ry
     estimated scf accuracy    <       0.00003829 Ry

     total magnetization       =    88.32 Bohr mag/cell
     absolute magnetization    =    89.68 Bohr mag/cell

     iteration # 55     ecut=    50.00 Ry     beta= 0.10
     Davidson diagonalization with overlap
     ethr =  3.50E-09,  avg # of iterations =  1.0

     negative rho (up, down):  1.217E-03 7.901E-04
 
     Adding external electric field

     Computed dipole along edir(3) : 
        Dipole                0.5415 Ry au,          1.3763 Debye
        Dipole field          0.0003 Ry au, 
 
        Potential amp.       -0.0366 Ry
        Total length         55.1515 bohr
 
 
     Adding external electric field

     Computed dipole along edir(3) : 
        Dipole                0.5415 Ry au,          1.3763 Debye
        Dipole field          0.0003 Ry au, 
 
        Potential amp.       -0.0366 Ry
        Total length         55.1515 bohr
 

     total cpu time spent up to now is      821.3 secs

     total energy              =   -7738.30200982 Ry
     estimated scf accuracy    <       0.00002727 Ry

     total magnetization       =    88.32 Bohr mag/cell
     absolute magnetization    =    89.68 Bohr mag/cell

     iteration # 56     ecut=    50.00 Ry     beta= 0.10
     Davidson diagonalization with overlap
     ethr =  2.49E-09,  avg # of iterations =  1.0

     negative rho (up, down):  1.175E-03 7.609E-04
 
     Adding external electric field

     Computed dipole along edir(3) : 
        Dipole                0.5396 Ry au,          1.3716 Debye
        Dipole field          0.0003 Ry au, 
 
        Potential amp.       -0.0364 Ry
        Total length         55.1515 bohr
 
 
     Adding external electric field

     Computed dipole along edir(3) : 
        Dipole                0.5396 Ry au,          1.3716 Debye
        Dipole field          0.0003 Ry au, 
 
        Potential amp.       -0.0364 Ry
        Total length         55.1515 bohr
 

     total cpu time spent up to now is      833.2 secs

     total energy              =   -7738.30201070 Ry
     estimated scf accuracy    <       0.00001553 Ry

     total magnetization       =    88.32 Bohr mag/cell
     absolute magnetization    =    89.67 Bohr mag/cell

     iteration # 57     ecut=    50.00 Ry     beta= 0.10
     Davidson diagonalization with overlap
     ethr =  1.42E-09,  avg # of iterations =  1.0

     negative rho (up, down):  1.122E-03 6.928E-04
 
     Adding external electric field

     Computed dipole along edir(3) : 
        Dipole                0.5424 Ry au,          1.3786 Debye
        Dipole field          0.0003 Ry au, 
 
        Potential amp.       -0.0366 Ry
        Total length         55.1515 bohr
 
 
     Adding external electric field

     Computed dipole along edir(3) : 
        Dipole                0.5424 Ry au,          1.3786 Debye
        Dipole field          0.0003 Ry au, 
 
        Potential amp.       -0.0366 Ry
        Total length         55.1515 bohr
 

     total cpu time spent up to now is      844.8 secs

     total energy              =   -7738.30200988 Ry
     estimated scf accuracy    <       0.00001549 Ry

     total magnetization       =    88.32 Bohr mag/cell
     absolute magnetization    =    89.68 Bohr mag/cell

     iteration # 58     ecut=    50.00 Ry     beta= 0.10
     Davidson diagonalization with overlap
     ethr =  1.42E-09,  avg # of iterations =  1.0

[...]
    -5.9192  -5.9010  -5.8882  -5.8794  -5.8670  -5.8453  -5.8373  -5.8077
    -5.7806  -5.7745  -5.7351  -5.7248  -5.7082  -5.6805  -5.6699  -5.6520
    -5.6332  -5.6031  -5.5574  -5.5534  -5.5291  -5.4983  -5.4832  -5.4727
    -5.4681  -5.4369  -5.4309  -5.4028  -5.3848  -5.3694  -5.3566  -5.3270
    -5.2092  -5.1996  -5.1831  -5.1770  -5.1628  -5.1372  -5.0738  -5.0282
    -5.0119  -4.9932  -4.9497  -4.9219  -4.9113  -4.8928  -4.8586  -4.8175
    -4.7942  -4.7393  -4.7286  -4.7129  -4.6734  -4.6568  -4.6260  -4.5488
    -4.5469  -4.4763  -4.4613  -4.4039  -4.3972  -4.3786  -4.3382  -4.3302
    -4.3139  -4.2529  -4.1922  -4.1823  -4.1462  -4.1189  -4.1009  -4.0756
    -4.0667  -4.0422  -4.0397  -3.9677  -3.9233  -3.9024  -3.8900  -3.8509
    -3.8320  -3.8112  -3.7697  -3.7595  -3.7540  -3.7215  -3.6996  -3.6633
    -3.6365  -3.5891  -3.5868  -3.5811  -3.5601  -3.5399  -3.5389  -3.5180
    -3.5030  -3.4802  -3.4589  -3.4546  -3.4437  -3.4308  -3.4047  -3.3914
    -3.3632  -3.3596  -3.3441  -3.3145  -3.3091  -3.2700  -3.2545  -3.2086
    -3.2038  -3.1933  -3.1861  -3.1670  -3.1584  -3.1051  -3.0805  -3.0569
    -3.0341  -3.0161  -3.0111  -3.0014  -2.9977  -2.9864  -2.9689  -2.9309
    -2.9133  -2.9017  -2.8764  -2.8360  -2.8312  -2.8211  -2.7849  -2.7677
    -2.7436  -2.7315  -2.7157  -2.7028  -2.6986  -2.6803  -2.6644  -2.6558
    -2.6391  -2.6320  -2.6256  -2.6051  -2.5928  -2.5828  -2.5756  -2.5615
    -2.5449  -2.5320  -2.5165  -2.4958  -2.4780  -2.4717  -2.4482  -2.4387
    -2.4100  -2.4028  -2.3775  -2.3518  -2.3173  -2.3012  -2.2817  -2.2590
    -2.2477  -2.2329  -2.2114  -2.1714  -2.1583  -2.1391  -2.1267  -2.1024
    -2.0990  -2.0781  -2.0690  -2.0567  -2.0422  -2.0188  -2.0017  -1.9553
    -1.9414  -1.9122  -1.9084  -1.8997  -1.8894  -1.8786  -1.8454  -1.8221
    -1.8124  -1.7966  -1.7790  -1.7717  -1.7611  -1.7511  -1.7341  -1.7168
    -1.6909  -1.6641  -1.6464  -1.6079  -1.5999  -1.5818  -1.5614  -1.5438
    -1.5316  -1.4997  -1.4791  -1.4602  -1.4538  -1.4439  -1.4172  -1.3940
    -1.3863  -1.3760  -1.3541  -1.3450  -1.3199  -1.3048  -1.2489  -1.2437
    -1.2261  -1.2162  -1.1960  -1.1574  -1.1495  -1.0855  -1.0437  -1.0235
    -0.9814  -0.8770  -0.8593  -0.8195  -0.7491  -0.6860  -0.6754  -0.4510
    -0.2870  -0.2405  -0.2160  -0.1085   0.2141   0.2469   0.2689   0.2767
     0.2816   0.2978   0.3321   0.3410   0.3666   0.3764   0.3922   0.3974
     0.4034   0.4152   0.4254   0.4319   0.4395   0.4520   0.4589   0.4677
     0.4736   0.4842   0.4851   0.4937   0.4991   0.5086   0.5109   0.5223
     0.5385   0.5409   0.5501   0.5565   0.5620   0.5671   0.5699   0.5959
     0.6027   0.6054   0.6127   0.6167   0.6306   0.6427   0.6445   0.6464
     0.6619   0.6662   0.6689   0.6798   0.6818   0.7019   0.7057   0.7098
     0.7189   0.7239   0.7270   0.7363   0.7542   0.7666   0.7788   0.7820
     0.7900   0.7949   0.8027   0.8269   0.8316   0.8415   0.8451   0.8475
     0.8595   0.8630   0.8814   0.8955   0.8988   0.9041   0.9156   0.9217
     0.9286   0.9574   0.9673   0.9823   0.9844   0.9859   0.9884   1.0140
     1.0493   1.1277   1.1299   1.2285   1.2507   1.6995   1.7781   1.7863
     1.7915   1.8069   1.8178   1.8346   1.8447   1.8571   1.9404   1.9568
     1.9692   1.9894   2.0143   2.0378   2.0491   2.0778   2.0931   2.1430
     2.1537   2.1678   2.1781   2.2057   2.2191   2.2354   2.2487   2.2661
     2.2767   2.2972   2.3184   2.3336   2.3459   2.3565   2.3880   2.3965
     2.4085   2.4108   2.4585   2.4614   2.4892   2.5064   2.5139   2.5192
     2.5316   2.5366   2.5561   2.5648   2.5847   2.6168   2.6243   2.6431
     2.6636   2.6691   2.6817   2.7398   2.8074   2.8241   2.8815   2.8916
     2.8950   2.9388   3.5178   3.5522   3.6027   3.6295   3.7634   3.7935
     3.8748   3.8886   3.9022   3.9475   3.9608   4.0136   4.0981   4.1061
     4.1151   4.1380   4.1624   4.1674   4.1890   4.2035   4.6746   4.7938
     4.8444   4.8797   4.9479   4.9623   4.9962   5.0511   5.0589   5.1324
     5.1339   5.1915   5.4360   6.3006   6.3898   6.5264   6.6382   6.7322
     6.8108   6.8648   6.9174   6.9622   6.9997   7.0795   7.1489   7.2143
     7.2932   7.3572   7.4076   7.4179   7.4689   7.5034   7.6476   7.6859
     7.7243   7.7619   7.7722   7.8161   7.8604   7.9067   7.9262   7.9669
     8.0234   8.0553   8.0874   8.1159   8.1705   8.1900   8.2108   8.2413
     8.2776   8.3121   8.3667   8.3839   8.4233   8.4322   8.4428   8.4666
     8.4793   8.5071   8.5331   8.5510   8.5862   8.5955   8.6133   8.6683
     8.6909   8.7051   8.7224   8.7455   8.7646   8.8063   8.8388   8.8703

     the Fermi energy is     1.6910 ev

!    total energy              =   -7738.30201065 Ry
     estimated scf accuracy    <       0.00000059 Ry
     smearing contrib. (-TS)   =      -0.02505803 Ry
     internal energy E=F+TS    =   -7738.27695262 Ry

     The total energy is F=E-TS. E is the sum of the following terms:
     one-electron contribution =  -95054.71496486 Ry
     hartree contribution      =   48144.86732841 Ry
     xc contribution           =   -2218.74389501 Ry
     ewald contribution        =   41392.12306717 Ry
     Dispersion Correction     =      -1.80866211 Ry
     electric field correction =       0.00017378 Ry

     total magnetization       =    88.32 Bohr mag/cell
     absolute magnetization    =    89.68 Bohr mag/cell

     convergence has been achieved in  62 iterations

     negative rho (up, down):  1.048E-03 5.891E-04

     Forces acting on atoms (cartesian axes, Ry/au):

     atom    1 type  1   force =     0.02520361   -0.03091633    0.01854131
     atom    2 type  2   force =    -0.01374653   -0.00142493   -0.00979635
     atom    3 type  1   force =    -0.02324186   -0.01855117    0.01990940
     atom    4 type  1   force =     0.00567962    0.00414678   -0.00625512
     atom    5 type  1   force =    -0.00185229    0.00110189   -0.00506778
     atom    6 type  1   force =     0.00204275    0.00768318   -0.00883150
     atom    7 type  3   force =    -0.00772896    0.00117506   -0.01044032
     atom    8 type  3   force =    -0.03499668    0.05415382   -0.08328971
     atom    9 type  3   force =     0.03414514    0.03817138   -0.06428764
     atom   10 type  3   force =    -0.00306671   -0.00248664   -0.01159488
     atom   11 type  4   force =     0.00673625    0.00561345    0.01392106
     atom   12 type  4   force =    -0.00026511   -0.00290878    0.01488682
     atom   13 type  4   force =     0.00195802    0.00171751    0.01741970
     atom   14 type  4   force =    -0.00049475   -0.00128714    0.01274744
     atom   15 type  4   force =    -0.00064812    0.00458254   -0.00200798
     atom   16 type  4   force =    -0.00043056    0.00263870    0.04031396
     atom   17 type  4   force =     0.00171663    0.00811110    0.03780539
     atom   18 type  4   force =     0.00795582   -0.00445101   -0.00051213
     atom   19 type  4   force =     0.00044679    0.01187908    0.00426774
     atom   20 type  4   force =    -0.00965592   -0.02678324   -0.00367196
     atom   21 type  4   force =    -0.01109853   -0.00043722    0.00066723
     atom   22 type  4   force =    -0.03209096    0.00311537    0.00787149
     atom   23 type  4   force =     0.03207388    0.00058449    0.01410373
     atom   24 type  4   force =     0.00701684   -0.03699055    0.00379670
     atom   25 type  4   force =    -0.00312738    0.00169056    0.00394706
     atom   26 type  4   force =     0.01781047   -0.00687511    0.00080446
     atom   27 type  1   force =    -0.00521037   -0.00877791    0.00269216
     atom   28 type  2   force =    -0.01380559   -0.00032023    0.00471657
     atom   29 type  1   force =     0.00299025   -0.00504511   -0.00131766
     atom   30 type  1   force =     0.00390266    0.00343530    0.00166788
     atom   31 type  1   force =     0.00134192   -0.00475313    0.00007328
     atom   32 type  1   force =    -0.00076323    0.00123840   -0.00190802
     atom   33 type  3   force =    -0.00627878   -0.00045079   -0.00045020
     atom   34 type  3   force =    -0.00800680    0.00259630   -0.00021698
     atom   35 type  3   force =     0.00436537   -0.00058598    0.00291990
     atom   36 type  3   force =     0.00093371   -0.00176715   -0.00501527
     atom   37 type  4   force =     0.00826223    0.00493095    0.00743940
     atom   38 type  4   force =     0.00377614   -0.00085155   -0.01932063
     atom   39 type  4   force =    -0.00151986    0.00365037   -0.00990807
     atom   40 type  4   force =    -0.00175300   -0.00228415    0.00902891
     atom   41 type  4   force =    -0.00050230    0.00346600   -0.00642497
     atom   42 type  4   force =    -0.00430992   -0.00453993    0.01806498
     atom   43 type  4   force =     0.00770597    0.00339056    0.00772608
     atom   44 type  4   force =     0.01048747   -0.00467604   -0.00762895
     atom   45 type  4   force =     0.00289308    0.00449028    0.00054640
     atom   46 type  4   force =     0.00236972   -0.00012408   -0.00560229
     atom   47 type  4   force =    -0.01287225   -0.00011026   -0.00355680
     atom   48 type  4   force =    -0.01459575    0.00125112    0.00332307
     atom   49 type  4   force =     0.01350294    0.00255741    0.00439571
     atom   50 type  4   force =    -0.00269047   -0.00489716   -0.00049811
     atom   51 type  4   force =    -0.00503193    0.00149609   -0.00002549
     atom   52 type  4   force =     0.01585834   -0.00422127   -0.00442516
     atom   53 type  1   force =     0.00034061   -0.00032078    0.00011532
     atom   54 type  2   force =     0.00022239    0.00051361   -0.00002484
     atom   55 type  1   force =     0.00031104    0.00007221    0.00009753
     atom   56 type  1   force =     0.00169982   -0.00168788    0.00169088
     atom   57 type  1   force =     0.00014622   -0.00080182    0.00030525
     atom   58 type  1   force =    -0.00000138    0.00066759    0.00018262
     atom   59 type  3   force =    -0.00061279   -0.00007013   -0.00012683
     atom   60 type  3   force =     0.00022620   -0.00023260    0.00033099
     atom   61 type  3   force =     0.00013388    0.00019537   -0.00012471
     atom   62 type  3   force =    -0.00000284   -0.00051694   -0.00014480
     atom   63 type  4   force =     0.00084633    0.00014485   -0.00037422
     atom   64 type  4   force =    -0.00004161   -0.00011717    0.00049843
     atom   65 type  4   force =    -0.00063440   -0.00051218    0.00056045
     atom   66 type  4   force =    -0.00088960   -0.00039227   -0.00042159
     atom   67 type  4   force =     0.00052522   -0.00037163   -0.00057196
     atom   68 type  4   force =     0.00021129    0.00074899    0.00067697
     atom   69 type  4   force =    -0.00000270    0.00047863   -0.00027699
     atom   70 type  4   force =    -0.00078251   -0.00022357   -0.00082389
     atom   71 type  4   force =     0.00088364   -0.00037504    0.00038366
     atom   72 type  4   force =    -0.00023757    0.00012318   -0.00003541
     atom   73 type  4   force =    -0.00002703   -0.00002374    0.00014713
     atom   74 type  4   force =    -0.00016299    0.00038844   -0.00052584
     atom   75 type  4   force =     0.00013667   -0.00061591   -0.00004923
     atom   76 type  4   force =    -0.00012672   -0.00053718    0.00026440
     atom   77 type  4   force =     0.00049463    0.00074978    0.00039178
     atom   78 type  4   force =    -0.00095239   -0.00066944    0.00018248
     atom   79 type  1   force =     0.02519846   -0.03090451    0.01858120
     atom   80 type  2   force =    -0.01373438   -0.00145966   -0.00979357
     atom   81 type  1   force =    -0.02325359   -0.01856229    0.01988264
     atom   82 type  1   force =     0.00568704    0.00408875   -0.00625079
     atom   83 type  1   force =    -0.00192996    0.00111417   -0.00506646
     atom   84 type  1   force =     0.00209556    0.00769383   -0.00884464
     atom   85 type  3   force =    -0.00773418    0.00116127   -0.01042767
     atom   86 type  3   force =    -0.03499536    0.05415436   -0.08329425
     atom   87 type  3   force =     0.03414881    0.03817226   -0.06428465
     atom   88 type  3   force =    -0.00305227   -0.00248602   -0.01160054
     atom   89 type  4   force =     0.00686894    0.00564039    0.01391884
     atom   90 type  4   force =    -0.00016133   -0.00283011    0.01487128
     atom   91 type  4   force =     0.00204479    0.00170468    0.01739628
     atom   92 type  4   force =    -0.00033104   -0.00128661    0.01273876
     atom   93 type  4   force =    -0.00064387    0.00479579   -0.00189902
     atom   94 type  4   force =    -0.00048908    0.00259247    0.04011267
     atom   95 type  4   force =     0.00184628    0.00811073    0.03780941
     atom   96 type  4   force =     0.00775895   -0.00446372   -0.00053535
     atom   97 type  4   force =     0.00054903    0.01197470    0.00417271
     atom   98 type  4   force =    -0.00954985   -0.02661317   -0.00363724
     atom   99 type  4   force =    -0.01111023   -0.00040236    0.00086264
     atom  100 type  4   force =    -0.03211952    0.00300837    0.00774784
     atom  101 type  4   force =     0.03210430    0.00058922    0.01410772
     atom  102 type  4   force =     0.00684220   -0.03699347    0.00380172
     atom  103 type  4   force =    -0.00302766    0.00162206    0.00391703
     atom  104 type  4   force =     0.01791392   -0.00687673    0.00079754
     atom  105 type  1   force =    -0.00525227   -0.00874012    0.00257877
     atom  106 type  2   force =    -0.01307052    0.00020241    0.00441344
     atom  107 type  1   force =     0.00298369   -0.00516159   -0.00134913
     atom  108 type  1   force =     0.00237903    0.00506346   -0.00203585
     atom  109 type  1   force =     0.00172495   -0.00467283    0.00016227
     atom  110 type  1   force =    -0.00076563    0.00127440   -0.00191205
     atom  111 type  3   force =    -0.00618691   -0.00172637   -0.00292533
     atom  112 type  3   force =    -0.00801864    0.00260600   -0.00027969
     atom  113 type  3   force =     0.00449144   -0.00067705    0.00278017
     atom  114 type  3   force =     0.00082908   -0.00197331   -0.00412067
     atom  115 type  4   force =     0.00858689    0.00514521    0.00768714
     atom  116 type  4   force =     0.00378632   -0.00089641   -0.01930757
     atom  117 type  4   force =    -0.00138417    0.00364020   -0.00992136
     atom  118 type  4   force =    -0.00137618   -0.00274201    0.00920449
     atom  119 type  4   force =    -0.00144982    0.00368906   -0.00684029
     atom  120 type  4   force =    -0.00416835   -0.00465161    0.01805410
     atom  121 type  4   force =     0.00770844    0.00335878    0.00776116
     atom  122 type  4   force =     0.01010621   -0.00536815   -0.00615045
     atom  123 type  4   force =     0.00281003    0.00470980    0.00043495
     atom  124 type  4   force =     0.00214330   -0.00006909   -0.00561081
     atom  125 type  4   force =    -0.01284306   -0.00014930   -0.00374091
     atom  126 type  4   force =    -0.01469947    0.00125250    0.00340354
     atom  127 type  4   force =     0.01352411    0.00246013    0.00454779
     atom  128 type  4   force =    -0.00286746   -0.00490166   -0.00049312
     atom  129 type  4   force =    -0.00532880    0.00148349    0.00042768
     atom  130 type  4   force =     0.01536261   -0.00415104   -0.00444439
     atom  131 type  1   force =    -0.00003574   -0.00013702    0.00010570
     atom  132 type  2   force =     0.00035656   -0.00014582    0.00003298
     atom  133 type  1   force =    -0.00042307   -0.00035087    0.00018630
     atom  134 type  1   force =     0.00004758    0.00088266    0.00002781
     atom  135 type  1   force =     0.00035542   -0.00074257   -0.00032901
     atom  136 type  1   force =    -0.00043546   -0.00023174    0.00057434
     atom  137 type  3   force =     0.00000951    0.00028353    0.00004529
     atom  138 type  3   force =    -0.00066641   -0.00030318    0.00019735
     atom  139 type  3   force =    -0.00011809    0.00013901    0.00051210
     atom  140 type  3   force =     0.00024275    0.00020819    0.00023733
     atom  141 type  4   force =     0.00044358   -0.00021058    0.00024450
     atom  142 type  4   force =    -0.00031683    0.00039877    0.00005291
     atom  143 type  4   force =    -0.00000781    0.00035883    0.00046019
     atom  144 type  4   force =    -0.00048279   -0.00052583    0.00009136
     atom  145 type  4   force =     0.00010739   -0.00041710   -0.00028362
     atom  146 type  4   force =     0.00080932    0.00043656    0.00020581
     atom  147 type  4   force =     0.00019058    0.00028048    0.00050888
     atom  148 type  4   force =     0.00039066    0.00054310   -0.00058514
     atom  149 type  4   force =    -0.00020291    0.00044657   -0.00032832
     atom  150 type  4   force =    -0.00020884   -0.00010526    0.00005288
     atom  151 type  4   force =    -0.00012089   -0.00070457   -0.00007392
     atom  152 type  4   force =    -0.00017438   -0.00035326   -0.00029427
     atom  153 type  4   force =    -0.00039551    0.00019423    0.00038802
     atom  154 type  4   force =     0.00031454   -0.00029496    0.00023634
     atom  155 type  4   force =    -0.00039422   -0.00006338   -0.00027763
     atom  156 type  4   force =    -0.00001955   -0.00047266    0.00014077
     atom  157 type  4   force =    -0.01338372   -0.00763246   -0.00608453
     atom  158 type  5   force =     0.01107310    0.00700489    0.00267620

     Total force =     0.263542     Total SCF correction =     0.002489
 
     init_run     :      7.86s CPU      8.43s WALL (       1 calls)
     electrons    :    861.78s CPU    896.13s WALL (       1 calls)
     forces       :      4.15s CPU      4.52s WALL (       1 calls)
     force_london :      0.09s CPU      0.09s WALL (       1 calls)

     Called by init_run:
     wfcinit      :      4.74s CPU      4.88s WALL (       1 calls)
     potinit      :      0.59s CPU      0.79s WALL (       1 calls)
     hinit0       :      1.46s CPU      1.55s WALL (       1 calls)

     Called by electrons:
     c_bands      :    675.55s CPU    694.82s WALL (      62 calls)
     sum_band     :    115.21s CPU    123.00s WALL (      62 calls)
     v_of_rho     :     15.69s CPU     17.03s WALL (      63 calls)
     newd         :     37.27s CPU     43.42s WALL (      63 calls)
     mix_rho      :     17.10s CPU     17.16s WALL (      62 calls)
     energy_londo :      0.08s CPU      0.08s WALL (       1 calls)

     Called by c_bands:
     init_us_2    :      1.34s CPU      1.39s WALL (     252 calls)
     init_us_2:cp :      1.33s CPU      1.39s WALL (     252 calls)
     regterg      :    663.13s CPU    682.26s WALL (     125 calls)

     Called by *egterg:
     rdiaghg      :    194.96s CPU    205.59s WALL (     562 calls)
     h_psi        :    244.49s CPU    248.08s WALL (     564 calls)
     s_psi        :     34.03s CPU     34.05s WALL (     564 calls)
     g_psi        :      0.25s CPU      0.26s WALL (     437 calls)

     Called by h_psi:
     h_psi:calbec :     67.44s CPU     70.22s WALL (     564 calls)
     vloc_psi     :    140.91s CPU    141.35s WALL (     564 calls)
     add_vuspsi   :     35.71s CPU     36.07s WALL (     564 calls)

     General routines
     calbec       :     99.69s CPU    103.97s WALL (     696 calls)
     fft          :     30.17s CPU     32.02s WALL (    1147 calls)
     ffts         :     10.33s CPU     10.34s WALL (    7691 calls)
     fftw         :    164.69s CPU    165.15s WALL (  212190 calls)
     interpolate  :      1.59s CPU      1.64s WALL (     126 calls)
 
     Parallel routines
 
     PWSCF        :  14m35.75s CPU  15m11.32s WALL

 
   This run was terminated on:  21:43:42  17Nov2025            

=------------------------------------------------------------------------------=
   JOB DONE.
=------------------------------------------------------------------------------=
