
     Program PWSCF v.7.2 starts on 17Nov2025 at 23:50:53 

     This program is part of the open-source Quantum ESPRESSO suite
     for quantum simulation of materials; please cite
         "P. Giannozzi et al., J. Phys.:Condens. Matter 21 395502 (2009);
         "P. Giannozzi et al., J. Phys.:Condens. Matter 29 465901 (2017);
         "P. Giannozzi et al., J. Chem. Phys. 152 154105 (2020);
          URL http://www.quantum-espresso.org", 
     in publications or presentations arising from this work. More details at
     http://www.quantum-espresso.org/quote

     Parallel version (MPI), running on    64 processors

     MPI processes distributed on     4 nodes
     401391 MiB available memory on the printing compute node when the environment starts
 
     Reading input from PWINPUT_atm158_xp

     Current dimensions of program PWSCF are:
     Max number of different atomic species (ntypx) = 10
     Max number of k-points (npk) =  40000
     Max angular momentum in pseudopotentials (lmaxx) =  4
     Presently no symmetry can be used with electric field

     file Ni.pbe-n-rrkjus_psl.1.0.0.UPF: wavefunction(s)  3D renormalized
     file Mn.pbe-spn-rrkjus_psl.0.3.1.UPF: wavefunction(s)  3D renormalized
     file O.pbe-rrkjus.UPF: wavefunction(s)  2S renormalized
     file H.pbe-rrkjus.UPF: wavefunction(s)  1S renormalized

     gamma-point specific algorithms are used
 
     R & G space division:  proc/nbgrp/npool/nimage =      64
     Subspace diagonalization in iterative solution of the eigenvalue problem:
     one sub-group per band group will be used
     custom distributed-memory algorithm (size of sub-group:  7*  7 procs)

 
     Parallelization info
     --------------------
     sticks:   dense  smooth     PW     G-vecs:    dense   smooth      PW
     Min         207      82     20                60552    15302    1896
     Max         210      84     22                60574    15336    1950
     Sum       13325    5345   1333              3876045   980655  122653
 
     Using Slab Decomposition
 


     bravais-lattice index     =            0
     lattice parameter (alat)  =      17.4067  a.u.
     unit-cell volume          =   20529.8182 (a.u.)^3
     number of atoms/cell      =          158
     number of atomic types    =            5
     number of electrons       =      1093.00
     number of Kohn-Sham states=          656
     kinetic-energy cutoff     =      50.0000  Ry
     charge density cutoff     =     500.0000  Ry
     scf convergence threshold =      1.0E-06
     mixing beta               =       0.1000
     number of iterations used =            8  local-TF  mixing
     Exchange-correlation=  SLA  PW   PBE  PBE
                           (   1   4   3   4   0   0   0)

     celldm(1)=  17.406729  celldm(2)=   0.000000  celldm(3)=   0.000000
     celldm(4)=   0.000000  celldm(5)=   0.000000  celldm(6)=   0.000000

     crystal axes: (cart. coord. in units of alat)
               a(1) = (   1.000000   0.000000   0.000000 )  
               a(2) = (  -0.001404   1.105696   0.000000 )  
               a(3) = (   0.000000   0.000000   3.520448 )  

     reciprocal axes: (cart. coord. in units 2 pi/alat)
               b(1) = (  1.000000  0.001270  0.000000 )  
               b(2) = (  0.000000  0.904408  0.000000 )  
               b(3) = (  0.000000  0.000000  0.284055 )  


     PseudoPot. # 1 for Ni read from file:
     ~/PSEUDO/Ni.pbe-n-rrkjus_psl.1.0.0.UPF
     MD5 check sum: Not computed, couldn't open file
     Pseudo is Ultrasoft + core correction, Zval = 10.0
     Generated using "atomic" code by A. Dal Corso  v.5.1.2
     Using radial grid of 1195 points,  6 beta functions with: 
                l(1) =   0
                l(2) =   0
                l(3) =   1
                l(4) =   1
                l(5) =   2
                l(6) =   2
     Q(r) pseudized with 0 coefficients 


     PseudoPot. # 2 for Mn read from file:
     ~/PSEUDO/Mn.pbe-spn-rrkjus_psl.0.3.1.UPF
     MD5 check sum: Not computed, couldn't open file
     Pseudo is Ultrasoft + core correction, Zval = 15.0
     Generated using &quot;atomic&quot; code by A. Dal Corso  v.6.2.2
     Using radial grid of 1187 points,  6 beta functions with: 
                l(1) =   0
                l(2) =   0
                l(3) =   1
                l(4) =   1
                l(5) =   2
                l(6) =   2
     Q(r) pseudized with 0 coefficients 


     PseudoPot. # 3 for P  read from file:
     ~/PSEUDO/P.pbe-n-rrkjus_psl.1.0.0.UPF
     MD5 check sum: Not computed, couldn't open file
     Pseudo is Ultrasoft + core correction, Zval =  5.0
     Generated using "atomic" code by A. Dal Corso  v.5.1
     Using radial grid of 1147 points,  6 beta functions with: 
                l(1) =   0
                l(2) =   0
                l(3) =   1
                l(4) =   1
                l(5) =   2
                l(6) =   2
     Q(r) pseudized with 0 coefficients 


     PseudoPot. # 4 for O  read from file:
     ~/PSEUDO/O.pbe-rrkjus.UPF
     MD5 check sum: Not computed, couldn't open file
     Pseudo is Ultrasoft, Zval =  6.0
     Generated by new atomic code, or converted to UPF format
     Using radial grid of 1269 points,  4 beta functions with: 
                l(1) =   0
                l(2) =   0
                l(3) =   1
                l(4) =   1
     Q(r) pseudized with 0 coefficients 


     PseudoPot. # 5 for H  read from file:
     ~/PSEUDO/H.pbe-rrkjus.UPF
     MD5 check sum: Not computed, couldn't open file
     Pseudo is Ultrasoft, Zval =  1.0
     Generated by new atomic code, or converted to UPF format
     Using radial grid of 1061 points,  2 beta functions with: 
                l(1) =   0
                l(2) =   0
     Q(r) pseudized with 0 coefficients 


     atomic species   valence    mass     pseudopotential
     Ni               10.00    58.69300     Ni( 1.00)
     Mn               15.00    54.93800     Mn( 1.00)
     P                 5.00    30.97300     P ( 1.00)
     O                 6.00    15.99900     O ( 1.00)
     H                 1.00     1.00790     H ( 1.00)

     Starting magnetic structure 
     atomic species   magnetization
     Ni              1.000
     Mn              1.000
     P               1.000
     O               1.000
     H               0.000

     No symmetry found



   Cartesian axes

     site n.     atom                  positions (alat units)
         1        Ni     tau(   1) = (   0.2421002   0.8609138   0.1302181  )
         2        Mn     tau(   2) = (   0.4924481   0.7886602   0.4655392  )
         3        Ni     tau(   3) = (   0.0052341   0.3031820   0.1284544  )
         4        Ni     tau(   4) = (   0.2570603   0.2374878   0.4617901  )
         5        Ni     tau(   5) = (   0.4976584   1.1048203   0.2964410  )
         6        Ni     tau(   6) = (   0.2495781   0.5440308   0.2953805  )
         7        P      tau(   7) = (   0.2083492   0.9982113   0.4588145  )
         8        P      tau(   8) = (   0.4584476   0.6559264   0.1347090  )
         9        P      tau(   9) = (   0.2889394   0.1031966   0.1319347  )
        10        P      tau(  10) = (   0.0400379   0.4338094   0.4586283  )
        11        O      tau(  11) = (   0.1314218   0.9248062   0.3189972  )
        12        O      tau(  12) = (   0.3797244   0.7272031   0.2742874  )
        13        O      tau(  13) = (   0.3662315   0.1762062   0.2720888  )
        14        O      tau(  14) = (   0.1171240   0.3646150   0.3169340  )
        15        O      tau(  15) = (   0.1510364   0.9068326   0.5881934  )
        16        O      tau(  16) = (   0.3981989   0.7453439   0.0053495  )
        17        O      tau(  17) = (   0.3490561   0.1888693   0.0010856  )
        18        O      tau(  18) = (   0.0982395   0.3475583   0.5894443  )
        19        O      tau(  19) = (   0.0992163   0.5918099   0.4542505  )
        20        O      tau(  20) = (   0.3467441   1.0504690   0.1405000  )
        21        O      tau(  21) = (   0.3739183   0.4303319   0.4477971  )
        22        O      tau(  22) = (   0.1230967   0.1088895   0.1422960  )
        23        O      tau(  23) = (   0.1242901   0.6635968   0.1442928  )
        24        O      tau(  24) = (   0.4011802   0.4971632   0.1376281  )
        25        O      tau(  25) = (   0.1484006   0.0497464   0.4550965  )
        26        O      tau(  26) = (   0.3736100   0.9942556   0.4492158  )
        27        Ni     tau(  27) = (   0.2413539   0.8509941   0.7820408  )
        28        Mn     tau(  28) = (   0.4917018   0.7787406   1.1173619  )
        29        Ni     tau(  29) = (   0.0044877   0.2932623   0.7802771  )
        30        Ni     tau(  30) = (   0.2563139   0.2275682   1.1136128  )
        31        Ni     tau(  31) = (   0.4969120   1.0949007   0.9482637  )
        32        Ni     tau(  32) = (   0.2488318   0.5341111   0.9472032  )
        33        P      tau(  33) = (   0.2076029   0.9882917   1.1106372  )
        34        P      tau(  34) = (   0.4577012   0.6460068   0.7865316  )
        35        P      tau(  35) = (   0.2881931   0.0932770   0.7837574  )
        36        P      tau(  36) = (   0.0392916   0.4238898   1.1104509  )
        37        O      tau(  37) = (   0.1306755   0.9148866   0.9708199  )
        38        O      tau(  38) = (   0.3789780   0.7172835   0.9261101  )
        39        O      tau(  39) = (   0.3654852   0.1662865   0.9239115  )
        40        O      tau(  40) = (   0.1163776   0.3546954   0.9687567  )
        41        O      tau(  41) = (   0.1502901   0.8969129   1.2400160  )
        42        O      tau(  42) = (   0.3974525   0.7354243   0.6571722  )
        43        O      tau(  43) = (   0.3483097   0.1789497   0.6529083  )
        44        O      tau(  44) = (   0.0974932   0.3376387   1.2412670  )
        45        O      tau(  45) = (   0.0984699   0.5818903   1.1060732  )
        46        O      tau(  46) = (   0.3459978   1.0405493   0.7923226  )
        47        O      tau(  47) = (   0.3731719   0.4204123   1.0996198  )
        48        O      tau(  48) = (   0.1223503   0.0989699   0.7941187  )
        49        O      tau(  49) = (   0.1235438   0.6536772   0.7961155  )
        50        O      tau(  50) = (   0.4004339   0.4872435   0.7894508  )
        51        O      tau(  51) = (   0.1476543   0.0398268   1.1069192  )
        52        O      tau(  52) = (   0.3728637   0.9843360   1.1010385  )
        53        Ni     tau(  53) = (   0.2411808   0.8324089   1.4309579  )
        54        Mn     tau(  54) = (   0.4946671   0.7639191   1.7613784  )
        55        Ni     tau(  55) = (   0.0045903   0.2758768   1.4289237  )
        56        Ni     tau(  56) = (   0.2582374   0.2038640   1.7770492  )
        57        Ni     tau(  57) = (   0.4995768   1.0765738   1.5968468  )
        58        Ni     tau(  58) = (   0.2446418   0.5161336   1.5986178  )
        59        P      tau(  59) = (   0.2110282   0.9624759   1.7570741  )
        60        P      tau(  60) = (   0.4555417   0.6266544   1.4355841  )
        61        P      tau(  61) = (   0.2894304   0.0771248   1.4326669  )
        62        P      tau(  62) = (   0.0328189   0.3995898   1.7561322  )
        63        O      tau(  63) = (   0.1349035   0.8971112   1.6106303  )
        64        O      tau(  64) = (   0.3788937   0.6993990   1.5743359  )
        65        O      tau(  65) = (   0.3659027   0.1511080   1.5708695  )
        66        O      tau(  66) = (   0.1105339   0.3441016   1.6092044  )
        67        O      tau(  67) = (   0.1557886   0.8603680   1.8762740  )
        68        O      tau(  68) = (   0.3942965   0.7173118   1.3080767  )
        69        O      tau(  69) = (   0.3497106   0.1654865   1.3026958  )
        70        O      tau(  70) = (   0.0882498   0.2997460   1.8754938  )
        71        O      tau(  71) = (   0.0879634   0.5612479   1.7635252  )
        72        O      tau(  72) = (   0.3490189   1.0246514   1.4369127  )
        73        O      tau(  73) = (   0.3670773   0.4040889   1.7520727  )
        74        O      tau(  74) = (   0.1226660   0.0818304   1.4423052  )
        75        O      tau(  75) = (   0.1225220   0.6345628   1.4463845  )
        76        O      tau(  76) = (   0.3964037   0.4688262   1.4379717  )
        77        O      tau(  77) = (   0.1495563   0.0133210   1.7552094  )
        78        O      tau(  78) = (   0.3782473   0.9569750   1.7438122  )
        79        Ni     tau(  79) = (   0.7421002   0.8609138   0.1302181  )
        80        Mn     tau(  80) = (   0.9924481   0.7886602   0.4655392  )
        81        Ni     tau(  81) = (   0.5052341   0.3031820   0.1284544  )
        82        Ni     tau(  82) = (   0.7570603   0.2374878   0.4617901  )
        83        Ni     tau(  83) = (   0.9976584   1.1048203   0.2964410  )
        84        Ni     tau(  84) = (   0.7495781   0.5440308   0.2953805  )
        85        P      tau(  85) = (   0.7083492   0.9982113   0.4588145  )
        86        P      tau(  86) = (   0.9584476   0.6559264   0.1347090  )
        87        P      tau(  87) = (   0.7889394   0.1031966   0.1319347  )
        88        P      tau(  88) = (   0.5400379   0.4338094   0.4586283  )
        89        O      tau(  89) = (   0.6314218   0.9248062   0.3189972  )
        90        O      tau(  90) = (   0.8797244   0.7272031   0.2742874  )
        91        O      tau(  91) = (   0.8662315   0.1762062   0.2720888  )
        92        O      tau(  92) = (   0.6171240   0.3646150   0.3169340  )
        93        O      tau(  93) = (   0.6510364   0.9068326   0.5881934  )
        94        O      tau(  94) = (   0.8981989   0.7453439   0.0053495  )
        95        O      tau(  95) = (   0.8490561   0.1888693   0.0010856  )
        96        O      tau(  96) = (   0.5982395   0.3475583   0.5894443  )
        97        O      tau(  97) = (   0.5992163   0.5918099   0.4542505  )
        98        O      tau(  98) = (   0.8467441   1.0504690   0.1405000  )
        99        O      tau(  99) = (   0.8739183   0.4303319   0.4477971  )
       100        O      tau( 100) = (   0.6230967   0.1088895   0.1422960  )
       101        O      tau( 101) = (   0.6242901   0.6635968   0.1442928  )
       102        O      tau( 102) = (   0.9011802   0.4971632   0.1376281  )
       103        O      tau( 103) = (   0.6484006   0.0497464   0.4550965  )
       104        O      tau( 104) = (   0.8736100   0.9942556   0.4492158  )
       105        Ni     tau( 105) = (   0.7413539   0.8509941   0.7820408  )
       106        Mn     tau( 106) = (   0.9917018   0.7787406   1.1173619  )
       107        Ni     tau( 107) = (   0.5044877   0.2932623   0.7802771  )
       108        Ni     tau( 108) = (   0.7563139   0.2275682   1.1136128  )
       109        Ni     tau( 109) = (   0.9969120   1.0949007   0.9482637  )
       110        Ni     tau( 110) = (   0.7488318   0.5341111   0.9472032  )
       111        P      tau( 111) = (   0.7076029   0.9882917   1.1106372  )
       112        P      tau( 112) = (   0.9577012   0.6460068   0.7865316  )
       113        P      tau( 113) = (   0.7881931   0.0932770   0.7837574  )
       114        P      tau( 114) = (   0.5392916   0.4238898   1.1104509  )
       115        O      tau( 115) = (   0.6306755   0.9148866   0.9708199  )
       116        O      tau( 116) = (   0.8789780   0.7172835   0.9261101  )
       117        O      tau( 117) = (   0.8654852   0.1662865   0.9239115  )
       118        O      tau( 118) = (   0.6163776   0.3546954   0.9687567  )
       119        O      tau( 119) = (   0.6502901   0.8969129   1.2400160  )
       120        O      tau( 120) = (   0.8974525   0.7354243   0.6571722  )
       121        O      tau( 121) = (   0.8483097   0.1789497   0.6529083  )
       122        O      tau( 122) = (   0.5974932   0.3376387   1.2412670  )
       123        O      tau( 123) = (   0.5984699   0.5818903   1.1060732  )
       124        O      tau( 124) = (   0.8459978   1.0405493   0.7923226  )
       125        O      tau( 125) = (   0.8731719   0.4204123   1.0996198  )
       126        O      tau( 126) = (   0.6223503   0.0989699   0.7941187  )
       127        O      tau( 127) = (   0.6235438   0.6536772   0.7961155  )
       128        O      tau( 128) = (   0.9004339   0.4872435   0.7894508  )
       129        O      tau( 129) = (   0.6476543   0.0398268   1.1069192  )
       130        O      tau( 130) = (   0.8728637   0.9843360   1.1010385  )
       131        Ni     tau( 131) = (   0.7410267   0.8325162   1.4305848  )
       132        Mn     tau( 132) = (   0.9957516   0.7600299   1.7607963  )
       133        Ni     tau( 133) = (   0.5040907   0.2758675   1.4300929  )
       134        Ni     tau( 134) = (   0.7492107   0.2133490   1.7410454  )
       135        Ni     tau( 135) = (   1.0009965   1.0739722   1.5938039  )
       136        Ni     tau( 136) = (   0.7435634   0.5197355   1.5956846  )
       137        P      tau( 137) = (   0.7125069   0.9656475   1.7574601  )
       138        P      tau( 138) = (   0.9562771   0.6261995   1.4348061  )
       139        P      tau( 139) = (   0.7897796   0.0749975   1.4289502  )
       140        P      tau( 140) = (   0.5344908   0.4056646   1.7624424  )
       141        O      tau( 141) = (   0.6363110   0.9022539   1.6111310  )
       142        O      tau( 142) = (   0.8791375   0.6993590   1.5736065  )
       143        O      tau( 143) = (   0.8677034   0.1479917   1.5677577  )
       144        O      tau( 144) = (   0.6096326   0.3453508   1.6130362  )
       145        O      tau( 145) = (   0.6538676   0.8663746   1.8771614  )
       146        O      tau( 146) = (   0.8948308   0.7180504   1.3081207  )
       147        O      tau( 147) = (   0.8505931   0.1642134   1.3003625  )
       148        O      tau( 148) = (   0.5994798   0.3097877   1.8805913  )
       149        O      tau( 149) = (   0.5905617   0.5666921   1.7630040  )
       150        O      tau( 150) = (   0.8496482   1.0230984   1.4339530  )
       151        O      tau( 151) = (   0.8648476   0.4011035   1.7429415  )
       152        O      tau( 152) = (   0.6235315   0.0826198   1.4430822  )
       153        O      tau( 153) = (   0.6220766   0.6363263   1.4460487  )
       154        O      tau( 154) = (   0.8951957   0.4690084   1.4354565  )
       155        O      tau( 155) = (   0.6579777   0.0195851   1.7588791  )
       156        O      tau( 156) = (   0.8798126   0.9576364   1.7467312  )
       157        O      tau( 157) = (   0.3700635   0.1197550   1.9168676  )
       158        H      tau( 158) = (   0.4563966   0.1803133   1.9415520  )

     -------------------------------------------------
     Parameters for Dispersion (Grimme-D2) Correction:
     -------------------------------------------------
       atom      VdW radius       C_6     

        Ni         2.952        374.666
        Mn         2.952        374.666
        P          3.222        271.980
        O          2.536         24.284
        H          1.892          4.857

     number of k points=     1  Gaussian smearing, width (Ry)=  0.0100
                       cart. coord. in units 2pi/alat
        k(    1) = (   0.0000000   0.0000000   0.0000000), wk =   1.0000000

     Dense  grid:  1938023 G-vectors     FFT dimensions: ( 125, 144, 450)

     Smooth grid:   490328 G-vectors     FFT dimensions: (  80,  90, 288)

     Estimated max dynamical RAM per process >     326.29 MB

     Estimated total dynamical RAM >      20.39 GB

     Check: negative core charge=   -0.000001
     Generating pointlists ...
     new r_m :   0.0816 (alat units)  1.4203 (a.u.) for type    1
     new r_m :   0.0904 (alat units)  1.5735 (a.u.) for type    2
     new r_m :   0.0681 (alat units)  1.1861 (a.u.) for type    3
     new r_m :   0.0447 (alat units)  0.7777 (a.u.) for type    4
     new r_m :   0.0447 (alat units)  0.7777 (a.u.) for type    5

     Initial potential from superposition of free atoms

     starting charge    1092.8893, renormalised to    1093.0000

     negative rho (up, down):  1.375E-03 4.518E-04
 
     Adding external electric field

     Computed dipole along edir(3) : 
        Dipole                1.6504 Ry au,          4.1949 Debye
        Dipole field          0.0010 Ry au, 
 
        Potential amp.       -0.1114 Ry
        Total length         55.1515 bohr
 
 
     Adding external electric field

     Computed dipole along edir(3) : 
        Dipole                1.6504 Ry au,          4.1949 Debye
        Dipole field          0.0010 Ry au, 
 
        Potential amp.       -0.1114 Ry
        Total length         55.1515 bohr
 
     Starting wfcs are  815 randomized atomic wfcs

     total cpu time spent up to now is       10.8 secs

     Self-consistent Calculation

     iteration #  1     ecut=    50.00 Ry     beta= 0.10
     Davidson diagonalization with overlap
     ethr =  1.00E-02,  avg # of iterations =  6.0

     negative rho (up, down):  4.169E-01 3.170E-06
 
     Adding external electric field

     Computed dipole along edir(3) : 
        Dipole               -2.8130 Ry au,         -7.1499 Debye
        Dipole field         -0.0017 Ry au, 
 
        Potential amp.        0.1899 Ry
        Total length         55.1515 bohr
 
 
     Adding external electric field

     Computed dipole along edir(3) : 
        Dipole               -2.8130 Ry au,         -7.1499 Debye
        Dipole field         -0.0017 Ry au, 
 
        Potential amp.        0.1899 Ry
        Total length         55.1515 bohr
 

     total cpu time spent up to now is       42.4 secs

     total energy              =   -7521.66898152 Ry
     estimated scf accuracy    <     750.65879859 Ry

     total magnetization       =   219.00 Bohr mag/cell
     absolute magnetization    =   307.91 Bohr mag/cell

     iteration #  2     ecut=    50.00 Ry     beta= 0.10
     Davidson diagonalization with overlap
     ethr =  1.00E-02,  avg # of iterations =  2.0

     negative rho (up, down):  3.733E-01 4.163E-06
 
     Adding external electric field

     Computed dipole along edir(3) : 
        Dipole               -2.3091 Ry au,         -5.8692 Debye
        Dipole field         -0.0014 Ry au, 
 
        Potential amp.        0.1559 Ry
        Total length         55.1515 bohr
 
 
     Adding external electric field

     Computed dipole along edir(3) : 
        Dipole               -2.3091 Ry au,         -5.8692 Debye
        Dipole field         -0.0014 Ry au, 
 
        Potential amp.        0.1559 Ry
        Total length         55.1515 bohr
 

     total cpu time spent up to now is       66.9 secs

     total energy              =   -7606.28690108 Ry
     estimated scf accuracy    <     129.99398810 Ry

     total magnetization       =   148.22 Bohr mag/cell
     absolute magnetization    =   200.35 Bohr mag/cell

     iteration #  3     ecut=    50.00 Ry     beta= 0.10
     Davidson diagonalization with overlap
     ethr =  1.00E-02,  avg # of iterations =  1.5

     negative rho (up, down):  3.169E-01 4.787E-06
 
     Adding external electric field

     Computed dipole along edir(3) : 
        Dipole               -1.8927 Ry au,         -4.8107 Debye
        Dipole field         -0.0012 Ry au, 
 
        Potential amp.        0.1278 Ry
        Total length         55.1515 bohr
 
 
     Adding external electric field

     Computed dipole along edir(3) : 
        Dipole               -1.8927 Ry au,         -4.8107 Debye
        Dipole field         -0.0012 Ry au, 
 
        Potential amp.        0.1278 Ry
        Total length         55.1515 bohr
 

     total cpu time spent up to now is       85.8 secs

     total energy              =   -7641.62442075 Ry
     estimated scf accuracy    <      97.28271746 Ry

     total magnetization       =   127.97 Bohr mag/cell
     absolute magnetization    =   180.18 Bohr mag/cell

     iteration #  4     ecut=    50.00 Ry     beta= 0.10
     Davidson diagonalization with overlap
     ethr =  8.90E-03,  avg # of iterations =  1.0

     negative rho (up, down):  2.402E-01 7.842E-07
 
     Adding external electric field

     Computed dipole along edir(3) : 
        Dipole               -1.7841 Ry au,         -4.5348 Debye
        Dipole field         -0.0011 Ry au, 
 
        Potential amp.        0.1205 Ry
        Total length         55.1515 bohr
 
 
     Adding external electric field

     Computed dipole along edir(3) : 
        Dipole               -1.7841 Ry au,         -4.5348 Debye
        Dipole field         -0.0011 Ry au, 
 
        Potential amp.        0.1205 Ry
        Total length         55.1515 bohr
 

     total cpu time spent up to now is      108.3 secs

     total energy              =   -7673.30012049 Ry
     estimated scf accuracy    <      76.65468219 Ry

     total magnetization       =   108.72 Bohr mag/cell
     absolute magnetization    =   164.59 Bohr mag/cell

     iteration #  5     ecut=    50.00 Ry     beta= 0.10
     Davidson diagonalization with overlap
     ethr =  7.01E-03,  avg # of iterations =  1.0

     negative rho (up, down):  2.054E-04 1.047E-08
 
     Adding external electric field

     Computed dipole along edir(3) : 
        Dipole               -0.9883 Ry au,         -2.5121 Debye
        Dipole field         -0.0006 Ry au, 
 
        Potential amp.        0.0667 Ry
        Total length         55.1515 bohr
 
 
     Adding external electric field

     Computed dipole along edir(3) : 
        Dipole               -0.9883 Ry au,         -2.5121 Debye
        Dipole field         -0.0006 Ry au, 
 
        Potential amp.        0.0667 Ry
        Total length         55.1515 bohr
 

     total cpu time spent up to now is      131.6 secs

     total energy              =   -7731.76659550 Ry
     estimated scf accuracy    <      57.75063055 Ry

     total magnetization       =    97.00 Bohr mag/cell
     absolute magnetization    =   149.21 Bohr mag/cell

     iteration #  6     ecut=    50.00 Ry     beta= 0.10
     Davidson diagonalization with overlap
     ethr =  5.28E-03,  avg # of iterations =  2.0

     negative rho (up, down):  9.403E-06 5.778E-06
 
     Adding external electric field

     Computed dipole along edir(3) : 
        Dipole               -0.7202 Ry au,         -1.8305 Debye
        Dipole field         -0.0004 Ry au, 
 
        Potential amp.        0.0486 Ry
        Total length         55.1515 bohr
 
 
     Adding external electric field

     Computed dipole along edir(3) : 
        Dipole               -0.7202 Ry au,         -1.8305 Debye
        Dipole field         -0.0004 Ry au, 
 
        Potential amp.        0.0486 Ry
        Total length         55.1515 bohr
 

     total cpu time spent up to now is      154.1 secs

     total energy              =   -7736.74712850 Ry
     estimated scf accuracy    <      16.66479744 Ry

     total magnetization       =    77.14 Bohr mag/cell
     absolute magnetization    =   104.09 Bohr mag/cell

     iteration #  7     ecut=    50.00 Ry     beta= 0.10
     Davidson diagonalization with overlap
     ethr =  1.52E-03,  avg # of iterations =  5.5

     negative rho (up, down):  4.889E-06 3.433E-06
 
     Adding external electric field

     Computed dipole along edir(3) : 
        Dipole               -0.7788 Ry au,         -1.9794 Debye
        Dipole field         -0.0005 Ry au, 
 
        Potential amp.        0.0526 Ry
        Total length         55.1515 bohr
 
 
     Adding external electric field

     Computed dipole along edir(3) : 
        Dipole               -0.7788 Ry au,         -1.9794 Debye
        Dipole field         -0.0005 Ry au, 
 
        Potential amp.        0.0526 Ry
        Total length         55.1515 bohr
 

     total cpu time spent up to now is      182.8 secs

     total energy              =   -7737.79899382 Ry
     estimated scf accuracy    <      16.38713535 Ry

     total magnetization       =    71.77 Bohr mag/cell
     absolute magnetization    =    92.32 Bohr mag/cell

     iteration #  8     ecut=    50.00 Ry     beta= 0.10
     Davidson diagonalization with overlap
     ethr =  1.50E-03,  avg # of iterations =  1.0

     negative rho (up, down):  2.985E-04 3.985E-04
 
     Adding external electric field

     Computed dipole along edir(3) : 
        Dipole               -0.1920 Ry au,         -0.4881 Debye
        Dipole field         -0.0001 Ry au, 
 
        Potential amp.        0.0130 Ry
        Total length         55.1515 bohr
 
 
     Adding external electric field

     Computed dipole along edir(3) : 
        Dipole               -0.1920 Ry au,         -0.4881 Debye
        Dipole field         -0.0001 Ry au, 
 
        Potential amp.        0.0130 Ry
        Total length         55.1515 bohr
 

     total cpu time spent up to now is      202.6 secs

     total energy              =   -7736.55029410 Ry
     estimated scf accuracy    <      19.84715664 Ry

     total magnetization       =    71.00 Bohr mag/cell
     absolute magnetization    =    90.43 Bohr mag/cell

     iteration #  9     ecut=    50.00 Ry     beta= 0.10
     Davidson diagonalization with overlap
     ethr =  1.50E-03,  avg # of iterations =  2.0

     negative rho (up, down):  7.071E-05 1.522E-04
 
     Adding external electric field

     Computed dipole along edir(3) : 
        Dipole               -0.3337 Ry au,         -0.8481 Debye
        Dipole field         -0.0002 Ry au, 
 
        Potential amp.        0.0225 Ry
        Total length         55.1515 bohr
 
 
     Adding external electric field

     Computed dipole along edir(3) : 
        Dipole               -0.3337 Ry au,         -0.8481 Debye
        Dipole field         -0.0002 Ry au, 
 
        Potential amp.        0.0225 Ry
        Total length         55.1515 bohr
 

     total cpu time spent up to now is      224.8 secs

     total energy              =   -7737.79409645 Ry
     estimated scf accuracy    <      14.96283480 Ry

     total magnetization       =    91.00 Bohr mag/cell
     absolute magnetization    =   103.73 Bohr mag/cell

     iteration # 10     ecut=    50.00 Ry     beta= 0.10
     Davidson diagonalization with overlap
     ethr =  1.37E-03,  avg # of iterations =  1.0

     negative rho (up, down):  3.548E-05 8.812E-05
 
     Adding external electric field

     Computed dipole along edir(3) : 
        Dipole               -0.3464 Ry au,         -0.8804 Debye
        Dipole field         -0.0002 Ry au, 
 
        Potential amp.        0.0234 Ry
        Total length         55.1515 bohr
 
 
     Adding external electric field

     Computed dipole along edir(3) : 
        Dipole               -0.3464 Ry au,         -0.8804 Debye
        Dipole field         -0.0002 Ry au, 
 
        Potential amp.        0.0234 Ry
        Total length         55.1515 bohr
 

     total cpu time spent up to now is      238.2 secs

     total energy              =   -7737.89753785 Ry
     estimated scf accuracy    <       1.95300341 Ry

     total magnetization       =    90.67 Bohr mag/cell
     absolute magnetization    =   102.34 Bohr mag/cell

     iteration # 11     ecut=    50.00 Ry     beta= 0.10
     Davidson diagonalization with overlap
     ethr =  1.79E-04,  avg # of iterations =  9.5

     negative rho (up, down):  2.510E-05 9.685E-05
 
     Adding external electric field

     Computed dipole along edir(3) : 
        Dipole               -0.3131 Ry au,         -0.7958 Debye
        Dipole field         -0.0002 Ry au, 
 
        Potential amp.        0.0211 Ry
        Total length         55.1515 bohr
 
 
     Adding external electric field

     Computed dipole along edir(3) : 
        Dipole               -0.3131 Ry au,         -0.7958 Debye
        Dipole field         -0.0002 Ry au, 
 
        Potential amp.        0.0211 Ry
        Total length         55.1515 bohr
 

     total cpu time spent up to now is      256.9 secs

     total energy              =   -7737.89859626 Ry
     estimated scf accuracy    <       1.36564764 Ry

     total magnetization       =    89.71 Bohr mag/cell
     absolute magnetization    =   100.66 Bohr mag/cell

     iteration # 12     ecut=    50.00 Ry     beta= 0.10
     Davidson diagonalization with overlap
     ethr =  1.25E-04,  avg # of iterations =  2.0

     negative rho (up, down):  1.787E-05 8.722E-05
 
     Adding external electric field

     Computed dipole along edir(3) : 
        Dipole               -0.2827 Ry au,         -0.7185 Debye
        Dipole field         -0.0002 Ry au, 
 
        Potential amp.        0.0191 Ry
        Total length         55.1515 bohr
 
 
     Adding external electric field

     Computed dipole along edir(3) : 
        Dipole               -0.2827 Ry au,         -0.7185 Debye
        Dipole field         -0.0002 Ry au, 
 
        Potential amp.        0.0191 Ry
        Total length         55.1515 bohr
 

     total cpu time spent up to now is      271.4 secs

     total energy              =   -7737.91861210 Ry
     estimated scf accuracy    <       1.13031482 Ry

     total magnetization       =    89.06 Bohr mag/cell
     absolute magnetization    =    99.10 Bohr mag/cell

     iteration # 13     ecut=    50.00 Ry     beta= 0.10
     Davidson diagonalization with overlap
     ethr =  1.03E-04,  avg # of iterations =  2.0

     negative rho (up, down):  7.235E-06 3.102E-05
 
     Adding external electric field

     Computed dipole along edir(3) : 
        Dipole               -0.3124 Ry au,         -0.7940 Debye
        Dipole field         -0.0002 Ry au, 
 
        Potential amp.        0.0211 Ry
        Total length         55.1515 bohr
 
 
     Adding external electric field

     Computed dipole along edir(3) : 
        Dipole               -0.3124 Ry au,         -0.7940 Debye
        Dipole field         -0.0002 Ry au, 
 
        Potential amp.        0.0211 Ry
        Total length         55.1515 bohr
 

     total cpu time spent up to now is      288.9 secs

     total energy              =   -7737.98957523 Ry
     estimated scf accuracy    <       1.05151972 Ry

     total magnetization       =    88.20 Bohr mag/cell
     absolute magnetization    =    97.70 Bohr mag/cell

     iteration # 14     ecut=    50.00 Ry     beta= 0.10
     Davidson diagonalization with overlap
     ethr =  9.62E-05,  avg # of iterations =  2.0

     negative rho (up, down):  7.771E-05 2.900E-04
 
     Adding external electric field

     Computed dipole along edir(3) : 
        Dipole               -0.3679 Ry au,         -0.9351 Debye
        Dipole field         -0.0002 Ry au, 
 
        Potential amp.        0.0248 Ry
        Total length         55.1515 bohr
 
 
     Adding external electric field

     Computed dipole along edir(3) : 
        Dipole               -0.3679 Ry au,         -0.9351 Debye
        Dipole field         -0.0002 Ry au, 
 
        Potential amp.        0.0248 Ry
        Total length         55.1515 bohr
 

     total cpu time spent up to now is      308.3 secs

     total energy              =   -7738.18009534 Ry
     estimated scf accuracy    <       0.82250756 Ry

     total magnetization       =    88.66 Bohr mag/cell
     absolute magnetization    =    97.18 Bohr mag/cell

     iteration # 15     ecut=    50.00 Ry     beta= 0.10
     Davidson diagonalization with overlap
     ethr =  7.53E-05,  avg # of iterations =  2.5

     negative rho (up, down):  1.014E-05 2.556E-04
 
     Adding external electric field

     Computed dipole along edir(3) : 
        Dipole               -0.2373 Ry au,         -0.6030 Debye
        Dipole field         -0.0001 Ry au, 
 
        Potential amp.        0.0160 Ry
        Total length         55.1515 bohr
 
 
     Adding external electric field

     Computed dipole along edir(3) : 
        Dipole               -0.2373 Ry au,         -0.6030 Debye
        Dipole field         -0.0001 Ry au, 
 
        Potential amp.        0.0160 Ry
        Total length         55.1515 bohr
 

     total cpu time spent up to now is      326.0 secs

     total energy              =   -7738.20563654 Ry
     estimated scf accuracy    <       0.43782078 Ry

     total magnetization       =    88.45 Bohr mag/cell
     absolute magnetization    =    93.17 Bohr mag/cell

     iteration # 16     ecut=    50.00 Ry     beta= 0.10
     Davidson diagonalization with overlap
     c_bands:  4 eigenvalues not converged
     ethr =  4.01E-05,  avg # of iterations = 11.0

     negative rho (up, down):  9.740E-05 5.694E-04
 
     Adding external electric field

     Computed dipole along edir(3) : 
        Dipole               -0.2193 Ry au,         -0.5574 Debye
        Dipole field         -0.0001 Ry au, 
 
        Potential amp.        0.0148 Ry
        Total length         55.1515 bohr
 
 
     Adding external electric field

     Computed dipole along edir(3) : 
        Dipole               -0.2193 Ry au,         -0.5574 Debye
        Dipole field         -0.0001 Ry au, 
 
        Potential amp.        0.0148 Ry
        Total length         55.1515 bohr
 

     total cpu time spent up to now is      357.4 secs

     total energy              =   -7738.27397312 Ry
     estimated scf accuracy    <       0.52460318 Ry

     total magnetization       =    89.30 Bohr mag/cell
     absolute magnetization    =    93.34 Bohr mag/cell

     iteration # 17     ecut=    50.00 Ry     beta= 0.10
     Davidson diagonalization with overlap
     ethr =  4.01E-05,  avg # of iterations =  2.0

     negative rho (up, down):  6.519E-04 1.110E-03
 
     Adding external electric field

     Computed dipole along edir(3) : 
        Dipole               -0.2403 Ry au,         -0.6108 Debye
        Dipole field         -0.0001 Ry au, 
 
        Potential amp.        0.0162 Ry
        Total length         55.1515 bohr
 
 
     Adding external electric field

     Computed dipole along edir(3) : 
        Dipole               -0.2403 Ry au,         -0.6108 Debye
        Dipole field         -0.0001 Ry au, 
 
        Potential amp.        0.0162 Ry
        Total length         55.1515 bohr
 

     total cpu time spent up to now is      376.6 secs

     total energy              =   -7738.30102158 Ry
     estimated scf accuracy    <       0.51635816 Ry

     total magnetization       =    88.80 Bohr mag/cell
     absolute magnetization    =    91.39 Bohr mag/cell

     iteration # 18     ecut=    50.00 Ry     beta= 0.10
     Davidson diagonalization with overlap
     ethr =  4.01E-05,  avg # of iterations =  1.5

     negative rho (up, down):  5.988E-04 5.329E-04
 
     Adding external electric field

     Computed dipole along edir(3) : 
        Dipole               -0.2735 Ry au,         -0.6952 Debye
        Dipole field         -0.0002 Ry au, 
 
        Potential amp.        0.0185 Ry
        Total length         55.1515 bohr
 
 
     Adding external electric field

     Computed dipole along edir(3) : 
        Dipole               -0.2735 Ry au,         -0.6952 Debye
        Dipole field         -0.0002 Ry au, 
 
        Potential amp.        0.0185 Ry
        Total length         55.1515 bohr
 

     total cpu time spent up to now is      403.2 secs

     total energy              =   -7738.29302895 Ry
     estimated scf accuracy    <       0.29083586 Ry

     total magnetization       =    89.14 Bohr mag/cell
     absolute magnetization    =    90.87 Bohr mag/cell

     iteration # 19     ecut=    50.00 Ry     beta= 0.10
     Davidson diagonalization with overlap
     ethr =  2.66E-05,  avg # of iterations =  2.0

     negative rho (up, down):  5.799E-04 4.749E-04
 
     Adding external electric field

     Computed dipole along edir(3) : 
        Dipole               -0.2447 Ry au,         -0.6219 Debye
        Dipole field         -0.0001 Ry au, 
 
        Potential amp.        0.0165 Ry
        Total length         55.1515 bohr
 
 
     Adding external electric field

     Computed dipole along edir(3) : 
        Dipole               -0.2447 Ry au,         -0.6219 Debye
        Dipole field         -0.0001 Ry au, 
 
        Potential amp.        0.0165 Ry
        Total length         55.1515 bohr
 

     total cpu time spent up to now is      425.5 secs

     total energy              =   -7738.29893843 Ry
     estimated scf accuracy    <       0.31939358 Ry

     total magnetization       =    86.50 Bohr mag/cell
     absolute magnetization    =    88.16 Bohr mag/cell

     iteration # 20     ecut=    50.00 Ry     beta= 0.10
     Davidson diagonalization with overlap
     ethr =  2.66E-05,  avg # of iterations =  1.5

     negative rho (up, down):  6.809E-04 3.720E-04
 
     Adding external electric field

     Computed dipole along edir(3) : 
        Dipole               -0.2425 Ry au,         -0.6165 Debye
        Dipole field         -0.0001 Ry au, 
 
        Potential amp.        0.0164 Ry
        Total length         55.1515 bohr
 
 
     Adding external electric field

     Computed dipole along edir(3) : 
        Dipole               -0.2425 Ry au,         -0.6165 Debye
        Dipole field         -0.0001 Ry au, 
 
        Potential amp.        0.0164 Ry
        Total length         55.1515 bohr
 

     total cpu time spent up to now is      443.2 secs

     total energy              =   -7738.30371854 Ry
     estimated scf accuracy    <       0.07895737 Ry

     total magnetization       =    88.49 Bohr mag/cell
     absolute magnetization    =    90.04 Bohr mag/cell

     iteration # 21     ecut=    50.00 Ry     beta= 0.10
     Davidson diagonalization with overlap
     c_bands:  2 eigenvalues not converged
     ethr =  7.22E-06,  avg # of iterations = 11.0

     negative rho (up, down):  5.000E-04 1.806E-04
 
     Adding external electric field

     Computed dipole along edir(3) : 
        Dipole               -0.1994 Ry au,         -0.5068 Debye
        Dipole field         -0.0001 Ry au, 
 
        Potential amp.        0.0135 Ry
        Total length         55.1515 bohr
 
 
     Adding external electric field

     Computed dipole along edir(3) : 
        Dipole               -0.1994 Ry au,         -0.5068 Debye
        Dipole field         -0.0001 Ry au, 
 
        Potential amp.        0.0135 Ry
        Total length         55.1515 bohr
 

     total cpu time spent up to now is      472.2 secs

     total energy              =   -7738.30286749 Ry
     estimated scf accuracy    <       0.05521843 Ry

     total magnetization       =    88.13 Bohr mag/cell
     absolute magnetization    =    89.57 Bohr mag/cell

     iteration # 22     ecut=    50.00 Ry     beta= 0.10
     Davidson diagonalization with overlap
     ethr =  5.05E-06,  avg # of iterations =  2.0

     negative rho (up, down):  6.437E-04 2.187E-04
 
     Adding external electric field

     Computed dipole along edir(3) : 
        Dipole               -0.2016 Ry au,         -0.5125 Debye
        Dipole field         -0.0001 Ry au, 
 
        Potential amp.        0.0136 Ry
        Total length         55.1515 bohr
 
 
     Adding external electric field

     Computed dipole along edir(3) : 
        Dipole               -0.2016 Ry au,         -0.5125 Debye
        Dipole field         -0.0001 Ry au, 
 
        Potential amp.        0.0136 Ry
        Total length         55.1515 bohr
 

     total cpu time spent up to now is      489.5 secs

     total energy              =   -7738.30187029 Ry
     estimated scf accuracy    <       0.06169204 Ry

     total magnetization       =    88.67 Bohr mag/cell
     absolute magnetization    =    90.08 Bohr mag/cell

     iteration # 23     ecut=    50.00 Ry     beta= 0.10
     Davidson diagonalization with overlap
     ethr =  5.05E-06,  avg # of iterations =  1.5

     negative rho (up, down):  6.373E-04 1.698E-04
 
     Adding external electric field

     Computed dipole along edir(3) : 
        Dipole               -0.1470 Ry au,         -0.3736 Debye
        Dipole field         -0.0001 Ry au, 
 
        Potential amp.        0.0099 Ry
        Total length         55.1515 bohr
 
 
     Adding external electric field

     Computed dipole along edir(3) : 
        Dipole               -0.1470 Ry au,         -0.3736 Debye
        Dipole field         -0.0001 Ry au, 
 
        Potential amp.        0.0099 Ry
        Total length         55.1515 bohr
 

     total cpu time spent up to now is      503.8 secs

     total energy              =   -7738.30091158 Ry
     estimated scf accuracy    <       0.04597493 Ry

     total magnetization       =    88.34 Bohr mag/cell
     absolute magnetization    =    89.72 Bohr mag/cell

     iteration # 24     ecut=    50.00 Ry     beta= 0.10
     Davidson diagonalization with overlap
     c_bands:  1 eigenvalues not converged
     ethr =  4.21E-06,  avg # of iterations = 11.0

     negative rho (up, down):  5.481E-04 1.315E-04
 
     Adding external electric field

     Computed dipole along edir(3) : 
        Dipole               -0.0978 Ry au,         -0.2485 Debye
        Dipole field         -0.0001 Ry au, 
 
        Potential amp.        0.0066 Ry
        Total length         55.1515 bohr
 
 
     Adding external electric field

     Computed dipole along edir(3) : 
        Dipole               -0.0978 Ry au,         -0.2485 Debye
        Dipole field         -0.0001 Ry au, 
 
        Potential amp.        0.0066 Ry
        Total length         55.1515 bohr
 

     total cpu time spent up to now is      526.2 secs

     total energy              =   -7738.30206173 Ry
     estimated scf accuracy    <       0.02890300 Ry

     total magnetization       =    88.72 Bohr mag/cell
     absolute magnetization    =    90.09 Bohr mag/cell

     iteration # 25     ecut=    50.00 Ry     beta= 0.10
     Davidson diagonalization with overlap
     ethr =  2.64E-06,  avg # of iterations =  3.0

     negative rho (up, down):  6.074E-04 2.118E-04
 
     Adding external electric field

     Computed dipole along edir(3) : 
        Dipole               -0.0399 Ry au,         -0.1014 Debye
        Dipole field         -0.0000 Ry au, 
 
        Potential amp.        0.0027 Ry
        Total length         55.1515 bohr
 
 
     Adding external electric field

     Computed dipole along edir(3) : 
        Dipole               -0.0399 Ry au,         -0.1014 Debye
        Dipole field         -0.0000 Ry au, 
 
        Potential amp.        0.0027 Ry
        Total length         55.1515 bohr
 

     total cpu time spent up to now is      543.8 secs

     total energy              =   -7738.30330667 Ry
     estimated scf accuracy    <       0.03592248 Ry

     total magnetization       =    88.68 Bohr mag/cell
     absolute magnetization    =    90.07 Bohr mag/cell

     iteration # 26     ecut=    50.00 Ry     beta= 0.10
     Davidson diagonalization with overlap
     ethr =  2.64E-06,  avg # of iterations =  2.0

     negative rho (up, down):  9.904E-04 4.514E-04
 
     Adding external electric field

     Computed dipole along edir(3) : 
        Dipole               -0.0031 Ry au,         -0.0078 Debye
        Dipole field         -0.0000 Ry au, 
 
        Potential amp.        0.0002 Ry
        Total length         55.1515 bohr
 
 
     Adding external electric field

     Computed dipole along edir(3) : 
        Dipole               -0.0031 Ry au,         -0.0078 Debye
        Dipole field         -0.0000 Ry au, 
 
        Potential amp.        0.0002 Ry
        Total length         55.1515 bohr
 

     total cpu time spent up to now is      557.5 secs

     total energy              =   -7738.30276242 Ry
     estimated scf accuracy    <       0.04355871 Ry

     total magnetization       =    88.45 Bohr mag/cell
     absolute magnetization    =    89.82 Bohr mag/cell

     iteration # 27     ecut=    50.00 Ry     beta= 0.10
     Davidson diagonalization with overlap
     ethr =  2.64E-06,  avg # of iterations =  2.0

     negative rho (up, down):  1.264E-03 6.523E-04
 
     Adding external electric field

     Computed dipole along edir(3) : 
        Dipole                0.0449 Ry au,          0.1141 Debye
        Dipole field          0.0000 Ry au, 
 
        Potential amp.       -0.0030 Ry
        Total length         55.1515 bohr
 
 
     Adding external electric field

     Computed dipole along edir(3) : 
        Dipole                0.0449 Ry au,          0.1141 Debye
        Dipole field          0.0000 Ry au, 
 
        Potential amp.       -0.0030 Ry
        Total length         55.1515 bohr
 

     total cpu time spent up to now is      571.7 secs

     total energy              =   -7738.30230240 Ry
     estimated scf accuracy    <       0.03617204 Ry

     total magnetization       =    88.47 Bohr mag/cell
     absolute magnetization    =    89.77 Bohr mag/cell

     iteration # 28     ecut=    50.00 Ry     beta= 0.10
     Davidson diagonalization with overlap
     ethr =  2.64E-06,  avg # of iterations =  2.0

     negative rho (up, down):  1.881E-03 8.709E-04
 
     Adding external electric field

     Computed dipole along edir(3) : 
        Dipole                0.0987 Ry au,          0.2510 Debye
        Dipole field          0.0001 Ry au, 
 
        Potential amp.       -0.0067 Ry
        Total length         55.1515 bohr
 
 
     Adding external electric field

     Computed dipole along edir(3) : 
        Dipole                0.0987 Ry au,          0.2510 Debye
        Dipole field          0.0001 Ry au, 
 
        Potential amp.       -0.0067 Ry
        Total length         55.1515 bohr
 

     total cpu time spent up to now is      586.2 secs

     total energy              =   -7738.29984470 Ry
     estimated scf accuracy    <       0.04649195 Ry

     total magnetization       =    88.57 Bohr mag/cell
     absolute magnetization    =    89.82 Bohr mag/cell

     iteration # 29     ecut=    50.00 Ry     beta= 0.10
     Davidson diagonalization with overlap
     ethr =  2.64E-06,  avg # of iterations =  2.0

     negative rho (up, down):  2.474E-03 1.162E-03
 
     Adding external electric field

     Computed dipole along edir(3) : 
        Dipole                0.1884 Ry au,          0.4788 Debye
        Dipole field          0.0001 Ry au, 
 
        Potential amp.       -0.0127 Ry
        Total length         55.1515 bohr
 
 
     Adding external electric field

     Computed dipole along edir(3) : 
        Dipole                0.1884 Ry au,          0.4788 Debye
        Dipole field          0.0001 Ry au, 
 
        Potential amp.       -0.0127 Ry
        Total length         55.1515 bohr
 

     total cpu time spent up to now is      602.7 secs

     total energy              =   -7738.29783077 Ry
     estimated scf accuracy    <       0.03181819 Ry

     total magnetization       =    88.61 Bohr mag/cell
     absolute magnetization    =    89.81 Bohr mag/cell

     iteration # 30     ecut=    50.00 Ry     beta= 0.10
     Davidson diagonalization with overlap
     c_bands:  4 eigenvalues not converged
     c_bands:  2 eigenvalues not converged
     ethr =  2.64E-06,  avg # of iterations = 20.0

     negative rho (up, down):  2.444E-03 1.094E-03
 
     Adding external electric field

     Computed dipole along edir(3) : 
        Dipole                0.2634 Ry au,          0.6694 Debye
        Dipole field          0.0002 Ry au, 
 
        Potential amp.       -0.0178 Ry
        Total length         55.1515 bohr
 
 
     Adding external electric field

     Computed dipole along edir(3) : 
        Dipole                0.2634 Ry au,          0.6694 Debye
        Dipole field          0.0002 Ry au, 
 
        Potential amp.       -0.0178 Ry
        Total length         55.1515 bohr
 

     total cpu time spent up to now is      634.8 secs

     total energy              =   -7738.29729307 Ry
     estimated scf accuracy    <       0.02887725 Ry

     total magnetization       =    88.54 Bohr mag/cell
     absolute magnetization    =    89.72 Bohr mag/cell

     iteration # 31     ecut=    50.00 Ry     beta= 0.10
     Davidson diagonalization with overlap
     c_bands:  1 eigenvalues not converged
     ethr =  2.64E-06,  avg # of iterations = 11.0

     negative rho (up, down):  6.236E-03 4.569E-03
 
     Adding external electric field

     Computed dipole along edir(3) : 
        Dipole                0.5330 Ry au,          1.3548 Debye
        Dipole field          0.0003 Ry au, 
 
        Potential amp.       -0.0360 Ry
        Total length         55.1515 bohr
 
 
     Adding external electric field

     Computed dipole along edir(3) : 
        Dipole                0.5330 Ry au,          1.3548 Debye
        Dipole field          0.0003 Ry au, 
 
        Potential amp.       -0.0360 Ry
        Total length         55.1515 bohr
 

     total cpu time spent up to now is      660.2 secs

     total energy              =   -7738.29856472 Ry
     estimated scf accuracy    <       0.02073489 Ry

     total magnetization       =    88.54 Bohr mag/cell
     absolute magnetization    =    89.75 Bohr mag/cell

     iteration # 32     ecut=    50.00 Ry     beta= 0.10
     Davidson diagonalization with overlap
     c_bands:  2 eigenvalues not converged
     c_bands:  1 eigenvalues not converged
     ethr =  1.90E-06,  avg # of iterations = 20.0

     negative rho (up, down):  1.789E-03 1.060E-03
 
     Adding external electric field

     Computed dipole along edir(3) : 
        Dipole                0.4535 Ry au,          1.1526 Debye
        Dipole field          0.0003 Ry au, 
 
        Potential amp.       -0.0306 Ry
        Total length         55.1515 bohr
 
 
     Adding external electric field

     Computed dipole along edir(3) : 
        Dipole                0.4535 Ry au,          1.1526 Debye
        Dipole field          0.0003 Ry au, 
 
        Potential amp.       -0.0306 Ry
        Total length         55.1515 bohr
 

     total cpu time spent up to now is      702.6 secs

     total energy              =   -7738.30016386 Ry
     estimated scf accuracy    <       0.01045876 Ry

     total magnetization       =    88.52 Bohr mag/cell
     absolute magnetization    =    89.78 Bohr mag/cell

     iteration # 33     ecut=    50.00 Ry     beta= 0.10
     Davidson diagonalization with overlap
     ethr =  9.57E-07,  avg # of iterations =  3.5

     negative rho (up, down):  4.505E-03 3.848E-03
 
     Adding external electric field

     Computed dipole along edir(3) : 
        Dipole                0.6126 Ry au,          1.5570 Debye
        Dipole field          0.0004 Ry au, 
 
        Potential amp.       -0.0414 Ry
        Total length         55.1515 bohr
 
 
     Adding external electric field

     Computed dipole along edir(3) : 
        Dipole                0.6126 Ry au,          1.5570 Debye
        Dipole field          0.0004 Ry au, 
 
        Potential amp.       -0.0414 Ry
        Total length         55.1515 bohr
 

     total cpu time spent up to now is      741.1 secs

     total energy              =   -7738.30085159 Ry
     estimated scf accuracy    <       0.01284172 Ry

     total magnetization       =    88.48 Bohr mag/cell
     absolute magnetization    =    89.80 Bohr mag/cell

     iteration # 34     ecut=    50.00 Ry     beta= 0.10
     Davidson diagonalization with overlap
     ethr =  9.57E-07,  avg # of iterations =  8.5

     negative rho (up, down):  9.213E-04 7.415E-04
 
     Adding external electric field

     Computed dipole along edir(3) : 
        Dipole                0.5360 Ry au,          1.3623 Debye
        Dipole field          0.0003 Ry au, 
 
        Potential amp.       -0.0362 Ry
        Total length         55.1515 bohr
 
 
     Adding external electric field

     Computed dipole along edir(3) : 
        Dipole                0.5360 Ry au,          1.3623 Debye
        Dipole field          0.0003 Ry au, 
 
        Potential amp.       -0.0362 Ry
        Total length         55.1515 bohr
 

     total cpu time spent up to now is      770.4 secs

     total energy              =   -7738.30147558 Ry
     estimated scf accuracy    <       0.00362416 Ry

     total magnetization       =    88.43 Bohr mag/cell
     absolute magnetization    =    89.79 Bohr mag/cell

     iteration # 35     ecut=    50.00 Ry     beta= 0.10
     Davidson diagonalization with overlap
     c_bands:  1 eigenvalues not converged
     ethr =  3.32E-07,  avg # of iterations = 11.0

     negative rho (up, down):  4.314E-04 4.043E-04
 
     Adding external electric field

     Computed dipole along edir(3) : 
        Dipole                0.5374 Ry au,          1.3659 Debye
        Dipole field          0.0003 Ry au, 
 
        Potential amp.       -0.0363 Ry
        Total length         55.1515 bohr
 
 
     Adding external electric field

     Computed dipole along edir(3) : 
        Dipole                0.5374 Ry au,          1.3659 Debye
        Dipole field          0.0003 Ry au, 
 
        Potential amp.       -0.0363 Ry
        Total length         55.1515 bohr
 

     total cpu time spent up to now is      795.8 secs

     total energy              =   -7738.30173016 Ry
     estimated scf accuracy    <       0.00201943 Ry

     total magnetization       =    88.38 Bohr mag/cell
     absolute magnetization    =    89.74 Bohr mag/cell

     iteration # 36     ecut=    50.00 Ry     beta= 0.10
     Davidson diagonalization with overlap
     ethr =  1.85E-07,  avg # of iterations =  8.0

     negative rho (up, down):  5.033E-05 3.870E-05
 
     Adding external electric field

     Computed dipole along edir(3) : 
        Dipole                0.4933 Ry au,          1.2538 Debye
        Dipole field          0.0003 Ry au, 
 
        Potential amp.       -0.0333 Ry
        Total length         55.1515 bohr
 
 
     Adding external electric field

     Computed dipole along edir(3) : 
        Dipole                0.4933 Ry au,          1.2538 Debye
        Dipole field          0.0003 Ry au, 
 
        Potential amp.       -0.0333 Ry
        Total length         55.1515 bohr
 

     total cpu time spent up to now is      819.0 secs

     total energy              =   -7738.30172016 Ry
     estimated scf accuracy    <       0.00136157 Ry

     total magnetization       =    88.31 Bohr mag/cell
     absolute magnetization    =    89.69 Bohr mag/cell

     iteration # 37     ecut=    50.00 Ry     beta= 0.10
     Davidson diagonalization with overlap
     c_bands:  1 eigenvalues not converged
     ethr =  1.25E-07,  avg # of iterations = 11.0

     negative rho (up, down):  1.220E-05 3.988E-06
 
     Adding external electric field

     Computed dipole along edir(3) : 
        Dipole                0.4873 Ry au,          1.2387 Debye
        Dipole field          0.0003 Ry au, 
 
        Potential amp.       -0.0329 Ry
        Total length         55.1515 bohr
 
 
     Adding external electric field

     Computed dipole along edir(3) : 
        Dipole                0.4873 Ry au,          1.2387 Debye
        Dipole field          0.0003 Ry au, 
 
        Potential amp.       -0.0329 Ry
        Total length         55.1515 bohr
 

     total cpu time spent up to now is      837.8 secs

     total energy              =   -7738.30178118 Ry
     estimated scf accuracy    <       0.00092774 Ry

     total magnetization       =    88.32 Bohr mag/cell
     absolute magnetization    =    89.73 Bohr mag/cell

     iteration # 38     ecut=    50.00 Ry     beta= 0.10
     Davidson diagonalization with overlap
     ethr =  8.49E-08,  avg # of iterations =  2.0

     negative rho (up, down):  5.542E-06 1.206E-06
 
     Adding external electric field

     Computed dipole along edir(3) : 
        Dipole                0.4947 Ry au,          1.2573 Debye
        Dipole field          0.0003 Ry au, 
 
        Potential amp.       -0.0334 Ry
        Total length         55.1515 bohr
 
 
     Adding external electric field

     Computed dipole along edir(3) : 
        Dipole                0.4947 Ry au,          1.2573 Debye
        Dipole field          0.0003 Ry au, 
 
        Potential amp.       -0.0334 Ry
        Total length         55.1515 bohr
 

     total cpu time spent up to now is      852.0 secs

     total energy              =   -7738.30185291 Ry
     estimated scf accuracy    <       0.00071956 Ry

     total magnetization       =    88.33 Bohr mag/cell
     absolute magnetization    =    89.72 Bohr mag/cell

     iteration # 39     ecut=    50.00 Ry     beta= 0.10
     Davidson diagonalization with overlap
     ethr =  6.58E-08,  avg # of iterations =  2.0

     negative rho (up, down):  3.064E-06 7.447E-07
 
     Adding external electric field

     Computed dipole along edir(3) : 
        Dipole                0.4790 Ry au,          1.2175 Debye
        Dipole field          0.0003 Ry au, 
 
        Potential amp.       -0.0323 Ry
        Total length         55.1515 bohr
 
 
     Adding external electric field

     Computed dipole along edir(3) : 
        Dipole                0.4790 Ry au,          1.2175 Debye
        Dipole field          0.0003 Ry au, 
 
        Potential amp.       -0.0323 Ry
        Total length         55.1515 bohr
 

     total cpu time spent up to now is      869.0 secs

     total energy              =   -7738.30184732 Ry
     estimated scf accuracy    <       0.00064246 Ry

     total magnetization       =    88.33 Bohr mag/cell
     absolute magnetization    =    89.70 Bohr mag/cell

     iteration # 40     ecut=    50.00 Ry     beta= 0.10
     Davidson diagonalization with overlap
     ethr =  5.88E-08,  avg # of iterations =  2.0

     negative rho (up, down):  1.813E-06 4.994E-07
 
     Adding external electric field

     Computed dipole along edir(3) : 
        Dipole                0.4698 Ry au,          1.1940 Debye
        Dipole field          0.0003 Ry au, 
 
        Potential amp.       -0.0317 Ry
        Total length         55.1515 bohr
 
 
     Adding external electric field

     Computed dipole along edir(3) : 
        Dipole                0.4698 Ry au,          1.1940 Debye
        Dipole field          0.0003 Ry au, 
 
        Potential amp.       -0.0317 Ry
        Total length         55.1515 bohr
 

     total cpu time spent up to now is      885.3 secs

     total energy              =   -7738.30185825 Ry
     estimated scf accuracy    <       0.00051943 Ry

     total magnetization       =    88.33 Bohr mag/cell
     absolute magnetization    =    89.70 Bohr mag/cell

     iteration # 41     ecut=    50.00 Ry     beta= 0.10
     Davidson diagonalization with overlap
     ethr =  4.75E-08,  avg # of iterations =  1.5

     negative rho (up, down):  5.437E-05 2.899E-05
 
     Adding external electric field

     Computed dipole along edir(3) : 
        Dipole                0.4915 Ry au,          1.2492 Debye
        Dipole field          0.0003 Ry au, 
 
        Potential amp.       -0.0332 Ry
        Total length         55.1515 bohr
 
 
     Adding external electric field

     Computed dipole along edir(3) : 
        Dipole                0.4915 Ry au,          1.2492 Debye
        Dipole field          0.0003 Ry au, 
 
        Potential amp.       -0.0332 Ry
        Total length         55.1515 bohr
 

     total cpu time spent up to now is      903.8 secs

     total energy              =   -7738.30195210 Ry
     estimated scf accuracy    <       0.00040496 Ry

     total magnetization       =    88.32 Bohr mag/cell
     absolute magnetization    =    89.69 Bohr mag/cell

     iteration # 42     ecut=    50.00 Ry     beta= 0.10
     Davidson diagonalization with overlap
     c_bands:  1 eigenvalues not converged
     ethr =  3.70E-08,  avg # of iterations = 11.0

     negative rho (up, down):  3.490E-04 2.344E-04
 
     Adding external electric field

     Computed dipole along edir(3) : 
        Dipole                0.5067 Ry au,          1.2879 Debye
        Dipole field          0.0003 Ry au, 
 
        Potential amp.       -0.0342 Ry
        Total length         55.1515 bohr
 
 
     Adding external electric field

     Computed dipole along edir(3) : 
        Dipole                0.5067 Ry au,          1.2879 Debye
        Dipole field          0.0003 Ry au, 
 
        Potential amp.       -0.0342 Ry
        Total length         55.1515 bohr
 

     total cpu time spent up to now is      936.9 secs

     total energy              =   -7738.30199889 Ry
     estimated scf accuracy    <       0.00021313 Ry

     total magnetization       =    88.33 Bohr mag/cell
     absolute magnetization    =    89.70 Bohr mag/cell

     iteration # 43     ecut=    50.00 Ry     beta= 0.10
     Davidson diagonalization with overlap
     ethr =  1.95E-08,  avg # of iterations =  2.0

     negative rho (up, down):  4.577E-04 2.800E-04
 
     Adding external electric field

     Computed dipole along edir(3) : 
        Dipole                0.5011 Ry au,          1.2737 Debye
        Dipole field          0.0003 Ry au, 
 
        Potential amp.       -0.0338 Ry
        Total length         55.1515 bohr
 
 
     Adding external electric field

     Computed dipole along edir(3) : 
        Dipole                0.5011 Ry au,          1.2737 Debye
        Dipole field          0.0003 Ry au, 
 
        Potential amp.       -0.0338 Ry
        Total length         55.1515 bohr
 

     total cpu time spent up to now is      969.3 secs

     total energy              =   -7738.30200629 Ry
     estimated scf accuracy    <       0.00015901 Ry

     total magnetization       =    88.33 Bohr mag/cell
     absolute magnetization    =    89.69 Bohr mag/cell

     iteration # 44     ecut=    50.00 Ry     beta= 0.10
     Davidson diagonalization with overlap
     ethr =  1.45E-08,  avg # of iterations =  2.0

     negative rho (up, down):  1.003E-03 7.592E-04
 
     Adding external electric field

     Computed dipole along edir(3) : 
        Dipole                0.5152 Ry au,          1.3096 Debye
        Dipole field          0.0003 Ry au, 
 
        Potential amp.       -0.0348 Ry
        Total length         55.1515 bohr
 
 
     Adding external electric field

     Computed dipole along edir(3) : 
        Dipole                0.5152 Ry au,          1.3096 Debye
        Dipole field          0.0003 Ry au, 
 
        Potential amp.       -0.0348 Ry
        Total length         55.1515 bohr
 

     total cpu time spent up to now is      991.7 secs

     total energy              =   -7738.30202366 Ry
     estimated scf accuracy    <       0.00011959 Ry

     total magnetization       =    88.33 Bohr mag/cell
     absolute magnetization    =    89.69 Bohr mag/cell

     iteration # 45     ecut=    50.00 Ry     beta= 0.10
     Davidson diagonalization with overlap
     ethr =  1.09E-08,  avg # of iterations =  2.0

     negative rho (up, down):  1.341E-03 1.105E-03
 
     Adding external electric field

     Computed dipole along edir(3) : 
        Dipole                0.5184 Ry au,          1.3176 Debye
        Dipole field          0.0003 Ry au, 
 
        Potential amp.       -0.0350 Ry
        Total length         55.1515 bohr
 
 
     Adding external electric field

     Computed dipole along edir(3) : 
        Dipole                0.5184 Ry au,          1.3176 Debye
        Dipole field          0.0003 Ry au, 
 
        Potential amp.       -0.0350 Ry
        Total length         55.1515 bohr
 

     total cpu time spent up to now is     1014.1 secs

     total energy              =   -7738.30202846 Ry
     estimated scf accuracy    <       0.00008393 Ry

     total magnetization       =    88.32 Bohr mag/cell
     absolute magnetization    =    89.68 Bohr mag/cell

     iteration # 46     ecut=    50.00 Ry     beta= 0.10
     Davidson diagonalization with overlap
     ethr =  7.68E-09,  avg # of iterations =  1.5

     negative rho (up, down):  1.461E-03 1.202E-03
 
     Adding external electric field

     Computed dipole along edir(3) : 
        Dipole                0.5179 Ry au,          1.3164 Debye
        Dipole field          0.0003 Ry au, 
 
        Potential amp.       -0.0350 Ry
        Total length         55.1515 bohr
 
 
     Adding external electric field

     Computed dipole along edir(3) : 
        Dipole                0.5179 Ry au,          1.3164 Debye
        Dipole field          0.0003 Ry au, 
 
        Potential amp.       -0.0350 Ry
        Total length         55.1515 bohr
 

     total cpu time spent up to now is     1029.9 secs

     total energy              =   -7738.30202974 Ry
     estimated scf accuracy    <       0.00005923 Ry

     total magnetization       =    88.31 Bohr mag/cell
     absolute magnetization    =    89.68 Bohr mag/cell

     iteration # 47     ecut=    50.00 Ry     beta= 0.10
     Davidson diagonalization with overlap
     ethr =  5.42E-09,  avg # of iterations =  2.0

     negative rho (up, down):  1.812E-03 1.505E-03
 
     Adding external electric field

     Computed dipole along edir(3) : 
        Dipole                0.5259 Ry au,          1.3366 Debye
        Dipole field          0.0003 Ry au, 
 
        Potential amp.       -0.0355 Ry
        Total length         55.1515 bohr
 
 
     Adding external electric field

     Computed dipole along edir(3) : 
        Dipole                0.5259 Ry au,          1.3366 Debye
        Dipole field          0.0003 Ry au, 
 
        Potential amp.       -0.0355 Ry
        Total length         55.1515 bohr
 

     total cpu time spent up to now is     1046.0 secs

     total energy              =   -7738.30203673 Ry
     estimated scf accuracy    <       0.00003949 Ry

     total magnetization       =    88.32 Bohr mag/cell
     absolute magnetization    =    89.69 Bohr mag/cell

     iteration # 48     ecut=    50.00 Ry     beta= 0.10
     Davidson diagonalization with overlap
     ethr =  3.61E-09,  avg # of iterations =  2.0

     negative rho (up, down):  1.825E-03 1.475E-03
 
     Adding external electric field

     Computed dipole along edir(3) : 
        Dipole                0.5338 Ry au,          1.3568 Debye
        Dipole field          0.0003 Ry au, 
 
        Potential amp.       -0.0360 Ry
        Total length         55.1515 bohr
 
 
     Adding external electric field

     Computed dipole along edir(3) : 
        Dipole                0.5338 Ry au,          1.3568 Debye
        Dipole field          0.0003 Ry au, 
 
        Potential amp.       -0.0360 Ry
        Total length         55.1515 bohr
 

     total cpu time spent up to now is     1064.2 secs

     total energy              =   -7738.30203981 Ry
     estimated scf accuracy    <       0.00002707 Ry

     total magnetization       =    88.32 Bohr mag/cell
     absolute magnetization    =    89.69 Bohr mag/cell

     iteration # 49     ecut=    50.00 Ry     beta= 0.10
     Davidson diagonalization with overlap
     ethr =  2.48E-09,  avg # of iterations =  1.5

     negative rho (up, down):  1.462E-03 1.064E-03
 
     Adding external electric field

     Computed dipole along edir(3) : 
        Dipole                0.5354 Ry au,          1.3608 Debye
        Dipole field          0.0003 Ry au, 
 
        Potential amp.       -0.0361 Ry
        Total length         55.1515 bohr
 
 
     Adding external electric field

     Computed dipole along edir(3) : 
        Dipole                0.5354 Ry au,          1.3608 Debye
        Dipole field          0.0003 Ry au, 
 
        Potential amp.       -0.0361 Ry
        Total length         55.1515 bohr
 

     total cpu time spent up to now is     1092.8 secs

     total energy              =   -7738.30203762 Ry
     estimated scf accuracy    <       0.00001669 Ry

     total magnetization       =    88.32 Bohr mag/cell
     absolute magnetization    =    89.69 Bohr mag/cell

     iteration # 50     ecut=    50.00 Ry     beta= 0.10
     Davidson diagonalization with overlap
     ethr =  1.53E-09,  avg # of iterations =  1.5

     negative rho (up, down):  1.552E-03 1.162E-03
 
     Adding external electric field

     Computed dipole along edir(3) : 
        Dipole                0.5400 Ry au,          1.3725 Debye
        Dipole field          0.0003 Ry au, 
 
        Potential amp.       -0.0365 Ry
        Total length         55.1515 bohr
 
 
     Adding external electric field

     Computed dipole along edir(3) : 
        Dipole                0.5400 Ry au,          1.3725 Debye
        Dipole field          0.0003 Ry au, 
 
        Potential amp.       -0.0365 Ry
        Total length         55.1515 bohr
 

     total cpu time spent up to now is     1121.4 secs

     total energy              =   -7738.30203869 Ry
     estimated scf accuracy    <       0.00001438 Ry

     total magnetization       =    88.32 Bohr mag/cell
     absolute magnetization    =    89.69 Bohr mag/cell

     iteration # 51     ecut=    50.00 Ry     beta= 0.10
     Davidson diagonalization with overlap
     ethr =  1.32E-09,  avg # of iterations =  1.5

     negative rho (up, down):  1.423E-03 9.892E-04
 
     Adding external electric field

     Computed dipole along edir(3) : 
        Dipole                0.5444 Ry au,          1.3838 Debye
        Dipole field          0.0003 Ry au, 
 
        Potential amp.       -0.0368 Ry
        Total length         55.1515 bohr
 
 
     Adding external electric field

     Computed dipole along edir(3) : 
        Dipole                0.5444 Ry au,          1.3838 Debye
        Dipole field          0.0003 Ry au, 
 
        Potential amp.       -0.0368 Ry
        Total length         55.1515 bohr
 

     total cpu time spent up to now is     1143.4 secs

     total energy              =   -7738.30203806 Ry
     estimated scf accuracy    <       0.00000917 Ry

     total magnetization       =    88.32 Bohr mag/cell
     absolute magnetization    =    89.69 Bohr mag/cell

     iteration # 52     ecut=    50.00 Ry     beta= 0.10
     Davidson diagonalization with overlap
     ethr =  8.39E-10,  avg # of iterations =  2.0

     negative rho (up, down):  1.227E-03 7.733E-04
 
     Adding external electric field

     Computed dipole along edir(3) : 
        Dipole                0.5447 Ry au,          1.3846 Debye
        Dipole field          0.0003 Ry au, 
 
        Potential amp.       -0.0368 Ry
        Total length         55.1515 bohr
 
 
     Adding external electric field

     Computed dipole along edir(3) : 
        Dipole                0.5447 Ry au,          1.3846 Debye
        Dipole field          0.0003 Ry au, 
 
        Potential amp.       -0.0368 Ry
        Total length         55.1515 bohr
 

     total cpu time spent up to now is     1170.5 secs

     total energy              =   -7738.30203709 Ry
     estimated scf accuracy    <       0.00000285 Ry

     total magnetization       =    88.32 Bohr mag/cell
     absolute magnetization    =    89.69 Bohr mag/cell

     iteration # 53     ecut=    50.00 Ry     beta= 0.10
     Davidson diagonalization with overlap
     ethr =  2.61E-10,  avg # of iterations =  1.5

     negative rho (up, down):  1.115E-03 6.641E-04
 
     Adding external electric field

     Computed dipole along edir(3) : 
        Dipole                0.5451 Ry au,          1.3855 Debye
        Dipole field          0.0003 Ry au, 
 
        Potential amp.       -0.0368 Ry
        Total length         55.1515 bohr
 
 
     Adding external electric field

     Computed dipole along edir(3) : 
        Dipole                0.5451 Ry au,          1.3855 Debye
        Dipole field          0.0003 Ry au, 
 
        Potential amp.       -0.0368 Ry
        Total length         55.1515 bohr
 

     total cpu time spent up to now is     1194.5 secs

     total energy              =   -7738.30203655 Ry
     estimated scf accuracy    <       0.00000209 Ry

     total magnetization       =    88.32 Bohr mag/cell
     absolute magnetization    =    89.69 Bohr mag/cell

     iteration # 54     ecut=    50.00 Ry     beta= 0.10
     Davidson diagonalization with overlap
     ethr =  1.92E-10,  avg # of iterations =  2.0

     negative rho (up, down):  1.054E-03 5.950E-04
 
     Adding external electric field

     Computed dipole along edir(3) : 
        Dipole                0.5449 Ry au,          1.3850 Debye
        Dipole field          0.0003 Ry au, 
 
        Potential amp.       -0.0368 Ry
        Total length         55.1515 bohr
 
 
     Adding external electric field

     Computed dipole along edir(3) : 
        Dipole                0.5449 Ry au,          1.3850 Debye
        Dipole field          0.0003 Ry au, 
 
        Potential amp.       -0.0368 Ry
        Total length         55.1515 bohr
 

     total cpu time spent up to now is     1218.2 secs

     total energy              =   -7738.30203639 Ry
     estimated scf accuracy    <       0.00000155 Ry

     total magnetization       =    88.32 Bohr mag/cell
     absolute magnetization    =    89.69 Bohr mag/cell

     iteration # 55     ecut=    50.00 Ry     beta= 0.10
     Davidson diagonalization with overlap
     ethr =  1.41E-10,  avg # of iterations =  2.0

     negative rho (up, down):  1.048E-03 5.891E-04
 
     Adding external electric field

     Computed dipole along edir(3) : 
        Dipole                0.5463 Ry au,          1.3885 Debye
        Dipole field          0.0003 Ry au, 
 
        Potential amp.       -0.0369 Ry
        Total length         55.1515 bohr
 
 
     Adding external electric field

     Computed dipole along edir(3) : 
        Dipole                0.5463 Ry au,          1.3885 Debye
        Dipole field          0.0003 Ry au, 
 
        Potential amp.       -0.0369 Ry
        Total length         55.1515 bohr
 
 
     Magnetic moment per site  (integrated on atomic sphere of radius R)
     atom   1 (R=0.082)  charge=  7.1443  magn=  1.4217
     atom   2 (R=0.090)  charge= 12.1433  magn=  3.8864
     atom   3 (R=0.082)  charge=  7.1461  magn=  1.4229
     atom   4 (R=0.082)  charge=  7.1311  magn=  1.5272
     atom   5 (R=0.082)  charge=  7.1483  magn=  1.4945
     atom   6 (R=0.082)  charge=  7.1460  magn=  1.4916
     atom   7 (R=0.068)  charge=  0.8232  magn=  0.0071
     atom   8 (R=0.068)  charge=  0.8243  magn=  0.0035
     atom   9 (R=0.068)  charge=  0.8241  magn=  0.0029
     atom  10 (R=0.068)  charge=  0.8228  magn=  0.0069
     atom  11 (R=0.045)  charge=  2.0122  magn=  0.0652
     atom  12 (R=0.045)  charge=  2.0139  magn=  0.0763
     atom  13 (R=0.045)  charge=  2.0103  magn=  0.0961
     atom  14 (R=0.045)  charge=  2.0120  magn=  0.0772
     atom  15 (R=0.045)  charge=  2.0209  magn=  0.0463
     atom  16 (R=0.045)  charge=  2.0006  magn=  0.0479
     atom  17 (R=0.045)  charge=  2.0015  magn=  0.0486
     atom  18 (R=0.045)  charge=  2.0197  magn=  0.0533
     atom  19 (R=0.045)  charge=  2.0220  magn=  0.0441
     atom  20 (R=0.045)  charge=  2.0180  magn=  0.0534
     atom  21 (R=0.045)  charge=  2.0211  magn=  0.0489
     atom  22 (R=0.045)  charge=  2.0195  magn=  0.0489
     atom  23 (R=0.045)  charge=  2.0218  magn=  0.0489
     atom  24 (R=0.045)  charge=  2.0176  magn=  0.0518
     atom  25 (R=0.045)  charge=  2.0199  magn=  0.0516
     atom  26 (R=0.045)  charge=  2.0261  magn=  0.0353
     atom  27 (R=0.082)  charge=  7.1309  magn=  1.5167
     atom  28 (R=0.090)  charge= 12.1584  magn=  3.9342
     atom  29 (R=0.082)  charge=  7.1306  magn=  1.5277
     atom  30 (R=0.082)  charge=  7.1329  magn=  1.5273
     atom  31 (R=0.082)  charge=  7.1495  magn=  1.5067
     atom  32 (R=0.082)  charge=  7.1474  magn=  1.5040
     atom  33 (R=0.068)  charge=  0.8227  magn=  0.0073
     atom  34 (R=0.068)  charge=  0.8216  magn=  0.0082
     atom  35 (R=0.068)  charge=  0.8209  magn=  0.0061
     atom  36 (R=0.068)  charge=  0.8234  magn=  0.0072
     atom  37 (R=0.045)  charge=  2.0117  magn=  0.0691
     atom  38 (R=0.045)  charge=  2.0158  magn=  0.0670
     atom  39 (R=0.045)  charge=  2.0103  magn=  0.0833
     atom  40 (R=0.045)  charge=  2.0093  magn=  0.0808
     atom  41 (R=0.045)  charge=  2.0204  magn=  0.0477
[...]
    -5.9160  -5.8984  -5.8852  -5.8766  -5.8642  -5.8421  -5.8343  -5.8048
    -5.7774  -5.7724  -5.7323  -5.7224  -5.7054  -5.6783  -5.6675  -5.6489
    -5.6313  -5.6005  -5.5556  -5.5504  -5.5267  -5.4949  -5.4803  -5.4697
    -5.4646  -5.4349  -5.4279  -5.4001  -5.3814  -5.3668  -5.3551  -5.3251
    -5.2074  -5.1972  -5.1805  -5.1734  -5.1596  -5.1346  -5.0704  -5.0290
    -5.0082  -4.9908  -4.9480  -4.9194  -4.9090  -4.8901  -4.8574  -4.8155
    -4.7907  -4.7358  -4.7253  -4.7101  -4.6718  -4.6536  -4.6231  -4.5454
    -4.5452  -4.4736  -4.4579  -4.4011  -4.3947  -4.3761  -4.3351  -4.3274
    -4.3110  -4.2492  -4.1887  -4.1795  -4.1438  -4.1160  -4.0978  -4.0730
    -4.0637  -4.0398  -4.0368  -3.9645  -3.9205  -3.8996  -3.8881  -3.8487
    -3.8297  -3.8090  -3.7662  -3.7563  -3.7529  -3.7185  -3.6971  -3.6607
    -3.6340  -3.5865  -3.5838  -3.5780  -3.5572  -3.5369  -3.5362  -3.5161
    -3.5003  -3.4771  -3.4558  -3.4520  -3.4409  -3.4283  -3.4026  -3.3879
    -3.3603  -3.3565  -3.3412  -3.3127  -3.3072  -3.2669  -3.2513  -3.2054
    -3.2016  -3.1907  -3.1828  -3.1650  -3.1558  -3.1022  -3.0782  -3.0555
    -3.0328  -3.0128  -3.0080  -2.9984  -2.9943  -2.9834  -2.9662  -2.9280
    -2.9104  -2.8991  -2.8739  -2.8330  -2.8281  -2.8185  -2.7825  -2.7648
    -2.7411  -2.7283  -2.7128  -2.6998  -2.6960  -2.6776  -2.6614  -2.6529
    -2.6363  -2.6287  -2.6227  -2.6028  -2.5894  -2.5796  -2.5727  -2.5584
    -2.5417  -2.5290  -2.5141  -2.4926  -2.4751  -2.4699  -2.4455  -2.4353
    -2.4072  -2.4003  -2.3754  -2.3490  -2.3160  -2.2981  -2.2801  -2.2575
    -2.2442  -2.2299  -2.2084  -2.1694  -2.1554  -2.1371  -2.1252  -2.0993
    -2.0958  -2.0759  -2.0663  -2.0546  -2.0391  -2.0161  -1.9990  -1.9524
    -1.9386  -1.9103  -1.9058  -1.8966  -1.8869  -1.8755  -1.8435  -1.8191
    -1.8101  -1.7932  -1.7761  -1.7684  -1.7600  -1.7497  -1.7312  -1.7153
    -1.6888  -1.6614  -1.6495  -1.6053  -1.5970  -1.5794  -1.5615  -1.5404
    -1.5285  -1.4979  -1.4767  -1.4566  -1.4516  -1.4410  -1.4137  -1.3928
    -1.3830  -1.3731  -1.3516  -1.3426  -1.3172  -1.3013  -1.2462  -1.2422
    -1.2230  -1.2151  -1.1951  -1.1540  -1.1498  -1.0826  -1.0415  -1.0265
    -0.9781  -0.8736  -0.8590  -0.8161  -0.7479  -0.6850  -0.6825  -0.4476
    -0.2836  -0.2371  -0.2333  -0.1050   0.2174   0.2501   0.2720   0.2790
     0.2845   0.3003   0.3354   0.3440   0.3696   0.3786   0.3948   0.4002
     0.4065   0.4178   0.4286   0.4346   0.4426   0.4552   0.4624   0.4703
     0.4760   0.4869   0.4883   0.4969   0.5022   0.5113   0.5136   0.5257
     0.5417   0.5436   0.5530   0.5595   0.5653   0.5703   0.5727   0.5992
     0.6056   0.6083   0.6156   0.6199   0.6337   0.6455   0.6480   0.6486
     0.6645   0.6691   0.6713   0.6832   0.6850   0.7046   0.7084   0.7127
     0.7217   0.7270   0.7298   0.7395   0.7552   0.7699   0.7820   0.7844
     0.7934   0.7973   0.8054   0.8302   0.8347   0.8448   0.8479   0.8504
     0.8630   0.8660   0.8844   0.8980   0.9020   0.9072   0.9187   0.9243
     0.9317   0.9609   0.9706   0.9855   0.9860   0.9882   0.9919   1.0175
     1.0523   1.1313   1.1334   1.2321   1.2542   1.7040   1.7815   1.7892
     1.7947   1.8103   1.8211   1.8378   1.8479   1.8603   1.9436   1.9600
     1.9722   1.9919   2.0174   2.0405   2.0520   2.0807   2.0946   2.1457
     2.1567   2.1706   2.1809   2.2082   2.2222   2.2382   2.2515   2.2691
     2.2796   2.2997   2.3219   2.3364   2.3486   2.3588   2.3904   2.3996
     2.4118   2.4139   2.4614   2.4636   2.4925   2.5099   2.5163   2.5225
     2.5340   2.5397   2.5598   2.5682   2.5879   2.6195   2.6275   2.6465
     2.6664   2.6727   2.6841   2.7427   2.8108   2.8278   2.8850   2.8952
     2.8971   2.9425   3.5217   3.5560   3.6069   3.6335   3.7676   3.7977
     3.8789   3.8922   3.9061   3.9512   3.9643   4.0172   4.1016   4.1096
     4.1187   4.1417   4.1660   4.1710   4.1927   4.2072   4.6774   4.7982
     4.8488   4.8835   4.9517   4.9644   4.9998   5.0550   5.0623   5.1361
     5.1376   5.1950   5.4378   6.3018   6.3931   6.5298   6.6404   6.7351
     6.8125   6.8665   6.9194   6.9635   7.0021   7.0817   7.1500   7.2171
     7.2953   7.3595   7.4096   7.4200   7.4657   7.5052   7.6494   7.6880
     7.7273   7.7640   7.7751   7.8191   7.8618   7.9093   7.9271   7.9690
     8.0253   8.0567   8.0901   8.1186   8.1689   8.1909   8.2116   8.2443
     8.2798   8.3144   8.3688   8.3842   8.4238   8.4327   8.4450   8.4688
     8.4802   8.5083   8.5354   8.5526   8.5885   8.5972   8.6147   8.6711
     8.6924   8.7062   8.7255   8.7464   8.7668   8.8078   8.8373   8.8978

     the Fermi energy is     1.6944 ev

!    total energy              =   -7738.30203621 Ry
     estimated scf accuracy    <       0.00000082 Ry
     smearing contrib. (-TS)   =      -0.02505822 Ry
     internal energy E=F+TS    =   -7738.27697799 Ry

     The total energy is F=E-TS. E is the sum of the following terms:
     one-electron contribution =  -95054.85770797 Ry
     hartree contribution      =   48145.02071080 Ry
     xc contribution           =   -2218.73713760 Ry
     ewald contribution        =   41392.10564487 Ry
     Dispersion Correction     =      -1.80867075 Ry
     electric field correction =       0.00018267 Ry

     total magnetization       =    88.32 Bohr mag/cell
     absolute magnetization    =    89.69 Bohr mag/cell

     convergence has been achieved in  55 iterations

     negative rho (up, down):  1.048E-03 5.891E-04

     Forces acting on atoms (cartesian axes, Ry/au):

     atom    1 type  1   force =     0.02500276   -0.03080786    0.01846015
     atom    2 type  2   force =    -0.01379307   -0.00156803   -0.01007418
     atom    3 type  1   force =    -0.02303939   -0.01841070    0.01989364
     atom    4 type  1   force =     0.00573214    0.00416065   -0.00643259
     atom    5 type  1   force =    -0.00186283    0.00114161   -0.00521028
     atom    6 type  1   force =     0.00204291    0.00765669   -0.00893718
     atom    7 type  3   force =    -0.00773167    0.00117734   -0.01045687
     atom    8 type  3   force =    -0.03499451    0.05415020   -0.08330694
     atom    9 type  3   force =     0.03414568    0.03816412   -0.06430303
     atom   10 type  3   force =    -0.00306521   -0.00247434   -0.01160846
     atom   11 type  4   force =     0.00672543    0.00561949    0.01388822
     atom   12 type  4   force =    -0.00025666   -0.00292448    0.01487760
     atom   13 type  4   force =     0.00195627    0.00171634    0.01742226
     atom   14 type  4   force =    -0.00048412   -0.00129024    0.01273267
     atom   15 type  4   force =    -0.00067642    0.00455803   -0.00197085
     atom   16 type  4   force =    -0.00044104    0.00267282    0.04021486
     atom   17 type  4   force =     0.00173160    0.00814427    0.03770136
     atom   18 type  4   force =     0.00797971   -0.00447562   -0.00048492
     atom   19 type  4   force =     0.00047318    0.01190606    0.00424865
     atom   20 type  4   force =    -0.00962724   -0.02679589   -0.00368560
     atom   21 type  4   force =    -0.01112469   -0.00043835    0.00064870
     atom   22 type  4   force =    -0.03211688    0.00310224    0.00786631
     atom   23 type  4   force =     0.03209363    0.00056939    0.01409556
     atom   24 type  4   force =     0.00699780   -0.03700057    0.00378793
     atom   25 type  4   force =    -0.00314905    0.00174091    0.00392423
     atom   26 type  4   force =     0.01786560   -0.00685648    0.00078050
     atom   27 type  1   force =    -0.00526407   -0.00880172    0.00273066
     atom   28 type  2   force =    -0.01388370   -0.00051699    0.00489383
     atom   29 type  1   force =     0.00303670   -0.00493972   -0.00127276
     atom   30 type  1   force =     0.00392926    0.00353449    0.00183003
     atom   31 type  1   force =     0.00132871   -0.00465838    0.00018033
     atom   32 type  1   force =    -0.00077435    0.00117853   -0.00175532
     atom   33 type  3   force =    -0.00628609   -0.00045222   -0.00048004
     atom   34 type  3   force =    -0.00801380    0.00260222   -0.00023317
     atom   35 type  3   force =     0.00436940   -0.00058165    0.00290303
     atom   36 type  3   force =     0.00093458   -0.00176083   -0.00504521
     atom   37 type  4   force =     0.00824120    0.00490847    0.00741809
     atom   38 type  4   force =     0.00376417   -0.00084953   -0.01927279
     atom   39 type  4   force =    -0.00150960    0.00367986   -0.00986319
     atom   40 type  4   force =    -0.00174748   -0.00229638    0.00903457
     atom   41 type  4   force =    -0.00050258    0.00347218   -0.00639039
     atom   42 type  4   force =    -0.00433905   -0.00452231    0.01799496
     atom   43 type  4   force =     0.00772941    0.00342333    0.00766095
     atom   44 type  4   force =     0.01046511   -0.00466613   -0.00761918
     atom   45 type  4   force =     0.00289327    0.00445681    0.00056937
     atom   46 type  4   force =     0.00241774   -0.00020292   -0.00561649
     atom   47 type  4   force =    -0.01287418   -0.00011655   -0.00353356
     atom   48 type  4   force =    -0.01467309    0.00125613    0.00331486
     atom   49 type  4   force =     0.01358686    0.00253901    0.00439502
     atom   50 type  4   force =    -0.00271879   -0.00497507   -0.00050900
     atom   51 type  4   force =    -0.00505427    0.00155368    0.00000986
     atom   52 type  4   force =     0.01589783   -0.00420123   -0.00439757
     atom   53 type  1   force =     0.00028801   -0.00039596    0.00029350
     atom   54 type  2   force =    -0.00002016    0.00007090    0.00012766
     atom   55 type  1   force =     0.00032510    0.00009385    0.00024764
     atom   56 type  1   force =     0.00008172   -0.00044438   -0.00036334
     atom   57 type  1   force =     0.00013578   -0.00077461    0.00019087
     atom   58 type  1   force =    -0.00001442    0.00070239    0.00024758
     atom   59 type  3   force =    -0.00074453   -0.00009302   -0.00016487
     atom   60 type  3   force =     0.00018795   -0.00018674    0.00029692
     atom   61 type  3   force =     0.00008481    0.00015957   -0.00028066
     atom   62 type  3   force =    -0.00003782   -0.00039629   -0.00026679
     atom   63 type  4   force =     0.00090625    0.00018180   -0.00028907
     atom   64 type  4   force =    -0.00000303   -0.00021614    0.00041489
     atom   65 type  4   force =    -0.00068283   -0.00048850    0.00062747
     atom   66 type  4   force =    -0.00091687   -0.00036319   -0.00027857
     atom   67 type  4   force =     0.00060733   -0.00026713   -0.00067644
     atom   68 type  4   force =     0.00023183    0.00071043    0.00074013
     atom   69 type  4   force =    -0.00003651    0.00044944   -0.00017472
     atom   70 type  4   force =    -0.00087843   -0.00006605   -0.00100951
     atom   71 type  4   force =     0.00081697   -0.00056959    0.00036479
     atom   72 type  4   force =    -0.00024501    0.00018981    0.00001262
     atom   73 type  4   force =     0.00031081   -0.00007543    0.00024248
     atom   74 type  4   force =    -0.00007400    0.00041578   -0.00047516
     atom   75 type  4   force =     0.00008011   -0.00063561   -0.00000280
     atom   76 type  4   force =    -0.00010200   -0.00050090    0.00031177
     atom   77 type  4   force =     0.00019757    0.00056420    0.00012143
     atom   78 type  4   force =    -0.00098635   -0.00057518    0.00020563
     atom   79 type  1   force =     0.02499353   -0.03080994    0.01846540
     atom   80 type  2   force =    -0.01374474   -0.00157258   -0.01004321
     atom   81 type  1   force =    -0.02303261   -0.01840517    0.01988373
     atom   82 type  1   force =     0.00572188    0.00415732   -0.00643548
     atom   83 type  1   force =    -0.00186946    0.00114518   -0.00521162
     atom   84 type  1   force =     0.00202461    0.00765073   -0.00893933
     atom   85 type  3   force =    -0.00773048    0.00116604   -0.01044673
     atom   86 type  3   force =    -0.03499526    0.05415129   -0.08330926
     atom   87 type  3   force =     0.03414952    0.03816427   -0.06430133
     atom   88 type  3   force =    -0.00305502   -0.00247987   -0.01161343
     atom   89 type  4   force =     0.00685202    0.00563601    0.01388261
     atom   90 type  4   force =    -0.00016619   -0.00283774    0.01486704
     atom   91 type  4   force =     0.00204409    0.00170459    0.01739654
     atom   92 type  4   force =    -0.00032367   -0.00127959    0.01273448
     atom   93 type  4   force =    -0.00067783    0.00476556   -0.00186595
     atom   94 type  4   force =    -0.00050336    0.00263049    0.04000665
     atom   95 type  4   force =     0.00186159    0.00814601    0.03770182
     atom   96 type  4   force =     0.00778055   -0.00448558   -0.00051160
     atom   97 type  4   force =     0.00056260    0.01197644    0.00414689
     atom   98 type  4   force =    -0.00952117   -0.02662749   -0.00365330
     atom   99 type  4   force =    -0.01113737   -0.00040187    0.00084361
     atom  100 type  4   force =    -0.03214700    0.00299783    0.00773922
     atom  101 type  4   force =     0.03211843    0.00057302    0.01410265
     atom  102 type  4   force =     0.00681659   -0.03700507    0.00379153
     atom  103 type  4   force =    -0.00305814    0.00168866    0.00389851
     atom  104 type  4   force =     0.01798108   -0.00685468    0.00077414
     atom  105 type  1   force =    -0.00528609   -0.00878840    0.00262811
     atom  106 type  2   force =    -0.01314502    0.00000993    0.00462422
     atom  107 type  1   force =     0.00303952   -0.00505552   -0.00131986
     atom  108 type  1   force =     0.00243287    0.00515995   -0.00186512
     atom  109 type  1   force =     0.00172709   -0.00458693    0.00027586
     atom  110 type  1   force =    -0.00076690    0.00121430   -0.00178110
     atom  111 type  3   force =    -0.00619293   -0.00172725   -0.00295715
     atom  112 type  3   force =    -0.00802667    0.00261335   -0.00029637
     atom  113 type  3   force =     0.00449671   -0.00067219    0.00276366
     atom  114 type  3   force =     0.00083263   -0.00196478   -0.00415491
     atom  115 type  4   force =     0.00856288    0.00511917    0.00765930
     atom  116 type  4   force =     0.00377447   -0.00089517   -0.01925744
     atom  117 type  4   force =    -0.00136996    0.00366953   -0.00987725
     atom  118 type  4   force =    -0.00137080   -0.00275128    0.00920847
     atom  119 type  4   force =    -0.00145108    0.00368927   -0.00680091
     atom  120 type  4   force =    -0.00419999   -0.00463650    0.01799338
     atom  121 type  4   force =     0.00773358    0.00339357    0.00769279
     atom  122 type  4   force =     0.01009556   -0.00536482   -0.00612826
     atom  123 type  4   force =     0.00281415    0.00468499    0.00045750
     atom  124 type  4   force =     0.00219456   -0.00014976   -0.00562413
     atom  125 type  4   force =    -0.01284167   -0.00015569   -0.00371700
     atom  126 type  4   force =    -0.01478345    0.00125944    0.00339453
     atom  127 type  4   force =     0.01360400    0.00243959    0.00454449
     atom  128 type  4   force =    -0.00289562   -0.00497559   -0.00050081
     atom  129 type  4   force =    -0.00535318    0.00154472    0.00046199
     atom  130 type  4   force =     0.01539888   -0.00413100   -0.00441639
     atom  131 type  1   force =    -0.00000694   -0.00021403    0.00027095
     atom  132 type  2   force =     0.00008570   -0.00040641    0.00017170
     atom  133 type  1   force =    -0.00036225   -0.00023112    0.00029141
     atom  134 type  1   force =     0.00072435    0.00068854   -0.00007642
     atom  135 type  1   force =     0.00029337   -0.00064498   -0.00028570
     atom  136 type  1   force =    -0.00037899   -0.00019984    0.00065815
     atom  137 type  3   force =     0.00012412    0.00003954   -0.00003751
     atom  138 type  3   force =    -0.00069946   -0.00027196    0.00017084
     atom  139 type  3   force =    -0.00008595    0.00014299    0.00045325
     atom  140 type  3   force =    -0.00014874    0.00088001   -0.00065551
     atom  141 type  4   force =     0.00049218   -0.00012410    0.00035207
     atom  142 type  4   force =    -0.00028205    0.00031160   -0.00001637
     atom  143 type  4   force =    -0.00006148    0.00032603    0.00042084
     atom  144 type  4   force =    -0.00061176   -0.00045600    0.00038627
     atom  145 type  4   force =     0.00019171   -0.00025637   -0.00034835
     atom  146 type  4   force =     0.00083460    0.00039954    0.00027182
     atom  147 type  4   force =     0.00016558    0.00026508    0.00059158
     atom  148 type  4   force =    -0.00002792   -0.00029439    0.00014947
     atom  149 type  4   force =    -0.00023755   -0.00002869   -0.00019424
     atom  150 type  4   force =    -0.00022657   -0.00004509    0.00009383
     atom  151 type  4   force =    -0.00002611   -0.00072543   -0.00005249
     atom  152 type  4   force =    -0.00012733   -0.00033826   -0.00024729
     atom  153 type  4   force =    -0.00045221    0.00017527    0.00043937
     atom  154 type  4   force =     0.00035253   -0.00024767    0.00028669
     atom  155 type  4   force =    -0.00050095    0.00002327   -0.00015378
     atom  156 type  4   force =    -0.00022713   -0.00041971    0.00013991
     atom  157 type  4   force =     0.01068616    0.00631948    0.00252447
     atom  158 type  5   force =    -0.01030403   -0.00739425   -0.00399820

     Total force =     0.263208     Total SCF correction =     0.003709
 
     init_run     :      8.00s CPU      8.65s WALL (       1 calls)
     electrons    :   1157.21s CPU   1234.94s WALL (       1 calls)
     forces       :      4.78s CPU      5.14s WALL (       1 calls)
     force_london :      0.10s CPU      0.10s WALL (       1 calls)

     Called by init_run:
     wfcinit      :      4.68s CPU      4.85s WALL (       1 calls)
     potinit      :      0.55s CPU      0.73s WALL (       1 calls)
     hinit0       :      1.62s CPU      1.73s WALL (       1 calls)

     Called by electrons:
     c_bands      :    939.96s CPU    994.49s WALL (      55 calls)
     sum_band     :    135.53s CPU    148.30s WALL (      55 calls)
     v_of_rho     :     17.38s CPU     19.67s WALL (      56 calls)
     newd         :     37.32s CPU     44.62s WALL (      56 calls)
     mix_rho      :     25.10s CPU     26.05s WALL (      55 calls)
     energy_londo :      0.08s CPU      0.08s WALL (       1 calls)

     Called by c_bands:
     init_us_2    :      1.38s CPU      1.49s WALL (     224 calls)
     init_us_2:cp :      1.38s CPU      1.49s WALL (     224 calls)
     regterg      :    927.65s CPU    981.32s WALL (     110 calls)

     Called by *egterg:
     rdiaghg      :    276.29s CPU    295.86s WALL (     571 calls)
     h_psi        :    333.80s CPU    351.68s WALL (     573 calls)
     s_psi        :     36.23s CPU     37.61s WALL (     573 calls)
     g_psi        :      0.26s CPU      0.26s WALL (     461 calls)

     Called by h_psi:
     h_psi:calbec :     74.00s CPU     80.11s WALL (     573 calls)
     vloc_psi     :    222.00s CPU    231.95s WALL (     573 calls)
     add_vuspsi   :     37.42s CPU     39.22s WALL (     573 calls)

     General routines
     calbec       :    109.73s CPU    118.28s WALL (     691 calls)
     fft          :     30.25s CPU     33.33s WALL (    1021 calls)
     ffts         :     12.33s CPU     12.71s WALL (    6809 calls)
     fftw         :    261.56s CPU    273.71s WALL (  187870 calls)
     interpolate  :      1.80s CPU      1.97s WALL (     112 calls)
 
     Parallel routines
 
     PWSCF        :  19m31.95s CPU  20m51.08s WALL

 
   This run was terminated on:   0:11:44  18Nov2025            

=------------------------------------------------------------------------------=
   JOB DONE.
=------------------------------------------------------------------------------=
