
     Program PWSCF v.7.2 starts on 17Nov2025 at 23:23:39 

     This program is part of the open-source Quantum ESPRESSO suite
     for quantum simulation of materials; please cite
         "P. Giannozzi et al., J. Phys.:Condens. Matter 21 395502 (2009);
         "P. Giannozzi et al., J. Phys.:Condens. Matter 29 465901 (2017);
         "P. Giannozzi et al., J. Chem. Phys. 152 154105 (2020);
          URL http://www.quantum-espresso.org", 
     in publications or presentations arising from this work. More details at
     http://www.quantum-espresso.org/quote

     Parallel version (MPI), running on    64 processors

     MPI processes distributed on     4 nodes
     486092 MiB available memory on the printing compute node when the environment starts
 
     Reading input from PWINPUT_atm157_zm

     Current dimensions of program PWSCF are:
     Max number of different atomic species (ntypx) = 10
     Max number of k-points (npk) =  40000
     Max angular momentum in pseudopotentials (lmaxx) =  4
     Presently no symmetry can be used with electric field

     file Ni.pbe-n-rrkjus_psl.1.0.0.UPF: wavefunction(s)  3D renormalized
     file Mn.pbe-spn-rrkjus_psl.0.3.1.UPF: wavefunction(s)  3D renormalized
     file O.pbe-rrkjus.UPF: wavefunction(s)  2S renormalized
     file H.pbe-rrkjus.UPF: wavefunction(s)  1S renormalized

     gamma-point specific algorithms are used
 
     R & G space division:  proc/nbgrp/npool/nimage =      64
     Subspace diagonalization in iterative solution of the eigenvalue problem:
     one sub-group per band group will be used
     custom distributed-memory algorithm (size of sub-group:  7*  7 procs)

 
     Parallelization info
     --------------------
     sticks:   dense  smooth     PW     G-vecs:    dense   smooth      PW
     Min         207      82     20                60552    15302    1896
     Max         210      84     22                60574    15336    1950
     Sum       13325    5345   1333              3876045   980655  122653
 
     Using Slab Decomposition
 


     bravais-lattice index     =            0
     lattice parameter (alat)  =      17.4067  a.u.
     unit-cell volume          =   20529.8182 (a.u.)^3
     number of atoms/cell      =          158
     number of atomic types    =            5
     number of electrons       =      1093.00
     number of Kohn-Sham states=          656
     kinetic-energy cutoff     =      50.0000  Ry
     charge density cutoff     =     500.0000  Ry
     scf convergence threshold =      1.0E-06
     mixing beta               =       0.1000
     number of iterations used =            8  local-TF  mixing
     Exchange-correlation=  SLA  PW   PBE  PBE
                           (   1   4   3   4   0   0   0)

     celldm(1)=  17.406729  celldm(2)=   0.000000  celldm(3)=   0.000000
     celldm(4)=   0.000000  celldm(5)=   0.000000  celldm(6)=   0.000000

     crystal axes: (cart. coord. in units of alat)
               a(1) = (   1.000000   0.000000   0.000000 )  
               a(2) = (  -0.001404   1.105696   0.000000 )  
               a(3) = (   0.000000   0.000000   3.520448 )  

     reciprocal axes: (cart. coord. in units 2 pi/alat)
               b(1) = (  1.000000  0.001270  0.000000 )  
               b(2) = (  0.000000  0.904408  0.000000 )  
               b(3) = (  0.000000  0.000000  0.284055 )  


     PseudoPot. # 1 for Ni read from file:
     ~/PSEUDO/Ni.pbe-n-rrkjus_psl.1.0.0.UPF
     MD5 check sum: Not computed, couldn't open file
     Pseudo is Ultrasoft + core correction, Zval = 10.0
     Generated using "atomic" code by A. Dal Corso  v.5.1.2
     Using radial grid of 1195 points,  6 beta functions with: 
                l(1) =   0
                l(2) =   0
                l(3) =   1
                l(4) =   1
                l(5) =   2
                l(6) =   2
     Q(r) pseudized with 0 coefficients 


     PseudoPot. # 2 for Mn read from file:
     ~/PSEUDO/Mn.pbe-spn-rrkjus_psl.0.3.1.UPF
     MD5 check sum: Not computed, couldn't open file
     Pseudo is Ultrasoft + core correction, Zval = 15.0
     Generated using &quot;atomic&quot; code by A. Dal Corso  v.6.2.2
     Using radial grid of 1187 points,  6 beta functions with: 
                l(1) =   0
                l(2) =   0
                l(3) =   1
                l(4) =   1
                l(5) =   2
                l(6) =   2
     Q(r) pseudized with 0 coefficients 


     PseudoPot. # 3 for P  read from file:
     ~/PSEUDO/P.pbe-n-rrkjus_psl.1.0.0.UPF
     MD5 check sum: Not computed, couldn't open file
     Pseudo is Ultrasoft + core correction, Zval =  5.0
     Generated using "atomic" code by A. Dal Corso  v.5.1
     Using radial grid of 1147 points,  6 beta functions with: 
                l(1) =   0
                l(2) =   0
                l(3) =   1
                l(4) =   1
                l(5) =   2
                l(6) =   2
     Q(r) pseudized with 0 coefficients 


     PseudoPot. # 4 for O  read from file:
     ~/PSEUDO/O.pbe-rrkjus.UPF
     MD5 check sum: Not computed, couldn't open file
     Pseudo is Ultrasoft, Zval =  6.0
     Generated by new atomic code, or converted to UPF format
     Using radial grid of 1269 points,  4 beta functions with: 
                l(1) =   0
                l(2) =   0
                l(3) =   1
                l(4) =   1
     Q(r) pseudized with 0 coefficients 


     PseudoPot. # 5 for H  read from file:
     ~/PSEUDO/H.pbe-rrkjus.UPF
     MD5 check sum: Not computed, couldn't open file
     Pseudo is Ultrasoft, Zval =  1.0
     Generated by new atomic code, or converted to UPF format
     Using radial grid of 1061 points,  2 beta functions with: 
                l(1) =   0
                l(2) =   0
     Q(r) pseudized with 0 coefficients 


     atomic species   valence    mass     pseudopotential
     Ni               10.00    58.69300     Ni( 1.00)
     Mn               15.00    54.93800     Mn( 1.00)
     P                 5.00    30.97300     P ( 1.00)
     O                 6.00    15.99900     O ( 1.00)
     H                 1.00     1.00790     H ( 1.00)

     Starting magnetic structure 
     atomic species   magnetization
     Ni              1.000
     Mn              1.000
     P               1.000
     O               1.000
     H               0.000

     No symmetry found



   Cartesian axes

     site n.     atom                  positions (alat units)
         1        Ni     tau(   1) = (   0.2421002   0.8609138   0.1302181  )
         2        Mn     tau(   2) = (   0.4924481   0.7886602   0.4655392  )
         3        Ni     tau(   3) = (   0.0052341   0.3031820   0.1284544  )
         4        Ni     tau(   4) = (   0.2570603   0.2374878   0.4617901  )
         5        Ni     tau(   5) = (   0.4976584   1.1048203   0.2964410  )
         6        Ni     tau(   6) = (   0.2495781   0.5440308   0.2953805  )
         7        P      tau(   7) = (   0.2083492   0.9982113   0.4588145  )
         8        P      tau(   8) = (   0.4584476   0.6559264   0.1347090  )
         9        P      tau(   9) = (   0.2889394   0.1031966   0.1319347  )
        10        P      tau(  10) = (   0.0400379   0.4338094   0.4586283  )
        11        O      tau(  11) = (   0.1314218   0.9248062   0.3189972  )
        12        O      tau(  12) = (   0.3797244   0.7272031   0.2742874  )
        13        O      tau(  13) = (   0.3662315   0.1762062   0.2720888  )
        14        O      tau(  14) = (   0.1171240   0.3646150   0.3169340  )
        15        O      tau(  15) = (   0.1510364   0.9068326   0.5881934  )
        16        O      tau(  16) = (   0.3981989   0.7453439   0.0053495  )
        17        O      tau(  17) = (   0.3490561   0.1888693   0.0010856  )
        18        O      tau(  18) = (   0.0982395   0.3475583   0.5894443  )
        19        O      tau(  19) = (   0.0992163   0.5918099   0.4542505  )
        20        O      tau(  20) = (   0.3467441   1.0504690   0.1405000  )
        21        O      tau(  21) = (   0.3739183   0.4303319   0.4477971  )
        22        O      tau(  22) = (   0.1230967   0.1088895   0.1422960  )
        23        O      tau(  23) = (   0.1242901   0.6635968   0.1442928  )
        24        O      tau(  24) = (   0.4011802   0.4971632   0.1376281  )
        25        O      tau(  25) = (   0.1484006   0.0497464   0.4550965  )
        26        O      tau(  26) = (   0.3736100   0.9942556   0.4492158  )
        27        Ni     tau(  27) = (   0.2413539   0.8509941   0.7820408  )
        28        Mn     tau(  28) = (   0.4917018   0.7787406   1.1173619  )
        29        Ni     tau(  29) = (   0.0044877   0.2932623   0.7802771  )
        30        Ni     tau(  30) = (   0.2563139   0.2275682   1.1136128  )
        31        Ni     tau(  31) = (   0.4969120   1.0949007   0.9482637  )
        32        Ni     tau(  32) = (   0.2488318   0.5341111   0.9472032  )
        33        P      tau(  33) = (   0.2076029   0.9882917   1.1106372  )
        34        P      tau(  34) = (   0.4577012   0.6460068   0.7865316  )
        35        P      tau(  35) = (   0.2881931   0.0932770   0.7837574  )
        36        P      tau(  36) = (   0.0392916   0.4238898   1.1104509  )
        37        O      tau(  37) = (   0.1306755   0.9148866   0.9708199  )
        38        O      tau(  38) = (   0.3789780   0.7172835   0.9261101  )
        39        O      tau(  39) = (   0.3654852   0.1662865   0.9239115  )
        40        O      tau(  40) = (   0.1163776   0.3546954   0.9687567  )
        41        O      tau(  41) = (   0.1502901   0.8969129   1.2400160  )
        42        O      tau(  42) = (   0.3974525   0.7354243   0.6571722  )
        43        O      tau(  43) = (   0.3483097   0.1789497   0.6529083  )
        44        O      tau(  44) = (   0.0974932   0.3376387   1.2412670  )
        45        O      tau(  45) = (   0.0984699   0.5818903   1.1060732  )
        46        O      tau(  46) = (   0.3459978   1.0405493   0.7923226  )
        47        O      tau(  47) = (   0.3731719   0.4204123   1.0996198  )
        48        O      tau(  48) = (   0.1223503   0.0989699   0.7941187  )
        49        O      tau(  49) = (   0.1235438   0.6536772   0.7961155  )
        50        O      tau(  50) = (   0.4004339   0.4872435   0.7894508  )
        51        O      tau(  51) = (   0.1476543   0.0398268   1.1069192  )
        52        O      tau(  52) = (   0.3728637   0.9843360   1.1010385  )
        53        Ni     tau(  53) = (   0.2411808   0.8324089   1.4309579  )
        54        Mn     tau(  54) = (   0.4946671   0.7639191   1.7613784  )
        55        Ni     tau(  55) = (   0.0045903   0.2758768   1.4289237  )
        56        Ni     tau(  56) = (   0.2582374   0.2038640   1.7770492  )
        57        Ni     tau(  57) = (   0.4995768   1.0765738   1.5968468  )
        58        Ni     tau(  58) = (   0.2446418   0.5161336   1.5986178  )
        59        P      tau(  59) = (   0.2110282   0.9624759   1.7570741  )
        60        P      tau(  60) = (   0.4555417   0.6266544   1.4355841  )
        61        P      tau(  61) = (   0.2894304   0.0771248   1.4326669  )
        62        P      tau(  62) = (   0.0328189   0.3995898   1.7561322  )
        63        O      tau(  63) = (   0.1349035   0.8971112   1.6106303  )
        64        O      tau(  64) = (   0.3788937   0.6993990   1.5743359  )
        65        O      tau(  65) = (   0.3659027   0.1511080   1.5708695  )
        66        O      tau(  66) = (   0.1105339   0.3441016   1.6092044  )
        67        O      tau(  67) = (   0.1557886   0.8603680   1.8762740  )
        68        O      tau(  68) = (   0.3942965   0.7173118   1.3080767  )
        69        O      tau(  69) = (   0.3497106   0.1654865   1.3026958  )
        70        O      tau(  70) = (   0.0882498   0.2997460   1.8754938  )
        71        O      tau(  71) = (   0.0879634   0.5612479   1.7635252  )
        72        O      tau(  72) = (   0.3490189   1.0246514   1.4369127  )
        73        O      tau(  73) = (   0.3670773   0.4040889   1.7520727  )
        74        O      tau(  74) = (   0.1226660   0.0818304   1.4423052  )
        75        O      tau(  75) = (   0.1225220   0.6345628   1.4463845  )
        76        O      tau(  76) = (   0.3964037   0.4688262   1.4379717  )
        77        O      tau(  77) = (   0.1495563   0.0133210   1.7552094  )
        78        O      tau(  78) = (   0.3782473   0.9569750   1.7438122  )
        79        Ni     tau(  79) = (   0.7421002   0.8609138   0.1302181  )
        80        Mn     tau(  80) = (   0.9924481   0.7886602   0.4655392  )
        81        Ni     tau(  81) = (   0.5052341   0.3031820   0.1284544  )
        82        Ni     tau(  82) = (   0.7570603   0.2374878   0.4617901  )
        83        Ni     tau(  83) = (   0.9976584   1.1048203   0.2964410  )
        84        Ni     tau(  84) = (   0.7495781   0.5440308   0.2953805  )
        85        P      tau(  85) = (   0.7083492   0.9982113   0.4588145  )
        86        P      tau(  86) = (   0.9584476   0.6559264   0.1347090  )
        87        P      tau(  87) = (   0.7889394   0.1031966   0.1319347  )
        88        P      tau(  88) = (   0.5400379   0.4338094   0.4586283  )
        89        O      tau(  89) = (   0.6314218   0.9248062   0.3189972  )
        90        O      tau(  90) = (   0.8797244   0.7272031   0.2742874  )
        91        O      tau(  91) = (   0.8662315   0.1762062   0.2720888  )
        92        O      tau(  92) = (   0.6171240   0.3646150   0.3169340  )
        93        O      tau(  93) = (   0.6510364   0.9068326   0.5881934  )
        94        O      tau(  94) = (   0.8981989   0.7453439   0.0053495  )
        95        O      tau(  95) = (   0.8490561   0.1888693   0.0010856  )
        96        O      tau(  96) = (   0.5982395   0.3475583   0.5894443  )
        97        O      tau(  97) = (   0.5992163   0.5918099   0.4542505  )
        98        O      tau(  98) = (   0.8467441   1.0504690   0.1405000  )
        99        O      tau(  99) = (   0.8739183   0.4303319   0.4477971  )
       100        O      tau( 100) = (   0.6230967   0.1088895   0.1422960  )
       101        O      tau( 101) = (   0.6242901   0.6635968   0.1442928  )
       102        O      tau( 102) = (   0.9011802   0.4971632   0.1376281  )
       103        O      tau( 103) = (   0.6484006   0.0497464   0.4550965  )
       104        O      tau( 104) = (   0.8736100   0.9942556   0.4492158  )
       105        Ni     tau( 105) = (   0.7413539   0.8509941   0.7820408  )
       106        Mn     tau( 106) = (   0.9917018   0.7787406   1.1173619  )
       107        Ni     tau( 107) = (   0.5044877   0.2932623   0.7802771  )
       108        Ni     tau( 108) = (   0.7563139   0.2275682   1.1136128  )
       109        Ni     tau( 109) = (   0.9969120   1.0949007   0.9482637  )
       110        Ni     tau( 110) = (   0.7488318   0.5341111   0.9472032  )
       111        P      tau( 111) = (   0.7076029   0.9882917   1.1106372  )
       112        P      tau( 112) = (   0.9577012   0.6460068   0.7865316  )
       113        P      tau( 113) = (   0.7881931   0.0932770   0.7837574  )
       114        P      tau( 114) = (   0.5392916   0.4238898   1.1104509  )
       115        O      tau( 115) = (   0.6306755   0.9148866   0.9708199  )
       116        O      tau( 116) = (   0.8789780   0.7172835   0.9261101  )
       117        O      tau( 117) = (   0.8654852   0.1662865   0.9239115  )
       118        O      tau( 118) = (   0.6163776   0.3546954   0.9687567  )
       119        O      tau( 119) = (   0.6502901   0.8969129   1.2400160  )
       120        O      tau( 120) = (   0.8974525   0.7354243   0.6571722  )
       121        O      tau( 121) = (   0.8483097   0.1789497   0.6529083  )
       122        O      tau( 122) = (   0.5974932   0.3376387   1.2412670  )
       123        O      tau( 123) = (   0.5984699   0.5818903   1.1060732  )
       124        O      tau( 124) = (   0.8459978   1.0405493   0.7923226  )
       125        O      tau( 125) = (   0.8731719   0.4204123   1.0996198  )
       126        O      tau( 126) = (   0.6223503   0.0989699   0.7941187  )
       127        O      tau( 127) = (   0.6235438   0.6536772   0.7961155  )
       128        O      tau( 128) = (   0.9004339   0.4872435   0.7894508  )
       129        O      tau( 129) = (   0.6476543   0.0398268   1.1069192  )
       130        O      tau( 130) = (   0.8728637   0.9843360   1.1010385  )
       131        Ni     tau( 131) = (   0.7410267   0.8325162   1.4305848  )
       132        Mn     tau( 132) = (   0.9957516   0.7600299   1.7607963  )
       133        Ni     tau( 133) = (   0.5040907   0.2758675   1.4300929  )
       134        Ni     tau( 134) = (   0.7492107   0.2133490   1.7410454  )
       135        Ni     tau( 135) = (   1.0009965   1.0739722   1.5938039  )
       136        Ni     tau( 136) = (   0.7435634   0.5197355   1.5956846  )
       137        P      tau( 137) = (   0.7125069   0.9656475   1.7574601  )
       138        P      tau( 138) = (   0.9562771   0.6261995   1.4348061  )
       139        P      tau( 139) = (   0.7897796   0.0749975   1.4289502  )
       140        P      tau( 140) = (   0.5344908   0.4056646   1.7624424  )
       141        O      tau( 141) = (   0.6363110   0.9022539   1.6111310  )
       142        O      tau( 142) = (   0.8791375   0.6993590   1.5736065  )
       143        O      tau( 143) = (   0.8677034   0.1479917   1.5677577  )
       144        O      tau( 144) = (   0.6096326   0.3453508   1.6130362  )
       145        O      tau( 145) = (   0.6538676   0.8663746   1.8771614  )
       146        O      tau( 146) = (   0.8948308   0.7180504   1.3081207  )
       147        O      tau( 147) = (   0.8505931   0.1642134   1.3003625  )
       148        O      tau( 148) = (   0.5994798   0.3097877   1.8805913  )
       149        O      tau( 149) = (   0.5905617   0.5666921   1.7630040  )
       150        O      tau( 150) = (   0.8496482   1.0230984   1.4339530  )
       151        O      tau( 151) = (   0.8648476   0.4011035   1.7429415  )
       152        O      tau( 152) = (   0.6235315   0.0826198   1.4430822  )
       153        O      tau( 153) = (   0.6220766   0.6363263   1.4460487  )
       154        O      tau( 154) = (   0.8951957   0.4690084   1.4354565  )
       155        O      tau( 155) = (   0.6579777   0.0195851   1.7588791  )
       156        O      tau( 156) = (   0.8798126   0.9576364   1.7467312  )
       157        O      tau( 157) = (   0.3700635   0.1197550   1.9157820  )
       158        H      tau( 158) = (   0.4553109   0.1803133   1.9415520  )

     -------------------------------------------------
     Parameters for Dispersion (Grimme-D2) Correction:
     -------------------------------------------------
       atom      VdW radius       C_6     

        Ni         2.952        374.666
        Mn         2.952        374.666
        P          3.222        271.980
        O          2.536         24.284
        H          1.892          4.857

     number of k points=     1  Gaussian smearing, width (Ry)=  0.0100
                       cart. coord. in units 2pi/alat
        k(    1) = (   0.0000000   0.0000000   0.0000000), wk =   1.0000000

     Dense  grid:  1938023 G-vectors     FFT dimensions: ( 125, 144, 450)

     Smooth grid:   490328 G-vectors     FFT dimensions: (  80,  90, 288)

     Estimated max dynamical RAM per process >     326.29 MB

     Estimated total dynamical RAM >      20.39 GB

     Check: negative core charge=   -0.000001
     Generating pointlists ...
     new r_m :   0.0813 (alat units)  1.4148 (a.u.) for type    1
     new r_m :   0.0904 (alat units)  1.5735 (a.u.) for type    2
     new r_m :   0.0681 (alat units)  1.1861 (a.u.) for type    3
     new r_m :   0.0444 (alat units)  0.7733 (a.u.) for type    4
     new r_m :   0.0444 (alat units)  0.7733 (a.u.) for type    5

     Initial potential from superposition of free atoms

     starting charge    1092.8893, renormalised to    1093.0000

     negative rho (up, down):  1.374E-03 4.518E-04
 
     Adding external electric field

     Computed dipole along edir(3) : 
        Dipole                1.6504 Ry au,          4.1949 Debye
        Dipole field          0.0010 Ry au, 
 
        Potential amp.       -0.1114 Ry
        Total length         55.1515 bohr
 
 
     Adding external electric field

     Computed dipole along edir(3) : 
        Dipole                1.6504 Ry au,          4.1949 Debye
        Dipole field          0.0010 Ry au, 
 
        Potential amp.       -0.1114 Ry
        Total length         55.1515 bohr
 
     Starting wfcs are  815 randomized atomic wfcs

     total cpu time spent up to now is       11.5 secs

     Self-consistent Calculation

     iteration #  1     ecut=    50.00 Ry     beta= 0.10
     Davidson diagonalization with overlap
     ethr =  1.00E-02,  avg # of iterations =  6.0

     negative rho (up, down):  3.844E-01 8.590E-07
 
     Adding external electric field

     Computed dipole along edir(3) : 
        Dipole               -3.6082 Ry au,         -9.1712 Debye
        Dipole field         -0.0022 Ry au, 
 
        Potential amp.        0.2436 Ry
        Total length         55.1515 bohr
 
 
     Adding external electric field

     Computed dipole along edir(3) : 
        Dipole               -3.6082 Ry au,         -9.1712 Debye
        Dipole field         -0.0022 Ry au, 
 
        Potential amp.        0.2436 Ry
        Total length         55.1515 bohr
 

     total cpu time spent up to now is       50.4 secs

     total energy              =   -7517.36024982 Ry
     estimated scf accuracy    <     750.61907153 Ry

     total magnetization       =   219.00 Bohr mag/cell
     absolute magnetization    =   307.89 Bohr mag/cell

     iteration #  2     ecut=    50.00 Ry     beta= 0.10
     Davidson diagonalization with overlap
     ethr =  1.00E-02,  avg # of iterations =  2.0

     negative rho (up, down):  3.626E-01 6.060E-07
 
     Adding external electric field

     Computed dipole along edir(3) : 
        Dipole               -2.4515 Ry au,         -6.2311 Debye
        Dipole field         -0.0015 Ry au, 
 
        Potential amp.        0.1655 Ry
        Total length         55.1515 bohr
 
 
     Adding external electric field

     Computed dipole along edir(3) : 
        Dipole               -2.4515 Ry au,         -6.2311 Debye
        Dipole field         -0.0015 Ry au, 
 
        Potential amp.        0.1655 Ry
        Total length         55.1515 bohr
 

     total cpu time spent up to now is       76.9 secs

     total energy              =   -7601.04959439 Ry
     estimated scf accuracy    <     200.80844659 Ry

     total magnetization       =   158.24 Bohr mag/cell
     absolute magnetization    =   206.84 Bohr mag/cell

     iteration #  3     ecut=    50.00 Ry     beta= 0.10
     Davidson diagonalization with overlap
     ethr =  1.00E-02,  avg # of iterations =  1.5

     negative rho (up, down):  3.207E-01 6.026E-07
 
     Adding external electric field

     Computed dipole along edir(3) : 
        Dipole               -2.1085 Ry au,         -5.3594 Debye
        Dipole field         -0.0013 Ry au, 
 
        Potential amp.        0.1424 Ry
        Total length         55.1515 bohr
 
 
     Adding external electric field

     Computed dipole along edir(3) : 
        Dipole               -2.1085 Ry au,         -5.3594 Debye
        Dipole field         -0.0013 Ry au, 
 
        Potential amp.        0.1424 Ry
        Total length         55.1515 bohr
 

     total cpu time spent up to now is       96.9 secs

     total energy              =   -7631.74145332 Ry
     estimated scf accuracy    <     101.30756808 Ry

     total magnetization       =   134.61 Bohr mag/cell
     absolute magnetization    =   185.92 Bohr mag/cell

     iteration #  4     ecut=    50.00 Ry     beta= 0.10
     Davidson diagonalization with overlap
     ethr =  9.27E-03,  avg # of iterations =  1.5

     negative rho (up, down):  2.509E-01 2.897E-07
 
     Adding external electric field

     Computed dipole along edir(3) : 
        Dipole               -2.0312 Ry au,         -5.1627 Debye
        Dipole field         -0.0012 Ry au, 
 
        Potential amp.        0.1371 Ry
        Total length         55.1515 bohr
 
 
     Adding external electric field

     Computed dipole along edir(3) : 
        Dipole               -2.0312 Ry au,         -5.1627 Debye
        Dipole field         -0.0012 Ry au, 
 
        Potential amp.        0.1371 Ry
        Total length         55.1515 bohr
 

     total cpu time spent up to now is      127.7 secs

     total energy              =   -7663.37952860 Ry
     estimated scf accuracy    <      81.24041974 Ry

     total magnetization       =   118.35 Bohr mag/cell
     absolute magnetization    =   171.34 Bohr mag/cell

     iteration #  5     ecut=    50.00 Ry     beta= 0.10
     Davidson diagonalization with overlap
     ethr =  7.43E-03,  avg # of iterations =  1.0

     negative rho (up, down):  2.613E-02 1.660E-06
 
     Adding external electric field

     Computed dipole along edir(3) : 
        Dipole               -1.6138 Ry au,         -4.1018 Debye
        Dipole field         -0.0010 Ry au, 
 
        Potential amp.        0.1090 Ry
        Total length         55.1515 bohr
 
 
     Adding external electric field

     Computed dipole along edir(3) : 
        Dipole               -1.6138 Ry au,         -4.1018 Debye
        Dipole field         -0.0010 Ry au, 
 
        Potential amp.        0.1090 Ry
        Total length         55.1515 bohr
 

     total cpu time spent up to now is      147.0 secs

     total energy              =   -7723.20977531 Ry
     estimated scf accuracy    <      65.44686158 Ry

     total magnetization       =    97.29 Bohr mag/cell
     absolute magnetization    =   153.25 Bohr mag/cell

     iteration #  6     ecut=    50.00 Ry     beta= 0.10
     Davidson diagonalization with overlap
     ethr =  5.99E-03,  avg # of iterations =  1.0

     negative rho (up, down):  9.931E-04 1.403E-03
 
     Adding external electric field

     Computed dipole along edir(3) : 
        Dipole               -1.1875 Ry au,         -3.0183 Debye
        Dipole field         -0.0007 Ry au, 
 
        Potential amp.        0.0802 Ry
        Total length         55.1515 bohr
 
 
     Adding external electric field

     Computed dipole along edir(3) : 
        Dipole               -1.1875 Ry au,         -3.0183 Debye
        Dipole field         -0.0007 Ry au, 
 
        Potential amp.        0.0802 Ry
        Total length         55.1515 bohr
 

     total cpu time spent up to now is      165.8 secs

     total energy              =   -7735.75587858 Ry
     estimated scf accuracy    <      13.86934839 Ry

     total magnetization       =    91.00 Bohr mag/cell
     absolute magnetization    =   125.07 Bohr mag/cell

     iteration #  7     ecut=    50.00 Ry     beta= 0.10
     Davidson diagonalization with overlap
     ethr =  1.27E-03,  avg # of iterations =  5.5

     negative rho (up, down):  9.413E-04 1.346E-03
 
     Adding external electric field

     Computed dipole along edir(3) : 
        Dipole               -1.1773 Ry au,         -2.9924 Debye
        Dipole field         -0.0007 Ry au, 
 
        Potential amp.        0.0795 Ry
        Total length         55.1515 bohr
 
 
     Adding external electric field

     Computed dipole along edir(3) : 
        Dipole               -1.1773 Ry au,         -2.9924 Debye
        Dipole field         -0.0007 Ry au, 
 
        Potential amp.        0.0795 Ry
        Total length         55.1515 bohr
 

     total cpu time spent up to now is      196.2 secs

     total energy              =   -7738.36304011 Ry
     estimated scf accuracy    <      25.41712266 Ry

     total magnetization       =    70.51 Bohr mag/cell
     absolute magnetization    =    87.77 Bohr mag/cell

     iteration #  8     ecut=    50.00 Ry     beta= 0.10
     Davidson diagonalization with overlap
     ethr =  1.27E-03,  avg # of iterations =  1.0

     negative rho (up, down):  8.081E-04 1.164E-03
 
     Adding external electric field

     Computed dipole along edir(3) : 
        Dipole               -1.1599 Ry au,         -2.9482 Debye
        Dipole field         -0.0007 Ry au, 
 
        Potential amp.        0.0783 Ry
        Total length         55.1515 bohr
 
 
     Adding external electric field

     Computed dipole along edir(3) : 
        Dipole               -1.1599 Ry au,         -2.9482 Debye
        Dipole field         -0.0007 Ry au, 
 
        Potential amp.        0.0783 Ry
        Total length         55.1515 bohr
 

     total cpu time spent up to now is      215.4 secs

     total energy              =   -7738.32253209 Ry
     estimated scf accuracy    <      24.60717602 Ry

     total magnetization       =    70.71 Bohr mag/cell
     absolute magnetization    =    87.65 Bohr mag/cell

     iteration #  9     ecut=    50.00 Ry     beta= 0.10
     Davidson diagonalization with overlap
     ethr =  1.27E-03,  avg # of iterations =  1.0

     negative rho (up, down):  4.024E-04 9.674E-04
 
     Adding external electric field

     Computed dipole along edir(3) : 
        Dipole               -0.9934 Ry au,         -2.5248 Debye
        Dipole field         -0.0006 Ry au, 
 
        Potential amp.        0.0671 Ry
        Total length         55.1515 bohr
 
 
     Adding external electric field

     Computed dipole along edir(3) : 
        Dipole               -0.9934 Ry au,         -2.5248 Debye
        Dipole field         -0.0006 Ry au, 
 
        Potential amp.        0.0671 Ry
        Total length         55.1515 bohr
 

     total cpu time spent up to now is      234.5 secs

     total energy              =   -7737.47537970 Ry
     estimated scf accuracy    <      22.96582335 Ry

     total magnetization       =    70.98 Bohr mag/cell
     absolute magnetization    =    87.44 Bohr mag/cell

     iteration # 10     ecut=    50.00 Ry     beta= 0.10
     Davidson diagonalization with overlap
     ethr =  1.27E-03,  avg # of iterations =  1.0

     negative rho (up, down):  5.449E-04 1.571E-03
 
     Adding external electric field

     Computed dipole along edir(3) : 
        Dipole               -0.9329 Ry au,         -2.3712 Debye
        Dipole field         -0.0006 Ry au, 
 
        Potential amp.        0.0630 Ry
        Total length         55.1515 bohr
 
 
     Adding external electric field

     Computed dipole along edir(3) : 
        Dipole               -0.9329 Ry au,         -2.3712 Debye
        Dipole field         -0.0006 Ry au, 
 
        Potential amp.        0.0630 Ry
        Total length         55.1515 bohr
 

     total cpu time spent up to now is      250.8 secs

     total energy              =   -7737.84368000 Ry
     estimated scf accuracy    <       3.59307074 Ry

     total magnetization       =    83.02 Bohr mag/cell
     absolute magnetization    =    94.36 Bohr mag/cell

     iteration # 11     ecut=    50.00 Ry     beta= 0.10
     Davidson diagonalization with overlap
     ethr =  3.29E-04,  avg # of iterations =  2.0

     negative rho (up, down):  3.980E-04 1.298E-03
 
     Adding external electric field

     Computed dipole along edir(3) : 
        Dipole               -0.9244 Ry au,         -2.3495 Debye
        Dipole field         -0.0006 Ry au, 
 
        Potential amp.        0.0624 Ry
        Total length         55.1515 bohr
 
 
     Adding external electric field

     Computed dipole along edir(3) : 
        Dipole               -0.9244 Ry au,         -2.3495 Debye
        Dipole field         -0.0006 Ry au, 
 
        Potential amp.        0.0624 Ry
        Total length         55.1515 bohr
 

     total cpu time spent up to now is      271.5 secs

     total energy              =   -7737.90886846 Ry
     estimated scf accuracy    <       0.95888772 Ry

     total magnetization       =    86.83 Bohr mag/cell
     absolute magnetization    =    96.68 Bohr mag/cell

     iteration # 12     ecut=    50.00 Ry     beta= 0.10
     Davidson diagonalization with overlap
     ethr =  8.77E-05,  avg # of iterations =  9.0

     negative rho (up, down):  2.162E-04 9.251E-04
 
     Adding external electric field

     Computed dipole along edir(3) : 
        Dipole               -0.8266 Ry au,         -2.1010 Debye
        Dipole field         -0.0005 Ry au, 
 
        Potential amp.        0.0558 Ry
        Total length         55.1515 bohr
 
 
     Adding external electric field

     Computed dipole along edir(3) : 
        Dipole               -0.8266 Ry au,         -2.1010 Debye
        Dipole field         -0.0005 Ry au, 
 
        Potential amp.        0.0558 Ry
        Total length         55.1515 bohr
 

     total cpu time spent up to now is      310.3 secs

     total energy              =   -7738.02466764 Ry
     estimated scf accuracy    <       0.89527322 Ry

     total magnetization       =    86.65 Bohr mag/cell
     absolute magnetization    =    95.82 Bohr mag/cell

     iteration # 13     ecut=    50.00 Ry     beta= 0.10
     Davidson diagonalization with overlap
     ethr =  8.19E-05,  avg # of iterations =  1.5

     negative rho (up, down):  1.185E-04 6.278E-04
 
     Adding external electric field

     Computed dipole along edir(3) : 
        Dipole               -0.7255 Ry au,         -1.8441 Debye
        Dipole field         -0.0004 Ry au, 
 
        Potential amp.        0.0490 Ry
        Total length         55.1515 bohr
 
 
     Adding external electric field

     Computed dipole along edir(3) : 
        Dipole               -0.7255 Ry au,         -1.8441 Debye
        Dipole field         -0.0004 Ry au, 
 
        Potential amp.        0.0490 Ry
        Total length         55.1515 bohr
 

     total cpu time spent up to now is      330.1 secs

     total energy              =   -7738.14301364 Ry
     estimated scf accuracy    <       0.53459154 Ry

     total magnetization       =    89.04 Bohr mag/cell
     absolute magnetization    =    96.19 Bohr mag/cell

     iteration # 14     ecut=    50.00 Ry     beta= 0.10
     Davidson diagonalization with overlap
     ethr =  4.89E-05,  avg # of iterations =  1.5

     negative rho (up, down):  6.657E-06 6.125E-05
 
     Adding external electric field

     Computed dipole along edir(3) : 
        Dipole               -0.4649 Ry au,         -1.1816 Debye
        Dipole field         -0.0003 Ry au, 
 
        Potential amp.        0.0314 Ry
        Total length         55.1515 bohr
 
 
     Adding external electric field

     Computed dipole along edir(3) : 
        Dipole               -0.4649 Ry au,         -1.1816 Debye
        Dipole field         -0.0003 Ry au, 
 
        Potential amp.        0.0314 Ry
        Total length         55.1515 bohr
 

     total cpu time spent up to now is      346.0 secs

     total energy              =   -7738.27341852 Ry
     estimated scf accuracy    <       0.57216205 Ry

     total magnetization       =    89.78 Bohr mag/cell
     absolute magnetization    =    95.32 Bohr mag/cell

     iteration # 15     ecut=    50.00 Ry     beta= 0.10
     Davidson diagonalization with overlap
     ethr =  4.89E-05,  avg # of iterations =  2.0

     negative rho (up, down):  9.830E-06 6.658E-05
 
     Adding external electric field

     Computed dipole along edir(3) : 
        Dipole               -0.4628 Ry au,         -1.1763 Debye
        Dipole field         -0.0003 Ry au, 
 
        Potential amp.        0.0312 Ry
        Total length         55.1515 bohr
 
 
     Adding external electric field

     Computed dipole along edir(3) : 
        Dipole               -0.4628 Ry au,         -1.1763 Debye
        Dipole field         -0.0003 Ry au, 
 
        Potential amp.        0.0312 Ry
        Total length         55.1515 bohr
 

     total cpu time spent up to now is      359.9 secs

     total energy              =   -7738.30996536 Ry
     estimated scf accuracy    <       0.72498055 Ry

     total magnetization       =    89.22 Bohr mag/cell
     absolute magnetization    =    92.11 Bohr mag/cell

     iteration # 16     ecut=    50.00 Ry     beta= 0.10
     Davidson diagonalization with overlap
     ethr =  4.89E-05,  avg # of iterations =  1.5

     negative rho (up, down):  8.478E-06 7.890E-05
 
     Adding external electric field

     Computed dipole along edir(3) : 
        Dipole               -0.4687 Ry au,         -1.1913 Debye
        Dipole field         -0.0003 Ry au, 
 
        Potential amp.        0.0316 Ry
        Total length         55.1515 bohr
 
 
     Adding external electric field

     Computed dipole along edir(3) : 
        Dipole               -0.4687 Ry au,         -1.1913 Debye
        Dipole field         -0.0003 Ry au, 
 
        Potential amp.        0.0316 Ry
        Total length         55.1515 bohr
 

     total cpu time spent up to now is      372.1 secs

     total energy              =   -7738.31148165 Ry
     estimated scf accuracy    <       0.75038999 Ry

     total magnetization       =    89.28 Bohr mag/cell
     absolute magnetization    =    92.05 Bohr mag/cell

     iteration # 17     ecut=    50.00 Ry     beta= 0.10
     Davidson diagonalization with overlap
     ethr =  4.89E-05,  avg # of iterations =  1.5

     negative rho (up, down):  4.783E-07 5.800E-05
 
     Adding external electric field

     Computed dipole along edir(3) : 
        Dipole               -0.4493 Ry au,         -1.1420 Debye
        Dipole field         -0.0003 Ry au, 
 
        Potential amp.        0.0303 Ry
        Total length         55.1515 bohr
 
 
     Adding external electric field

     Computed dipole along edir(3) : 
        Dipole               -0.4493 Ry au,         -1.1420 Debye
        Dipole field         -0.0003 Ry au, 
 
        Potential amp.        0.0303 Ry
        Total length         55.1515 bohr
 

     total cpu time spent up to now is      384.7 secs

     total energy              =   -7738.27821173 Ry
     estimated scf accuracy    <       0.63059103 Ry

     total magnetization       =    89.49 Bohr mag/cell
     absolute magnetization    =    92.01 Bohr mag/cell

     iteration # 18     ecut=    50.00 Ry     beta= 0.10
     Davidson diagonalization with overlap
     ethr =  4.89E-05,  avg # of iterations =  1.5

     negative rho (up, down):  3.152E-07 4.329E-05
 
     Adding external electric field

     Computed dipole along edir(3) : 
        Dipole               -0.4337 Ry au,         -1.1024 Debye
        Dipole field         -0.0003 Ry au, 
 
        Potential amp.        0.0293 Ry
        Total length         55.1515 bohr
 
 
     Adding external electric field

     Computed dipole along edir(3) : 
        Dipole               -0.4337 Ry au,         -1.1024 Debye
        Dipole field         -0.0003 Ry au, 
 
        Potential amp.        0.0293 Ry
        Total length         55.1515 bohr
 

     total cpu time spent up to now is      397.3 secs

     total energy              =   -7738.29345126 Ry
     estimated scf accuracy    <       0.17920700 Ry

     total magnetization       =    88.68 Bohr mag/cell
     absolute magnetization    =    90.55 Bohr mag/cell

     iteration # 19     ecut=    50.00 Ry     beta= 0.10
     Davidson diagonalization with overlap
     c_bands:  5 eigenvalues not converged
     ethr =  1.64E-05,  avg # of iterations = 11.0

     negative rho (up, down):  1.491E-07 3.160E-05
 
     Adding external electric field

     Computed dipole along edir(3) : 
        Dipole               -0.3716 Ry au,         -0.9445 Debye
        Dipole field         -0.0002 Ry au, 
 
        Potential amp.        0.0251 Ry
        Total length         55.1515 bohr
 
 
     Adding external electric field

     Computed dipole along edir(3) : 
        Dipole               -0.3716 Ry au,         -0.9445 Debye
        Dipole field         -0.0002 Ry au, 
 
        Potential amp.        0.0251 Ry
        Total length         55.1515 bohr
 

     total cpu time spent up to now is      419.1 secs

     total energy              =   -7738.29291506 Ry
     estimated scf accuracy    <       0.18080409 Ry

     total magnetization       =    88.55 Bohr mag/cell
     absolute magnetization    =    90.33 Bohr mag/cell

     iteration # 20     ecut=    50.00 Ry     beta= 0.10
     Davidson diagonalization with overlap
     ethr =  1.64E-05,  avg # of iterations =  2.0

     negative rho (up, down):  1.234E-07 2.706E-05
 
     Adding external electric field

     Computed dipole along edir(3) : 
        Dipole               -0.3495 Ry au,         -0.8882 Debye
        Dipole field         -0.0002 Ry au, 
 
        Potential amp.        0.0236 Ry
        Total length         55.1515 bohr
 
 
     Adding external electric field

     Computed dipole along edir(3) : 
        Dipole               -0.3495 Ry au,         -0.8882 Debye
        Dipole field         -0.0002 Ry au, 
 
        Potential amp.        0.0236 Ry
        Total length         55.1515 bohr
 

     total cpu time spent up to now is      432.9 secs

     total energy              =   -7738.29319423 Ry
     estimated scf accuracy    <       0.15121612 Ry

     total magnetization       =    88.78 Bohr mag/cell
     absolute magnetization    =    90.28 Bohr mag/cell

     iteration # 21     ecut=    50.00 Ry     beta= 0.10
     Davidson diagonalization with overlap
     ethr =  1.38E-05,  avg # of iterations =  1.5

     negative rho (up, down):  4.315E-07 3.769E-05
 
     Adding external electric field

     Computed dipole along edir(3) : 
        Dipole               -0.4478 Ry au,         -1.1381 Debye
        Dipole field         -0.0003 Ry au, 
 
        Potential amp.        0.0302 Ry
        Total length         55.1515 bohr
 
 
     Adding external electric field

     Computed dipole along edir(3) : 
        Dipole               -0.4478 Ry au,         -1.1381 Debye
        Dipole field         -0.0003 Ry au, 
 
        Potential amp.        0.0302 Ry
        Total length         55.1515 bohr
 

     total cpu time spent up to now is      445.6 secs

     total energy              =   -7738.29411100 Ry
     estimated scf accuracy    <       0.15139710 Ry

     total magnetization       =    88.70 Bohr mag/cell
     absolute magnetization    =    90.12 Bohr mag/cell

     iteration # 22     ecut=    50.00 Ry     beta= 0.10
     Davidson diagonalization with overlap
     ethr =  1.38E-05,  avg # of iterations =  2.0

     negative rho (up, down):  5.260E-08 5.824E-06
 
     Adding external electric field

     Computed dipole along edir(3) : 
        Dipole               -0.3602 Ry au,         -0.9155 Debye
        Dipole field         -0.0002 Ry au, 
 
        Potential amp.        0.0243 Ry
        Total length         55.1515 bohr
 
 
     Adding external electric field

     Computed dipole along edir(3) : 
        Dipole               -0.3602 Ry au,         -0.9155 Debye
        Dipole field         -0.0002 Ry au, 
 
        Potential amp.        0.0243 Ry
        Total length         55.1515 bohr
 

     total cpu time spent up to now is      459.9 secs

     total energy              =   -7738.29397277 Ry
     estimated scf accuracy    <       0.11846346 Ry

     total magnetization       =    87.78 Bohr mag/cell
     absolute magnetization    =    89.40 Bohr mag/cell

     iteration # 23     ecut=    50.00 Ry     beta= 0.10
     Davidson diagonalization with overlap
     ethr =  1.08E-05,  avg # of iterations =  1.5

     negative rho (up, down):  2.806E-08 1.111E-06
 
     Adding external electric field

     Computed dipole along edir(3) : 
        Dipole               -0.3831 Ry au,         -0.9738 Debye
        Dipole field         -0.0002 Ry au, 
 
        Potential amp.        0.0259 Ry
        Total length         55.1515 bohr
 
 
     Adding external electric field

     Computed dipole along edir(3) : 
        Dipole               -0.3831 Ry au,         -0.9738 Debye
        Dipole field         -0.0002 Ry au, 
 
        Potential amp.        0.0259 Ry
        Total length         55.1515 bohr
 

     total cpu time spent up to now is      473.2 secs

     total energy              =   -7738.29799730 Ry
     estimated scf accuracy    <       0.20865123 Ry

     total magnetization       =    88.38 Bohr mag/cell
     absolute magnetization    =    89.99 Bohr mag/cell

     iteration # 24     ecut=    50.00 Ry     beta= 0.10
     Davidson diagonalization with overlap
     ethr =  1.08E-05,  avg # of iterations =  9.5

     negative rho (up, down):  1.289E-07 1.281E-06
 
     Adding external electric field

     Computed dipole along edir(3) : 
        Dipole               -0.4092 Ry au,         -1.0400 Debye
        Dipole field         -0.0003 Ry au, 
 
        Potential amp.        0.0276 Ry
        Total length         55.1515 bohr
 
 
     Adding external electric field

     Computed dipole along edir(3) : 
        Dipole               -0.4092 Ry au,         -1.0400 Debye
        Dipole field         -0.0003 Ry au, 
 
        Potential amp.        0.0276 Ry
        Total length         55.1515 bohr
 

     total cpu time spent up to now is      490.9 secs

     total energy              =   -7738.30048394 Ry
     estimated scf accuracy    <       0.15727023 Ry

     total magnetization       =    88.53 Bohr mag/cell
     absolute magnetization    =    90.34 Bohr mag/cell

     iteration # 25     ecut=    50.00 Ry     beta= 0.10
     Davidson diagonalization with overlap
     ethr =  1.08E-05,  avg # of iterations =  1.5

     negative rho (up, down):  2.976E-07 3.991E-06
 
     Adding external electric field

     Computed dipole along edir(3) : 
        Dipole               -0.4178 Ry au,         -1.0618 Debye
        Dipole field         -0.0003 Ry au, 
 
        Potential amp.        0.0282 Ry
        Total length         55.1515 bohr
 
 
     Adding external electric field

     Computed dipole along edir(3) : 
        Dipole               -0.4178 Ry au,         -1.0618 Debye
        Dipole field         -0.0003 Ry au, 
 
        Potential amp.        0.0282 Ry
        Total length         55.1515 bohr
 

     total cpu time spent up to now is      504.2 secs

     total energy              =   -7738.30317553 Ry
     estimated scf accuracy    <       0.09946901 Ry

     total magnetization       =    87.72 Bohr mag/cell
     absolute magnetization    =    89.60 Bohr mag/cell

     iteration # 26     ecut=    50.00 Ry     beta= 0.10
     Davidson diagonalization with overlap
     ethr =  9.10E-06,  avg # of iterations =  1.5

     negative rho (up, down):  1.066E-07 1.097E-06
 
     Adding external electric field

     Computed dipole along edir(3) : 
        Dipole               -0.3988 Ry au,         -1.0136 Debye
        Dipole field         -0.0002 Ry au, 
 
        Potential amp.        0.0269 Ry
        Total length         55.1515 bohr
 
 
     Adding external electric field

     Computed dipole along edir(3) : 
        Dipole               -0.3988 Ry au,         -1.0136 Debye
        Dipole field         -0.0002 Ry au, 
 
        Potential amp.        0.0269 Ry
        Total length         55.1515 bohr
 

     total cpu time spent up to now is      517.6 secs

     total energy              =   -7738.30097737 Ry
     estimated scf accuracy    <       0.07597415 Ry

     total magnetization       =    87.70 Bohr mag/cell
     absolute magnetization    =    89.56 Bohr mag/cell

     iteration # 27     ecut=    50.00 Ry     beta= 0.10
     Davidson diagonalization with overlap
     ethr =  6.95E-06,  avg # of iterations =  1.5

     negative rho (up, down):  9.849E-08 1.239E-06
 
     Adding external electric field

     Computed dipole along edir(3) : 
        Dipole               -0.3825 Ry au,         -0.9722 Debye
        Dipole field         -0.0002 Ry au, 
 
        Potential amp.        0.0258 Ry
        Total length         55.1515 bohr
 
 
     Adding external electric field

     Computed dipole along edir(3) : 
        Dipole               -0.3825 Ry au,         -0.9722 Debye
        Dipole field         -0.0002 Ry au, 
 
        Potential amp.        0.0258 Ry
        Total length         55.1515 bohr
 

     total cpu time spent up to now is      531.3 secs

     total energy              =   -7738.30198801 Ry
     estimated scf accuracy    <       0.07624310 Ry

     total magnetization       =    88.28 Bohr mag/cell
     absolute magnetization    =    90.17 Bohr mag/cell

     iteration # 28     ecut=    50.00 Ry     beta= 0.10
     Davidson diagonalization with overlap
     ethr =  6.95E-06,  avg # of iterations =  1.5

     negative rho (up, down):  2.918E-07 3.415E-06
 
     Adding external electric field

     Computed dipole along edir(3) : 
        Dipole               -0.3514 Ry au,         -0.8930 Debye
        Dipole field         -0.0002 Ry au, 
 
        Potential amp.        0.0237 Ry
        Total length         55.1515 bohr
 
 
     Adding external electric field

     Computed dipole along edir(3) : 
        Dipole               -0.3514 Ry au,         -0.8930 Debye
        Dipole field         -0.0002 Ry au, 
 
        Potential amp.        0.0237 Ry
        Total length         55.1515 bohr
 

     total cpu time spent up to now is      544.4 secs

     total energy              =   -7738.30432738 Ry
     estimated scf accuracy    <       0.11919310 Ry

     total magnetization       =    88.42 Bohr mag/cell
     absolute magnetization    =    90.26 Bohr mag/cell

     iteration # 29     ecut=    50.00 Ry     beta= 0.10
     Davidson diagonalization with overlap
     ethr =  6.95E-06,  avg # of iterations =  2.0

     negative rho (up, down):  4.178E-07 3.437E-06
 
     Adding external electric field

     Computed dipole along edir(3) : 
        Dipole               -0.3329 Ry au,         -0.8460 Debye
        Dipole field         -0.0002 Ry au, 
 
        Potential amp.        0.0225 Ry
        Total length         55.1515 bohr
 
 
     Adding external electric field

     Computed dipole along edir(3) : 
        Dipole               -0.3329 Ry au,         -0.8460 Debye
        Dipole field         -0.0002 Ry au, 
 
        Potential amp.        0.0225 Ry
        Total length         55.1515 bohr
 

     total cpu time spent up to now is      558.5 secs

     total energy              =   -7738.30481730 Ry
     estimated scf accuracy    <       0.13438035 Ry

     total magnetization       =    88.41 Bohr mag/cell
     absolute magnetization    =    90.14 Bohr mag/cell

     iteration # 30     ecut=    50.00 Ry     beta= 0.10
     Davidson diagonalization with overlap
     ethr =  6.95E-06,  avg # of iterations =  1.5

     negative rho (up, down):  5.613E-07 3.555E-06
 
     Adding external electric field

     Computed dipole along edir(3) : 
        Dipole               -0.2772 Ry au,         -0.7047 Debye
        Dipole field         -0.0002 Ry au, 
 
        Potential amp.        0.0187 Ry
        Total length         55.1515 bohr
 
 
     Adding external electric field

     Computed dipole along edir(3) : 
        Dipole               -0.2772 Ry au,         -0.7047 Debye
        Dipole field         -0.0002 Ry au, 
 
        Potential amp.        0.0187 Ry
        Total length         55.1515 bohr
 

     total cpu time spent up to now is      571.8 secs

     total energy              =   -7738.30478806 Ry
     estimated scf accuracy    <       0.11825535 Ry

     total magnetization       =    88.33 Bohr mag/cell
     absolute magnetization    =    90.03 Bohr mag/cell

     iteration # 31     ecut=    50.00 Ry     beta= 0.10
     Davidson diagonalization with overlap
     ethr =  6.95E-06,  avg # of iterations =  2.0

     negative rho (up, down):  7.057E-07 4.315E-06
 
     Adding external electric field

     Computed dipole along edir(3) : 
        Dipole               -0.2038 Ry au,         -0.5181 Debye
        Dipole field         -0.0001 Ry au, 
 
        Potential amp.        0.0138 Ry
        Total length         55.1515 bohr
 
 
     Adding external electric field

     Computed dipole along edir(3) : 
        Dipole               -0.2038 Ry au,         -0.5181 Debye
        Dipole field         -0.0001 Ry au, 
 
        Potential amp.        0.0138 Ry
        Total length         55.1515 bohr
 

     total cpu time spent up to now is      585.8 secs

     total energy              =   -7738.30304992 Ry
     estimated scf accuracy    <       0.10904199 Ry

     total magnetization       =    88.25 Bohr mag/cell
     absolute magnetization    =    89.92 Bohr mag/cell

     iteration # 32     ecut=    50.00 Ry     beta= 0.10
     Davidson diagonalization with overlap
     ethr =  6.95E-06,  avg # of iterations =  1.5

     negative rho (up, down):  8.570E-07 4.491E-06
 
     Adding external electric field

     Computed dipole along edir(3) : 
        Dipole               -0.2296 Ry au,         -0.5835 Debye
        Dipole field         -0.0001 Ry au, 
 
        Potential amp.        0.0155 Ry
        Total length         55.1515 bohr
 
 
     Adding external electric field

     Computed dipole along edir(3) : 
        Dipole               -0.2296 Ry au,         -0.5835 Debye
        Dipole field         -0.0001 Ry au, 
 
        Potential amp.        0.0155 Ry
        Total length         55.1515 bohr
 

     total cpu time spent up to now is      598.5 secs

     total energy              =   -7738.30440116 Ry
     estimated scf accuracy    <       0.15094146 Ry

     total magnetization       =    88.26 Bohr mag/cell
     absolute magnetization    =    89.96 Bohr mag/cell

     iteration # 33     ecut=    50.00 Ry     beta= 0.10
     Davidson diagonalization with overlap
     ethr =  6.95E-06,  avg # of iterations =  1.0

     negative rho (up, down):  4.789E-06 1.799E-05
 
     Adding external electric field

     Computed dipole along edir(3) : 
        Dipole               -0.1555 Ry au,         -0.3953 Debye
        Dipole field         -0.0001 Ry au, 
 
        Potential amp.        0.0105 Ry
        Total length         55.1515 bohr
 
 
     Adding external electric field

     Computed dipole along edir(3) : 
        Dipole               -0.1555 Ry au,         -0.3953 Debye
        Dipole field         -0.0001 Ry au, 
 
        Potential amp.        0.0105 Ry
        Total length         55.1515 bohr
 

     total cpu time spent up to now is      613.6 secs

     total energy              =   -7738.30391117 Ry
     estimated scf accuracy    <       0.11505366 Ry

     total magnetization       =    88.23 Bohr mag/cell
     absolute magnetization    =    89.87 Bohr mag/cell

     iteration # 34     ecut=    50.00 Ry     beta= 0.10
     Davidson diagonalization with overlap
     ethr =  6.95E-06,  avg # of iterations =  2.0

     negative rho (up, down):  9.881E-06 3.415E-05
 
     Adding external electric field

     Computed dipole along edir(3) : 
        Dipole               -0.2362 Ry au,         -0.6004 Debye
        Dipole field         -0.0001 Ry au, 
 
        Potential amp.        0.0159 Ry
        Total length         55.1515 bohr
 
 
     Adding external electric field

     Computed dipole along edir(3) : 
        Dipole               -0.2362 Ry au,         -0.6004 Debye
        Dipole field         -0.0001 Ry au, 
 
        Potential amp.        0.0159 Ry
        Total length         55.1515 bohr
 

     total cpu time spent up to now is      632.9 secs

     total energy              =   -7738.30088711 Ry
     estimated scf accuracy    <       0.17329139 Ry

     total magnetization       =    88.31 Bohr mag/cell
     absolute magnetization    =    89.88 Bohr mag/cell

     iteration # 35     ecut=    50.00 Ry     beta= 0.10
     Davidson diagonalization with overlap
     ethr =  6.95E-06,  avg # of iterations =  1.5

     negative rho (up, down):  1.855E-06 4.408E-06
 
     Adding external electric field

     Computed dipole along edir(3) : 
        Dipole               -0.2799 Ry au,         -0.7114 Debye
        Dipole field         -0.0002 Ry au, 
 
        Potential amp.        0.0189 Ry
        Total length         55.1515 bohr
 
 
     Adding external electric field

     Computed dipole along edir(3) : 
        Dipole               -0.2799 Ry au,         -0.7114 Debye
        Dipole field         -0.0002 Ry au, 
 
        Potential amp.        0.0189 Ry
        Total length         55.1515 bohr
 

     total cpu time spent up to now is      650.1 secs

     total energy              =   -7738.30571439 Ry
     estimated scf accuracy    <       0.11148810 Ry

     total magnetization       =    88.16 Bohr mag/cell
     absolute magnetization    =    89.88 Bohr mag/cell

     iteration # 36     ecut=    50.00 Ry     beta= 0.10
     Davidson diagonalization with overlap
     ethr =  6.95E-06,  avg # of iterations =  1.5

     negative rho (up, down):  2.192E-06 2.172E-06
 
     Adding external electric field

     Computed dipole along edir(3) : 
        Dipole               -0.4385 Ry au,         -1.1146 Debye
        Dipole field         -0.0003 Ry au, 
 
        Potential amp.        0.0296 Ry
        Total length         55.1515 bohr
 
 
     Adding external electric field

     Computed dipole along edir(3) : 
        Dipole               -0.4385 Ry au,         -1.1146 Debye
        Dipole field         -0.0003 Ry au, 
 
        Potential amp.        0.0296 Ry
        Total length         55.1515 bohr
 

     total cpu time spent up to now is      668.2 secs

     total energy              =   -7738.30646048 Ry
     estimated scf accuracy    <       0.12145313 Ry

     total magnetization       =    88.46 Bohr mag/cell
     absolute magnetization    =    90.10 Bohr mag/cell

     iteration # 37     ecut=    50.00 Ry     beta= 0.10
     Davidson diagonalization with overlap
     ethr =  6.95E-06,  avg # of iterations =  1.5

     negative rho (up, down):  2.391E-06 2.291E-06
 
     Adding external electric field

     Computed dipole along edir(3) : 
        Dipole               -0.5458 Ry au,         -1.3872 Debye
        Dipole field         -0.0003 Ry au, 
 
        Potential amp.        0.0368 Ry
        Total length         55.1515 bohr
 
 
     Adding external electric field

     Computed dipole along edir(3) : 
        Dipole               -0.5458 Ry au,         -1.3872 Debye
        Dipole field         -0.0003 Ry au, 
 
        Potential amp.        0.0368 Ry
        Total length         55.1515 bohr
 

     total cpu time spent up to now is      683.9 secs

     total energy              =   -7738.30819048 Ry
     estimated scf accuracy    <       0.06089904 Ry

     total magnetization       =    88.21 Bohr mag/cell
     absolute magnetization    =    89.88 Bohr mag/cell

     iteration # 38     ecut=    50.00 Ry     beta= 0.10
     Davidson diagonalization with overlap
     ethr =  5.57E-06,  avg # of iterations =  2.0

     negative rho (up, down):  1.144E-06 2.364E-06
 
     Adding external electric field

     Computed dipole along edir(3) : 
        Dipole               -0.4134 Ry au,         -1.0507 Debye
        Dipole field         -0.0003 Ry au, 
 
        Potential amp.        0.0279 Ry
        Total length         55.1515 bohr
 
 
     Adding external electric field

     Computed dipole along edir(3) : 
        Dipole               -0.4134 Ry au,         -1.0507 Debye
        Dipole field         -0.0003 Ry au, 
 
        Potential amp.        0.0279 Ry
        Total length         55.1515 bohr
 

     total cpu time spent up to now is      703.7 secs

     total energy              =   -7738.30678888 Ry
     estimated scf accuracy    <       0.07911264 Ry

     total magnetization       =    88.39 Bohr mag/cell
     absolute magnetization    =    89.96 Bohr mag/cell

     iteration # 39     ecut=    50.00 Ry     beta= 0.10
     Davidson diagonalization with overlap
     ethr =  5.57E-06,  avg # of iterations =  1.0

     negative rho (up, down):  2.657E-06 1.364E-06
 
     Adding external electric field

     Computed dipole along edir(3) : 
        Dipole               -0.4665 Ry au,         -1.1858 Debye
        Dipole field         -0.0003 Ry au, 
 
        Potential amp.        0.0315 Ry
        Total length         55.1515 bohr
 
 
     Adding external electric field

     Computed dipole along edir(3) : 
        Dipole               -0.4665 Ry au,         -1.1858 Debye
        Dipole field         -0.0003 Ry au, 
 
        Potential amp.        0.0315 Ry
        Total length         55.1515 bohr
 

     total cpu time spent up to now is      725.2 secs

     total energy              =   -7738.30488506 Ry
     estimated scf accuracy    <       0.10691365 Ry

     total magnetization       =    88.53 Bohr mag/cell
     absolute magnetization    =    90.18 Bohr mag/cell

     iteration # 40     ecut=    50.00 Ry     beta= 0.10
     Davidson diagonalization with overlap
     ethr =  5.57E-06,  avg # of iterations =  2.0

     negative rho (up, down):  9.359E-06 6.439E-06
 
     Adding external electric field

     Computed dipole along edir(3) : 
        Dipole               -0.4972 Ry au,         -1.2637 Debye
        Dipole field         -0.0003 Ry au, 
 
        Potential amp.        0.0336 Ry
        Total length         55.1515 bohr
 
 
     Adding external electric field

     Computed dipole along edir(3) : 
        Dipole               -0.4972 Ry au,         -1.2637 Debye
        Dipole field         -0.0003 Ry au, 
 
        Potential amp.        0.0336 Ry
        Total length         55.1515 bohr
 

     total cpu time spent up to now is      746.7 secs

     total energy              =   -7738.30588141 Ry
     estimated scf accuracy    <       0.08991434 Ry

     total magnetization       =    88.29 Bohr mag/cell
     absolute magnetization    =    90.05 Bohr mag/cell

     iteration # 41     ecut=    50.00 Ry     beta= 0.10
     Davidson diagonalization with overlap
     ethr =  5.57E-06,  avg # of iterations =  1.5

     negative rho (up, down):  2.227E-05 1.267E-05
 
     Adding external electric field

     Computed dipole along edir(3) : 
        Dipole               -0.4718 Ry au,         -1.1991 Debye
        Dipole field         -0.0003 Ry au, 
 
        Potential amp.        0.0319 Ry
        Total length         55.1515 bohr
 
 
     Adding external electric field

     Computed dipole along edir(3) : 
        Dipole               -0.4718 Ry au,         -1.1991 Debye
        Dipole field         -0.0003 Ry au, 
 
        Potential amp.        0.0319 Ry
        Total length         55.1515 bohr
 

     total cpu time spent up to now is      770.7 secs

     total energy              =   -7738.30521947 Ry
     estimated scf accuracy    <       0.08336031 Ry

     total magnetization       =    88.39 Bohr mag/cell
     absolute magnetization    =    89.81 Bohr mag/cell

     iteration # 42     ecut=    50.00 Ry     beta= 0.10
     Davidson diagonalization with overlap
     ethr =  5.57E-06,  avg # of iterations =  1.5

     negative rho (up, down):  3.242E-05 3.055E-05
 
     Adding external electric field

     Computed dipole along edir(3) : 
        Dipole               -0.5278 Ry au,         -1.3415 Debye
        Dipole field         -0.0003 Ry au, 
 
        Potential amp.        0.0356 Ry
        Total length         55.1515 bohr
 
 
     Adding external electric field

     Computed dipole along edir(3) : 
        Dipole               -0.5278 Ry au,         -1.3415 Debye
        Dipole field         -0.0003 Ry au, 
 
        Potential amp.        0.0356 Ry
        Total length         55.1515 bohr
 

     total cpu time spent up to now is      789.0 secs

     total energy              =   -7738.30690279 Ry
     estimated scf accuracy    <       0.08763967 Ry

     total magnetization       =    88.45 Bohr mag/cell
     absolute magnetization    =    89.69 Bohr mag/cell

     iteration # 43     ecut=    50.00 Ry     beta= 0.10
     Davidson diagonalization with overlap
     ethr =  5.57E-06,  avg # of iterations =  1.5

     negative rho (up, down):  1.634E-05 1.711E-05
 
     Adding external electric field

     Computed dipole along edir(3) : 
        Dipole               -0.5219 Ry au,         -1.3266 Debye
        Dipole field         -0.0003 Ry au, 
 
        Potential amp.        0.0352 Ry
        Total length         55.1515 bohr
 
 
     Adding external electric field

     Computed dipole along edir(3) : 
        Dipole               -0.5219 Ry au,         -1.3266 Debye
        Dipole field         -0.0003 Ry au, 
 
        Potential amp.        0.0352 Ry
        Total length         55.1515 bohr
 

     total cpu time spent up to now is      802.7 secs

     total energy              =   -7738.30811431 Ry
     estimated scf accuracy    <       0.07401435 Ry

     total magnetization       =    88.26 Bohr mag/cell
     absolute magnetization    =    89.63 Bohr mag/cell

     iteration # 44     ecut=    50.00 Ry     beta= 0.10
     Davidson diagonalization with overlap
     ethr =  5.57E-06,  avg # of iterations =  2.0

     negative rho (up, down):  1.204E-05 1.438E-05
 
     Adding external electric field

     Computed dipole along edir(3) : 
        Dipole               -0.4942 Ry au,         -1.2562 Debye
        Dipole field         -0.0003 Ry au, 
 
        Potential amp.        0.0334 Ry
        Total length         55.1515 bohr
 
 
     Adding external electric field

     Computed dipole along edir(3) : 
        Dipole               -0.4942 Ry au,         -1.2562 Debye
        Dipole field         -0.0003 Ry au, 
 
        Potential amp.        0.0334 Ry
        Total length         55.1515 bohr
 

     total cpu time spent up to now is      816.7 secs

     total energy              =   -7738.30751759 Ry
     estimated scf accuracy    <       0.07465706 Ry

     total magnetization       =    88.25 Bohr mag/cell
     absolute magnetization    =    89.63 Bohr mag/cell

     iteration # 45     ecut=    50.00 Ry     beta= 0.10
     Davidson diagonalization with overlap
     ethr =  5.57E-06,  avg # of iterations =  1.5

     negative rho (up, down):  1.799E-05 1.374E-05
 
     Adding external electric field

     Computed dipole along edir(3) : 
        Dipole               -0.5378 Ry au,         -1.3671 Debye
        Dipole field         -0.0003 Ry au, 
 
        Potential amp.        0.0363 Ry
        Total length         55.1515 bohr
 
 
     Adding external electric field

     Computed dipole along edir(3) : 
        Dipole               -0.5378 Ry au,         -1.3671 Debye
        Dipole field         -0.0003 Ry au, 
 
        Potential amp.        0.0363 Ry
        Total length         55.1515 bohr
 

     total cpu time spent up to now is      829.9 secs

     total energy              =   -7738.30619392 Ry
     estimated scf accuracy    <       0.08453142 Ry

     total magnetization       =    88.24 Bohr mag/cell
     absolute magnetization    =    89.66 Bohr mag/cell

     iteration # 46     ecut=    50.00 Ry     beta= 0.10
     Davidson diagonalization with overlap
     ethr =  5.57E-06,  avg # of iterations =  1.5

     negative rho (up, down):  2.653E-05 2.075E-05
 
     Adding external electric field

     Computed dipole along edir(3) : 
        Dipole               -0.7239 Ry au,         -1.8400 Debye
        Dipole field         -0.0004 Ry au, 
 
        Potential amp.        0.0489 Ry
        Total length         55.1515 bohr
 
 
     Adding external electric field

     Computed dipole along edir(3) : 
        Dipole               -0.7239 Ry au,         -1.8400 Debye
        Dipole field         -0.0004 Ry au, 
 
        Potential amp.        0.0489 Ry
        Total length         55.1515 bohr
 

     total cpu time spent up to now is      843.9 secs

     total energy              =   -7738.30668406 Ry
     estimated scf accuracy    <       0.06572278 Ry

     total magnetization       =    88.48 Bohr mag/cell
     absolute magnetization    =    89.88 Bohr mag/cell

     iteration # 47     ecut=    50.00 Ry     beta= 0.10
     Davidson diagonalization with overlap
     ethr =  5.57E-06,  avg # of iterations =  2.0

     negative rho (up, down):  3.029E-05 2.416E-05
 
     Adding external electric field

     Computed dipole along edir(3) : 
        Dipole               -0.6116 Ry au,         -1.5545 Debye
        Dipole field         -0.0004 Ry au, 
 
        Potential amp.        0.0413 Ry
        Total length         55.1515 bohr
 
 
     Adding external electric field

     Computed dipole along edir(3) : 
        Dipole               -0.6116 Ry au,         -1.5545 Debye
        Dipole field         -0.0004 Ry au, 
 
        Potential amp.        0.0413 Ry
        Total length         55.1515 bohr
 

     total cpu time spent up to now is      863.9 secs

     total energy              =   -7738.30618529 Ry
     estimated scf accuracy    <       0.05880482 Ry

     total magnetization       =    88.48 Bohr mag/cell
     absolute magnetization    =    89.81 Bohr mag/cell

     iteration # 48     ecut=    50.00 Ry     beta= 0.10
     Davidson diagonalization with overlap
     ethr =  5.38E-06,  avg # of iterations =  1.0

     negative rho (up, down):  3.667E-05 3.470E-05
 
     Adding external electric field

     Computed dipole along edir(3) : 
        Dipole               -0.7105 Ry au,         -1.8059 Debye
        Dipole field         -0.0004 Ry au, 
 
        Potential amp.        0.0480 Ry
        Total length         55.1515 bohr
 
 
     Adding external electric field

     Computed dipole along edir(3) : 
        Dipole               -0.7105 Ry au,         -1.8059 Debye
        Dipole field         -0.0004 Ry au, 
 
        Potential amp.        0.0480 Ry
        Total length         55.1515 bohr
 

     total cpu time spent up to now is      879.5 secs

     total energy              =   -7738.30949835 Ry
     estimated scf accuracy    <       0.05989852 Ry

     total magnetization       =    88.52 Bohr mag/cell
     absolute magnetization    =    89.87 Bohr mag/cell

     iteration # 49     ecut=    50.00 Ry     beta= 0.10
     Davidson diagonalization with overlap
     ethr =  5.38E-06,  avg # of iterations =  1.5

     negative rho (up, down):  4.878E-05 4.081E-05
 
     Adding external electric field

     Computed dipole along edir(3) : 
        Dipole               -0.5964 Ry au,         -1.5159 Debye
        Dipole field         -0.0004 Ry au, 
 
        Potential amp.        0.0403 Ry
        Total length         55.1515 bohr
 
 
     Adding external electric field

     Computed dipole along edir(3) : 
        Dipole               -0.5964 Ry au,         -1.5159 Debye
        Dipole field         -0.0004 Ry au, 
 
        Potential amp.        0.0403 Ry
        Total length         55.1515 bohr
 

     total cpu time spent up to now is      897.5 secs

     total energy              =   -7738.30603837 Ry
     estimated scf accuracy    <       0.06180049 Ry

     total magnetization       =    88.50 Bohr mag/cell
     absolute magnetization    =    89.87 Bohr mag/cell

     iteration # 50     ecut=    50.00 Ry     beta= 0.10
     Davidson diagonalization with overlap
     ethr =  5.38E-06,  avg # of iterations =  1.0

     negative rho (up, down):  4.638E-05 3.939E-05
 
     Adding external electric field

     Computed dipole along edir(3) : 
        Dipole               -0.7295 Ry au,         -1.8543 Debye
        Dipole field         -0.0004 Ry au, 
 
        Potential amp.        0.0493 Ry
        Total length         55.1515 bohr
 
 
     Adding external electric field

     Computed dipole along edir(3) : 
        Dipole               -0.7295 Ry au,         -1.8543 Debye
        Dipole field         -0.0004 Ry au, 
 
        Potential amp.        0.0493 Ry
        Total length         55.1515 bohr
 

     total cpu time spent up to now is      911.4 secs

     total energy              =   -7738.30885256 Ry
     estimated scf accuracy    <       0.06420470 Ry

     total magnetization       =    88.46 Bohr mag/cell
     absolute magnetization    =    89.82 Bohr mag/cell

     iteration # 51     ecut=    50.00 Ry     beta= 0.10
     Davidson diagonalization with overlap
     ethr =  5.38E-06,  avg # of iterations =  1.5

     negative rho (up, down):  4.703E-05 4.139E-05
 
     Adding external electric field

     Computed dipole along edir(3) : 
        Dipole               -0.5042 Ry au,         -1.2814 Debye
        Dipole field         -0.0003 Ry au, 
 
        Potential amp.        0.0340 Ry
        Total length         55.1515 bohr
 
 
     Adding external electric field

     Computed dipole along edir(3) : 
        Dipole               -0.5042 Ry au,         -1.2814 Debye
        Dipole field         -0.0003 Ry au, 
 
        Potential amp.        0.0340 Ry
        Total length         55.1515 bohr
 

     total cpu time spent up to now is      929.2 secs

     total energy              =   -7738.30083156 Ry
     estimated scf accuracy    <       0.08050439 Ry

     total magnetization       =    88.53 Bohr mag/cell
     absolute magnetization    =    90.01 Bohr mag/cell

     iteration # 52     ecut=    50.00 Ry     beta= 0.10
     Davidson diagonalization with overlap
     ethr =  5.38E-06,  avg # of iterations =  1.5

     negative rho (up, down):  3.760E-05 3.544E-05
 
     Adding external electric field

     Computed dipole along edir(3) : 
        Dipole               -0.5302 Ry au,         -1.3475 Debye
        Dipole field         -0.0003 Ry au, 
 
        Potential amp.        0.0358 Ry
        Total length         55.1515 bohr
 
 
     Adding external electric field

     Computed dipole along edir(3) : 
        Dipole               -0.5302 Ry au,         -1.3475 Debye
        Dipole field         -0.0003 Ry au, 
 
        Potential amp.        0.0358 Ry
        Total length         55.1515 bohr
 

     total cpu time spent up to now is      951.0 secs

     total energy              =   -7738.30623244 Ry
     estimated scf accuracy    <       0.06730060 Ry

     total magnetization       =    88.52 Bohr mag/cell
     absolute magnetization    =    89.69 Bohr mag/cell

     iteration # 53     ecut=    50.00 Ry     beta= 0.10
     Davidson diagonalization with overlap
     ethr =  5.38E-06,  avg # of iterations =  1.0

     negative rho (up, down):  6.326E-05 5.273E-05
 
     Adding external electric field

     Computed dipole along edir(3) : 
        Dipole               -0.5209 Ry au,         -1.3241 Debye
        Dipole field         -0.0003 Ry au, 
 
        Potential amp.        0.0352 Ry
        Total length         55.1515 bohr
 
 
     Adding external electric field

     Computed dipole along edir(3) : 
        Dipole               -0.5209 Ry au,         -1.3241 Debye
        Dipole field         -0.0003 Ry au, 
 
        Potential amp.        0.0352 Ry
        Total length         55.1515 bohr
 

     total cpu time spent up to now is      970.6 secs

     total energy              =   -7738.30545322 Ry
     estimated scf accuracy    <       0.05492454 Ry

     total magnetization       =    88.48 Bohr mag/cell
     absolute magnetization    =    89.73 Bohr mag/cell

     iteration # 54     ecut=    50.00 Ry     beta= 0.10
     Davidson diagonalization with overlap
     ethr =  5.03E-06,  avg # of iterations =  1.0

     negative rho (up, down):  1.208E-04 1.026E-04
 
     Adding external electric field

     Computed dipole along edir(3) : 
        Dipole               -0.4800 Ry au,         -1.2199 Debye
        Dipole field         -0.0003 Ry au, 
 
        Potential amp.        0.0324 Ry
        Total length         55.1515 bohr
 
 
     Adding external electric field

     Computed dipole along edir(3) : 
        Dipole               -0.4800 Ry au,         -1.2199 Debye
        Dipole field         -0.0003 Ry au, 
 
        Potential amp.        0.0324 Ry
        Total length         55.1515 bohr
 

     total cpu time spent up to now is      984.4 secs

     total energy              =   -7738.30486180 Ry
     estimated scf accuracy    <       0.04898857 Ry

     total magnetization       =    88.51 Bohr mag/cell
     absolute magnetization    =    89.76 Bohr mag/cell

     iteration # 55     ecut=    50.00 Ry     beta= 0.10
     Davidson diagonalization with overlap
     ethr =  4.48E-06,  avg # of iterations =  1.5

     negative rho (up, down):  3.041E-04 3.155E-04
 
     Adding external electric field

     Computed dipole along edir(3) : 
        Dipole               -0.2279 Ry au,         -0.5794 Debye
        Dipole field         -0.0001 Ry au, 
 
        Potential amp.        0.0154 Ry
        Total length         55.1515 bohr
 
 
     Adding external electric field

     Computed dipole along edir(3) : 
        Dipole               -0.2279 Ry au,         -0.5794 Debye
        Dipole field         -0.0001 Ry au, 
 
        Potential amp.        0.0154 Ry
        Total length         55.1515 bohr
 

     total cpu time spent up to now is      997.5 secs

     total energy              =   -7738.30373002 Ry
     estimated scf accuracy    <       0.04159564 Ry

     total magnetization       =    88.52 Bohr mag/cell
     absolute magnetization    =    89.79 Bohr mag/cell

     iteration # 56     ecut=    50.00 Ry     beta= 0.10
     Davidson diagonalization with overlap
     ethr =  3.81E-06,  avg # of iterations =  2.5

     negative rho (up, down):  3.147E-04 3.556E-04
 
     Adding external electric field

     Computed dipole along edir(3) : 
        Dipole               -0.1114 Ry au,         -0.2833 Debye
        Dipole field         -0.0001 Ry au, 
 
        Potential amp.        0.0075 Ry
        Total length         55.1515 bohr
 
 
     Adding external electric field

     Computed dipole along edir(3) : 
        Dipole               -0.1114 Ry au,         -0.2833 Debye
        Dipole field         -0.0001 Ry au, 
 
        Potential amp.        0.0075 Ry
        Total length         55.1515 bohr
 

     total cpu time spent up to now is     1011.8 secs

     total energy              =   -7738.30269444 Ry
     estimated scf accuracy    <       0.02954923 Ry

     total magnetization       =    88.42 Bohr mag/cell
     absolute magnetization    =    89.80 Bohr mag/cell

     iteration # 57     ecut=    50.00 Ry     beta= 0.10
     Davidson diagonalization with overlap
     c_bands:  4 eigenvalues not converged
     ethr =  2.70E-06,  avg # of iterations = 24.5

     negative rho (up, down):  4.080E-04 4.164E-04
 
     Adding external electric field

     Computed dipole along edir(3) : 
        Dipole                0.1094 Ry au,          0.2781 Debye
        Dipole field          0.0001 Ry au, 
 
        Potential amp.       -0.0074 Ry
        Total length         55.1515 bohr
 
 
     Adding external electric field

     Computed dipole along edir(3) : 
        Dipole                0.1094 Ry au,          0.2781 Debye
        Dipole field          0.0001 Ry au, 
 
        Potential amp.       -0.0074 Ry
        Total length         55.1515 bohr
 

     total cpu time spent up to now is     1059.7 secs

     total energy              =   -7738.30203781 Ry
     estimated scf accuracy    <       0.02039657 Ry

     total magnetization       =    88.41 Bohr mag/cell
     absolute magnetization    =    89.83 Bohr mag/cell

     iteration # 58     ecut=    50.00 Ry     beta= 0.10
     Davidson diagonalization with overlap
     c_bands:  5 eigenvalues not converged
     c_bands:  3 eigenvalues not converged
     ethr =  1.87E-06,  avg # of iterations = 20.0

     negative rho (up, down):  5.352E-04 5.606E-04
 
     Adding external electric field

     Computed dipole along edir(3) : 
        Dipole                0.2257 Ry au,          0.5736 Debye
[...]
    -5.9140  -5.8962  -5.8832  -5.8744  -5.8621  -5.8401  -5.8322  -5.8027
    -5.7754  -5.7701  -5.7302  -5.7204  -5.7032  -5.6761  -5.6653  -5.6469
    -5.6291  -5.5983  -5.5531  -5.5484  -5.5242  -5.4930  -5.4781  -5.4677
    -5.4627  -5.4328  -5.4260  -5.3980  -5.3795  -5.3648  -5.3527  -5.3227
    -5.2050  -5.1951  -5.1784  -5.1716  -5.1577  -5.1324  -5.0685  -5.0263
    -5.0064  -4.9887  -4.9461  -4.9172  -4.9068  -4.8883  -4.8552  -4.8142
    -4.7890  -4.7340  -4.7234  -4.7084  -4.6696  -4.6535  -4.6210  -4.5435
    -4.5432  -4.4786  -4.4561  -4.3991  -4.3926  -4.3745  -4.3340  -4.3253
    -4.3090  -4.2598  -4.1879  -4.1774  -4.1422  -4.1148  -4.0962  -4.0717
    -4.0618  -4.0392  -4.0348  -3.9627  -3.9185  -3.8975  -3.8860  -3.8466
    -3.8275  -3.8082  -3.7644  -3.7544  -3.7503  -3.7180  -3.6950  -3.6585
    -3.6320  -3.5844  -3.5820  -3.5762  -3.5552  -3.5350  -3.5343  -3.5145
    -3.4983  -3.4753  -3.4540  -3.4499  -3.4389  -3.4262  -3.4006  -3.3861
    -3.3583  -3.3546  -3.3391  -3.3109  -3.3059  -3.2651  -3.2495  -3.2035
    -3.1995  -3.1886  -3.1809  -3.1628  -3.1538  -3.1002  -3.0760  -3.0540
    -3.0305  -3.0110  -3.0061  -2.9964  -2.9925  -2.9814  -2.9644  -2.9259
    -2.9085  -2.8976  -2.8718  -2.8312  -2.8264  -2.8165  -2.7804  -2.7629
    -2.7392  -2.7264  -2.7113  -2.6978  -2.6940  -2.6754  -2.6594  -2.6509
    -2.6354  -2.6269  -2.6216  -2.6009  -2.5877  -2.5777  -2.5707  -2.5565
    -2.5400  -2.5273  -2.5120  -2.4911  -2.4730  -2.4678  -2.4434  -2.4335
    -2.4052  -2.3981  -2.3732  -2.3468  -2.3139  -2.2963  -2.2779  -2.2554
    -2.2425  -2.2280  -2.2065  -2.1674  -2.1532  -2.1350  -2.1231  -2.0974
    -2.0941  -2.0739  -2.0643  -2.0523  -2.0372  -2.0145  -1.9970  -1.9505
    -1.9367  -1.9091  -1.9038  -1.8949  -1.8847  -1.8736  -1.8414  -1.8174
    -1.8078  -1.7914  -1.7741  -1.7665  -1.7578  -1.7473  -1.7292  -1.7131
    -1.6864  -1.6594  -1.6473  -1.6034  -1.5950  -1.5776  -1.5603  -1.5386
    -1.5267  -1.4961  -1.4748  -1.4549  -1.4497  -1.4391  -1.4120  -1.3908
    -1.3811  -1.3713  -1.3495  -1.3405  -1.3153  -1.2995  -1.2444  -1.2407
    -1.2213  -1.2140  -1.1933  -1.1523  -1.1495  -1.0808  -1.0398  -1.0291
    -0.9762  -0.8718  -0.8573  -0.8143  -0.7463  -0.6969  -0.6807  -0.4458
    -0.2817  -0.2541  -0.2353  -0.1032   0.2192   0.2521   0.2742   0.2810
     0.2863   0.3024   0.3372   0.3460   0.3717   0.3806   0.3968   0.4021
     0.4084   0.4198   0.4304   0.4366   0.4445   0.4571   0.4642   0.4725
     0.4783   0.4890   0.4903   0.4988   0.5041   0.5134   0.5157   0.5276
     0.5437   0.5456   0.5551   0.5615   0.5672   0.5723   0.5748   0.6011
     0.6077   0.6103   0.6177   0.6219   0.6356   0.6476   0.6498   0.6507
     0.6665   0.6712   0.6733   0.6851   0.6868   0.7067   0.7104   0.7147
     0.7237   0.7290   0.7319   0.7414   0.7563   0.7716   0.7839   0.7865
     0.7952   0.7994   0.8074   0.8321   0.8367   0.8467   0.8499   0.8523
     0.8648   0.8680   0.8864   0.9003   0.9039   0.9093   0.9208   0.9267
     0.9337   0.9626   0.9725   0.9874   0.9878   0.9900   0.9937   1.0192
     1.0540   1.1331   1.1352   1.2338   1.2560   1.7052   1.7833   1.7912
     1.7966   1.8121   1.8229   1.8397   1.8498   1.8622   1.9456   1.9620
     1.9742   1.9941   2.0194   2.0424   2.0539   2.0829   2.0971   2.1477
     2.1587   2.1726   2.1831   2.2102   2.2241   2.2402   2.2535   2.2713
     2.2816   2.3022   2.3237   2.3385   2.3508   2.3609   2.3926   2.4017
     2.4139   2.4159   2.4636   2.4660   2.4944   2.5117   2.5188   2.5244
     2.5363   2.5418   2.5617   2.5711   2.5899   2.6215   2.6297   2.6485
     2.6686   2.6746   2.6865   2.7448   2.8127   2.8296   2.8897   2.8971
     2.9004   2.9444   3.5228   3.5574   3.6079   3.6347   3.7687   3.7988
     3.8801   3.8938   3.9074   3.9526   3.9659   4.0187   4.1033   4.1113
     4.1204   4.1433   4.1676   4.1726   4.1942   4.2087   4.6795   4.7995
     4.8501   4.8849   4.9531   4.9667   5.0015   5.0564   5.0641   5.1375
     5.1391   5.1965   5.4399   6.3037   6.3949   6.5315   6.6428   6.7371
     6.8145   6.8680   6.9217   6.9658   7.0043   7.0837   7.1522   7.2192
     7.2976   7.3617   7.4118   7.4221   7.4634   7.5075   7.6509   7.6902
     7.7294   7.7664   7.7772   7.8212   7.8646   7.9117   7.9286   7.9713
     8.0278   8.0591   8.0924   8.1209   8.1719   8.1938   8.2138   8.2464
     8.2820   8.3168   8.3711   8.3863   8.4254   8.4349   8.4467   8.4713
     8.4825   8.5108   8.5375   8.5549   8.5906   8.5995   8.6171   8.6732
     8.6944   8.7083   8.7274   8.7480   8.7689   8.8100   8.8388   8.8703

     the Fermi energy is     1.6961 ev

!    total energy              =   -7738.30210305 Ry
     estimated scf accuracy    <       0.00000045 Ry
     smearing contrib. (-TS)   =      -0.02505269 Ry
     internal energy E=F+TS    =   -7738.27705036 Ry

     The total energy is F=E-TS. E is the sum of the following terms:
     one-electron contribution =  -95058.84976880 Ry
     hartree contribution      =   48147.03541311 Ry
     xc contribution           =   -2218.74437802 Ry
     ewald contribution        =   41394.09019494 Ry
     Dispersion Correction     =      -1.80869204 Ry
     electric field correction =       0.00018045 Ry

     total magnetization       =    88.32 Bohr mag/cell
     absolute magnetization    =    89.69 Bohr mag/cell

     convergence has been achieved in  88 iterations

     negative rho (up, down):  1.048E-03 5.893E-04

     Forces acting on atoms (cartesian axes, Ry/au):

     atom    1 type  1   force =     0.02518460   -0.03090790    0.01861450
     atom    2 type  2   force =    -0.01380395   -0.00141663   -0.01003591
     atom    3 type  1   force =    -0.02321952   -0.01855833    0.01996478
     atom    4 type  1   force =     0.00569877    0.00403802   -0.00638434
     atom    5 type  1   force =    -0.00189893    0.00111623   -0.00508439
     atom    6 type  1   force =     0.00206830    0.00774364   -0.00891334
     atom    7 type  3   force =    -0.00772416    0.00117791   -0.01042758
     atom    8 type  3   force =    -0.03498868    0.05414923   -0.08327829
     atom    9 type  3   force =     0.03414186    0.03816916   -0.06427590
     atom   10 type  3   force =    -0.00306183   -0.00247450   -0.01158473
     atom   11 type  4   force =     0.00677473    0.00568344    0.01402053
     atom   12 type  4   force =    -0.00019817   -0.00298474    0.01479724
     atom   13 type  4   force =     0.00191213    0.00164056    0.01732478
     atom   14 type  4   force =    -0.00052646   -0.00123174    0.01283192
     atom   15 type  4   force =    -0.00061696    0.00462832   -0.00209190
     atom   16 type  4   force =    -0.00040787    0.00260689    0.04040152
     atom   17 type  4   force =     0.00169833    0.00807894    0.03790033
     atom   18 type  4   force =     0.00793353   -0.00442258   -0.00057055
     atom   19 type  4   force =     0.00040660    0.01182530    0.00424653
     atom   20 type  4   force =    -0.00969533   -0.02667393   -0.00364055
     atom   21 type  4   force =    -0.01101616   -0.00043988    0.00064775
     atom   22 type  4   force =    -0.03197715    0.00311368    0.00790427
     atom   23 type  4   force =     0.03196693    0.00058410    0.01413363
     atom   24 type  4   force =     0.00706145   -0.03688686    0.00383091
     atom   25 type  4   force =    -0.00307462    0.00159143    0.00391503
     atom   26 type  4   force =     0.01770681   -0.00687469    0.00077783
     atom   27 type  1   force =    -0.00522453   -0.00869677    0.00258148
     atom   28 type  2   force =    -0.01384803   -0.00027076    0.00479131
     atom   29 type  1   force =     0.00298301   -0.00512557   -0.00137822
     atom   30 type  1   force =     0.00389845    0.00335022    0.00178167
     atom   31 type  1   force =     0.00132080   -0.00472861    0.00010040
     atom   32 type  1   force =    -0.00077880    0.00120833   -0.00188750
     atom   33 type  3   force =    -0.00627649   -0.00044501   -0.00043805
     atom   34 type  3   force =    -0.00800819    0.00260214   -0.00020133
     atom   35 type  3   force =     0.00436709   -0.00058124    0.00293814
     atom   36 type  3   force =     0.00094063   -0.00176886   -0.00500758
     atom   37 type  4   force =     0.00827391    0.00496168    0.00747565
     atom   38 type  4   force =     0.00379417   -0.00086685   -0.01932994
     atom   39 type  4   force =    -0.00153692    0.00362372   -0.00993731
     atom   40 type  4   force =    -0.00177190   -0.00226663    0.00905915
     atom   41 type  4   force =    -0.00048645    0.00349850   -0.00643784
     atom   42 type  4   force =    -0.00427734   -0.00456556    0.01809377
     atom   43 type  4   force =     0.00767561    0.00335599    0.00777332
     atom   44 type  4   force =     0.01046355   -0.00466284   -0.00763188
     atom   45 type  4   force =     0.00288775    0.00446350    0.00055818
     atom   46 type  4   force =     0.00235672   -0.00007949   -0.00559970
     atom   47 type  4   force =    -0.01285606   -0.00010817   -0.00354478
     atom   48 type  4   force =    -0.01454489    0.00125055    0.00332850
     atom   49 type  4   force =     0.01349898    0.00255389    0.00439511
     atom   50 type  4   force =    -0.00268343   -0.00489267   -0.00049809
     atom   51 type  4   force =    -0.00501300    0.00145269   -0.00001618
     atom   52 type  4   force =     0.01581681   -0.00420767   -0.00441569
     atom   53 type  1   force =     0.00032255   -0.00018059    0.00009860
     atom   54 type  2   force =     0.00011760    0.00043704   -0.00007606
     atom   55 type  1   force =     0.00032533   -0.00009816    0.00007132
     atom   56 type  1   force =    -0.00255244    0.00125651   -0.00311330
     atom   57 type  1   force =     0.00012702   -0.00080727    0.00009669
     atom   58 type  1   force =    -0.00000812    0.00060479    0.00011357
     atom   59 type  3   force =    -0.00071634   -0.00002814   -0.00021910
     atom   60 type  3   force =     0.00019870   -0.00020184    0.00032045
     atom   61 type  3   force =     0.00015130    0.00020265   -0.00020610
     atom   62 type  3   force =    -0.00009929   -0.00030366   -0.00035124
     atom   63 type  4   force =     0.00089284    0.00016096   -0.00032486
     atom   64 type  4   force =    -0.00004099   -0.00015990    0.00045761
     atom   65 type  4   force =    -0.00064925   -0.00047382    0.00031499
     atom   66 type  4   force =    -0.00088360   -0.00042136   -0.00027640
     atom   67 type  4   force =     0.00058726   -0.00035010   -0.00046186
     atom   68 type  4   force =     0.00023528    0.00072602    0.00072392
     atom   69 type  4   force =    -0.00005969    0.00042737   -0.00021369
     atom   70 type  4   force =    -0.00083520   -0.00016074   -0.00088160
     atom   71 type  4   force =     0.00089608   -0.00049793    0.00044111
     atom   72 type  4   force =    -0.00026363    0.00018858   -0.00000568
     atom   73 type  4   force =     0.00016927    0.00014645    0.00020862
     atom   74 type  4   force =    -0.00008735    0.00040215   -0.00048910
     atom   75 type  4   force =     0.00012417   -0.00063726   -0.00002145
     atom   76 type  4   force =    -0.00012867   -0.00052891    0.00028805
     atom   77 type  4   force =    -0.00011113    0.00033239    0.00000117
     atom   78 type  4   force =    -0.00092764   -0.00070837    0.00017837
     atom   79 type  1   force =     0.02519033   -0.03091448    0.01862232
     atom   80 type  2   force =    -0.01372615   -0.00142416   -0.01001421
     atom   81 type  1   force =    -0.02321349   -0.01855825    0.01996068
     atom   82 type  1   force =     0.00569796    0.00403183   -0.00638681
     atom   83 type  1   force =    -0.00190504    0.00111752   -0.00508062
     atom   84 type  1   force =     0.00208513    0.00774533   -0.00892344
     atom   85 type  3   force =    -0.00772582    0.00116441   -0.01041753
     atom   86 type  3   force =    -0.03498864    0.05414916   -0.08328146
     atom   87 type  3   force =     0.03414553    0.03816933   -0.06427383
     atom   88 type  3   force =    -0.00305173   -0.00248012   -0.01158876
     atom   89 type  4   force =     0.00690394    0.00569895    0.01401461
     atom   90 type  4   force =    -0.00010057   -0.00289811    0.01479157
     atom   91 type  4   force =     0.00200061    0.00162707    0.01730102
     atom   92 type  4   force =    -0.00036600   -0.00122494    0.01282948
     atom   93 type  4   force =    -0.00061414    0.00483824   -0.00198481
     atom   94 type  4   force =    -0.00046889    0.00256347    0.04019657
     atom   95 type  4   force =     0.00183005    0.00808121    0.03789479
     atom   96 type  4   force =     0.00773659   -0.00443656   -0.00059323
     atom   97 type  4   force =     0.00050782    0.01189197    0.00414364
     atom   98 type  4   force =    -0.00958886   -0.02650410   -0.00360680
     atom   99 type  4   force =    -0.01102174   -0.00040055    0.00084167
     atom  100 type  4   force =    -0.03200817    0.00301095    0.00777732
     atom  101 type  4   force =     0.03199721    0.00058638    0.01413735
     atom  102 type  4   force =     0.00688230   -0.03688626    0.00383748
     atom  103 type  4   force =    -0.00298223    0.00154163    0.00388963
     atom  104 type  4   force =     0.01782170   -0.00688191    0.00077139
     atom  105 type  1   force =    -0.00522332   -0.00868588    0.00247363
     atom  106 type  2   force =    -0.01307305    0.00026403    0.00449274
     atom  107 type  1   force =     0.00297613   -0.00523913   -0.00143106
     atom  108 type  1   force =     0.00239698    0.00499275   -0.00193634
     atom  109 type  1   force =     0.00174320   -0.00465338    0.00019849
     atom  110 type  1   force =    -0.00076853    0.00124369   -0.00191291
     atom  111 type  3   force =    -0.00618578   -0.00172460   -0.00291873
     atom  112 type  3   force =    -0.00801977    0.00261216   -0.00026439
     atom  113 type  3   force =     0.00449405   -0.00067327    0.00279818
     atom  114 type  3   force =     0.00083589   -0.00197514   -0.00410475
     atom  115 type  4   force =     0.00859613    0.00517158    0.00771589
     atom  116 type  4   force =     0.00380499   -0.00091093   -0.01931201
     atom  117 type  4   force =    -0.00139518    0.00361199   -0.00995127
     atom  118 type  4   force =    -0.00138811   -0.00272682    0.00923194
     atom  119 type  4   force =    -0.00143633    0.00371672   -0.00684577
     atom  120 type  4   force =    -0.00413198   -0.00468021    0.01809169
     atom  121 type  4   force =     0.00768105    0.00332595    0.00780615
     atom  122 type  4   force =     0.01010190   -0.00535939   -0.00616410
     atom  123 type  4   force =     0.00280850    0.00469450    0.00044498
     atom  124 type  4   force =     0.00213445   -0.00002565   -0.00560799
     atom  125 type  4   force =    -0.01283051   -0.00014942   -0.00372658
     atom  126 type  4   force =    -0.01465749    0.00125415    0.00340819
     atom  127 type  4   force =     0.01352023    0.00245338    0.00454594
     atom  128 type  4   force =    -0.00285837   -0.00489051   -0.00049049
     atom  129 type  4   force =    -0.00531271    0.00145167    0.00043954
     atom  130 type  4   force =     0.01531870   -0.00413552   -0.00443349
     atom  131 type  1   force =    -0.00002083   -0.00000538    0.00007738
     atom  132 type  2   force =     0.00028378   -0.00008527    0.00001160
     atom  133 type  1   force =    -0.00046426   -0.00047012    0.00012943
     atom  134 type  1   force =     0.00024256    0.00073086   -0.00012631
     atom  135 type  1   force =     0.00042758   -0.00068235   -0.00040351
     atom  136 type  1   force =    -0.00040517   -0.00027266    0.00049472
     atom  137 type  3   force =     0.00010934    0.00015235   -0.00005696
     atom  138 type  3   force =    -0.00069120   -0.00027578    0.00019824
     atom  139 type  3   force =    -0.00011986    0.00014537    0.00048809
     atom  140 type  3   force =     0.00005933    0.00060284   -0.00033715
     atom  141 type  4   force =     0.00048286   -0.00014632    0.00032889
     atom  142 type  4   force =    -0.00031479    0.00036930    0.00001735
     atom  143 type  4   force =    -0.00002728    0.00033299    0.00043136
     atom  144 type  4   force =    -0.00056737   -0.00048232    0.00025711
     atom  145 type  4   force =     0.00015556   -0.00034590   -0.00014888
     atom  146 type  4   force =     0.00083418    0.00041802    0.00024827
     atom  147 type  4   force =     0.00016978    0.00024230    0.00059596
     atom  148 type  4   force =    -0.00001351   -0.00006889    0.00009065
     atom  149 type  4   force =    -0.00017330    0.00022889   -0.00019720
     atom  150 type  4   force =    -0.00022770   -0.00002613    0.00008553
     atom  151 type  4   force =    -0.00007770   -0.00072292   -0.00000985
     atom  152 type  4   force =    -0.00010825   -0.00035577   -0.00027001
     atom  153 type  4   force =    -0.00040348    0.00018862    0.00040826
     atom  154 type  4   force =     0.00033798   -0.00029109    0.00025894
     atom  155 type  4   force =    -0.00046264   -0.00001097   -0.00015482
     atom  156 type  4   force =    -0.00013887   -0.00041924    0.00016848
     atom  157 type  4   force =     0.00584722   -0.00025445    0.00373675
     atom  158 type  5   force =    -0.00300251   -0.00272324   -0.00197844

     Total force =     0.262769     Total SCF correction =     0.002957
 
     init_run     :      8.59s CPU      9.20s WALL (       1 calls)
     electrons    :   1528.05s CPU   1612.84s WALL (       1 calls)
     forces       :      4.43s CPU      4.82s WALL (       1 calls)
     force_london :      0.09s CPU      0.09s WALL (       1 calls)

     Called by init_run:
     wfcinit      :      5.10s CPU      5.27s WALL (       1 calls)
     potinit      :      0.58s CPU      0.75s WALL (       1 calls)
     hinit0       :      1.66s CPU      1.76s WALL (       1 calls)

     Called by electrons:
     c_bands      :   1211.02s CPU   1262.11s WALL (      88 calls)
     sum_band     :    195.42s CPU    213.63s WALL (      88 calls)
     v_of_rho     :     24.42s CPU     27.22s WALL (      89 calls)
     newd         :     59.27s CPU     70.26s WALL (      89 calls)
     mix_rho      :     35.69s CPU     37.25s WALL (      88 calls)
     energy_londo :      0.09s CPU      0.09s WALL (       1 calls)

     Called by c_bands:
     init_us_2    :      2.21s CPU      2.32s WALL (     356 calls)
     init_us_2:cp :      2.20s CPU      2.31s WALL (     356 calls)
     regterg      :   1191.39s CPU   1241.56s WALL (     177 calls)

     Called by *egterg:
     rdiaghg      :    303.41s CPU    322.72s WALL (     615 calls)
     h_psi        :    461.38s CPU    476.38s WALL (     617 calls)
     s_psi        :     55.17s CPU     56.15s WALL (     617 calls)
     g_psi        :      0.41s CPU      0.41s WALL (     438 calls)

     Called by h_psi:
     h_psi:calbec :    107.75s CPU    114.58s WALL (     617 calls)
     vloc_psi     :    295.42s CPU    301.93s WALL (     617 calls)
     add_vuspsi   :     57.56s CPU     59.18s WALL (     617 calls)

     General routines
     calbec       :    158.94s CPU    169.92s WALL (     801 calls)
     fft          :     42.13s CPU     45.74s WALL (    1615 calls)
     ffts         :     18.51s CPU     19.20s WALL (   10967 calls)
     fftw         :    344.17s CPU    352.21s WALL (  297374 calls)
     interpolate  :      2.14s CPU      2.44s WALL (     178 calls)
 
     Parallel routines
 
     PWSCF        :  25m43.11s CPU  27m 9.72s WALL

 
   This run was terminated on:  23:50:49  17Nov2025            

=------------------------------------------------------------------------------=
   JOB DONE.
=------------------------------------------------------------------------------=
