
     Program PWSCF v.7.2 starts on 17Nov2025 at 23: 1:45 

     This program is part of the open-source Quantum ESPRESSO suite
     for quantum simulation of materials; please cite
         "P. Giannozzi et al., J. Phys.:Condens. Matter 21 395502 (2009);
         "P. Giannozzi et al., J. Phys.:Condens. Matter 29 465901 (2017);
         "P. Giannozzi et al., J. Chem. Phys. 152 154105 (2020);
          URL http://www.quantum-espresso.org", 
     in publications or presentations arising from this work. More details at
     http://www.quantum-espresso.org/quote

     Parallel version (MPI), running on    64 processors

     MPI processes distributed on     4 nodes
     491701 MiB available memory on the printing compute node when the environment starts
 
     Reading input from PWINPUT_atm157_zp

     Current dimensions of program PWSCF are:
     Max number of different atomic species (ntypx) = 10
     Max number of k-points (npk) =  40000
     Max angular momentum in pseudopotentials (lmaxx) =  4
     Presently no symmetry can be used with electric field

     file Ni.pbe-n-rrkjus_psl.1.0.0.UPF: wavefunction(s)  3D renormalized
     file Mn.pbe-spn-rrkjus_psl.0.3.1.UPF: wavefunction(s)  3D renormalized
     file O.pbe-rrkjus.UPF: wavefunction(s)  2S renormalized
     file H.pbe-rrkjus.UPF: wavefunction(s)  1S renormalized

     gamma-point specific algorithms are used
 
     R & G space division:  proc/nbgrp/npool/nimage =      64
     Subspace diagonalization in iterative solution of the eigenvalue problem:
     one sub-group per band group will be used
     custom distributed-memory algorithm (size of sub-group:  7*  7 procs)

 
     Parallelization info
     --------------------
     sticks:   dense  smooth     PW     G-vecs:    dense   smooth      PW
     Min         207      82     20                60552    15302    1896
     Max         210      84     22                60574    15336    1950
     Sum       13325    5345   1333              3876045   980655  122653
 
     Using Slab Decomposition
 


     bravais-lattice index     =            0
     lattice parameter (alat)  =      17.4067  a.u.
     unit-cell volume          =   20529.8182 (a.u.)^3
     number of atoms/cell      =          158
     number of atomic types    =            5
     number of electrons       =      1093.00
     number of Kohn-Sham states=          656
     kinetic-energy cutoff     =      50.0000  Ry
     charge density cutoff     =     500.0000  Ry
     scf convergence threshold =      1.0E-06
     mixing beta               =       0.1000
     number of iterations used =            8  local-TF  mixing
     Exchange-correlation=  SLA  PW   PBE  PBE
                           (   1   4   3   4   0   0   0)

     celldm(1)=  17.406729  celldm(2)=   0.000000  celldm(3)=   0.000000
     celldm(4)=   0.000000  celldm(5)=   0.000000  celldm(6)=   0.000000

     crystal axes: (cart. coord. in units of alat)
               a(1) = (   1.000000   0.000000   0.000000 )  
               a(2) = (  -0.001404   1.105696   0.000000 )  
               a(3) = (   0.000000   0.000000   3.520448 )  

     reciprocal axes: (cart. coord. in units 2 pi/alat)
               b(1) = (  1.000000  0.001270  0.000000 )  
               b(2) = (  0.000000  0.904408  0.000000 )  
               b(3) = (  0.000000  0.000000  0.284055 )  


     PseudoPot. # 1 for Ni read from file:
     ~/PSEUDO/Ni.pbe-n-rrkjus_psl.1.0.0.UPF
     MD5 check sum: Not computed, couldn't open file
     Pseudo is Ultrasoft + core correction, Zval = 10.0
     Generated using "atomic" code by A. Dal Corso  v.5.1.2
     Using radial grid of 1195 points,  6 beta functions with: 
                l(1) =   0
                l(2) =   0
                l(3) =   1
                l(4) =   1
                l(5) =   2
                l(6) =   2
     Q(r) pseudized with 0 coefficients 


     PseudoPot. # 2 for Mn read from file:
     ~/PSEUDO/Mn.pbe-spn-rrkjus_psl.0.3.1.UPF
     MD5 check sum: Not computed, couldn't open file
     Pseudo is Ultrasoft + core correction, Zval = 15.0
     Generated using &quot;atomic&quot; code by A. Dal Corso  v.6.2.2
     Using radial grid of 1187 points,  6 beta functions with: 
                l(1) =   0
                l(2) =   0
                l(3) =   1
                l(4) =   1
                l(5) =   2
                l(6) =   2
     Q(r) pseudized with 0 coefficients 


     PseudoPot. # 3 for P  read from file:
     ~/PSEUDO/P.pbe-n-rrkjus_psl.1.0.0.UPF
     MD5 check sum: Not computed, couldn't open file
     Pseudo is Ultrasoft + core correction, Zval =  5.0
     Generated using "atomic" code by A. Dal Corso  v.5.1
     Using radial grid of 1147 points,  6 beta functions with: 
                l(1) =   0
                l(2) =   0
                l(3) =   1
                l(4) =   1
                l(5) =   2
                l(6) =   2
     Q(r) pseudized with 0 coefficients 


     PseudoPot. # 4 for O  read from file:
     ~/PSEUDO/O.pbe-rrkjus.UPF
     MD5 check sum: Not computed, couldn't open file
     Pseudo is Ultrasoft, Zval =  6.0
     Generated by new atomic code, or converted to UPF format
     Using radial grid of 1269 points,  4 beta functions with: 
                l(1) =   0
                l(2) =   0
                l(3) =   1
                l(4) =   1
     Q(r) pseudized with 0 coefficients 


     PseudoPot. # 5 for H  read from file:
     ~/PSEUDO/H.pbe-rrkjus.UPF
     MD5 check sum: Not computed, couldn't open file
     Pseudo is Ultrasoft, Zval =  1.0
     Generated by new atomic code, or converted to UPF format
     Using radial grid of 1061 points,  2 beta functions with: 
                l(1) =   0
                l(2) =   0
     Q(r) pseudized with 0 coefficients 


     atomic species   valence    mass     pseudopotential
     Ni               10.00    58.69300     Ni( 1.00)
     Mn               15.00    54.93800     Mn( 1.00)
     P                 5.00    30.97300     P ( 1.00)
     O                 6.00    15.99900     O ( 1.00)
     H                 1.00     1.00790     H ( 1.00)

     Starting magnetic structure 
     atomic species   magnetization
     Ni              1.000
     Mn              1.000
     P               1.000
     O               1.000
     H               0.000

     No symmetry found



   Cartesian axes

     site n.     atom                  positions (alat units)
         1        Ni     tau(   1) = (   0.2421002   0.8609138   0.1302181  )
         2        Mn     tau(   2) = (   0.4924481   0.7886602   0.4655392  )
         3        Ni     tau(   3) = (   0.0052341   0.3031820   0.1284544  )
         4        Ni     tau(   4) = (   0.2570603   0.2374878   0.4617901  )
         5        Ni     tau(   5) = (   0.4976584   1.1048203   0.2964410  )
         6        Ni     tau(   6) = (   0.2495781   0.5440308   0.2953805  )
         7        P      tau(   7) = (   0.2083492   0.9982113   0.4588145  )
         8        P      tau(   8) = (   0.4584476   0.6559264   0.1347090  )
         9        P      tau(   9) = (   0.2889394   0.1031966   0.1319347  )
        10        P      tau(  10) = (   0.0400379   0.4338094   0.4586283  )
        11        O      tau(  11) = (   0.1314218   0.9248062   0.3189972  )
        12        O      tau(  12) = (   0.3797244   0.7272031   0.2742874  )
        13        O      tau(  13) = (   0.3662315   0.1762062   0.2720888  )
        14        O      tau(  14) = (   0.1171240   0.3646150   0.3169340  )
        15        O      tau(  15) = (   0.1510364   0.9068326   0.5881934  )
        16        O      tau(  16) = (   0.3981989   0.7453439   0.0053495  )
        17        O      tau(  17) = (   0.3490561   0.1888693   0.0010856  )
        18        O      tau(  18) = (   0.0982395   0.3475583   0.5894443  )
        19        O      tau(  19) = (   0.0992163   0.5918099   0.4542505  )
        20        O      tau(  20) = (   0.3467441   1.0504690   0.1405000  )
        21        O      tau(  21) = (   0.3739183   0.4303319   0.4477971  )
        22        O      tau(  22) = (   0.1230967   0.1088895   0.1422960  )
        23        O      tau(  23) = (   0.1242901   0.6635968   0.1442928  )
        24        O      tau(  24) = (   0.4011802   0.4971632   0.1376281  )
        25        O      tau(  25) = (   0.1484006   0.0497464   0.4550965  )
        26        O      tau(  26) = (   0.3736100   0.9942556   0.4492158  )
        27        Ni     tau(  27) = (   0.2413539   0.8509941   0.7820408  )
        28        Mn     tau(  28) = (   0.4917018   0.7787406   1.1173619  )
        29        Ni     tau(  29) = (   0.0044877   0.2932623   0.7802771  )
        30        Ni     tau(  30) = (   0.2563139   0.2275682   1.1136128  )
        31        Ni     tau(  31) = (   0.4969120   1.0949007   0.9482637  )
        32        Ni     tau(  32) = (   0.2488318   0.5341111   0.9472032  )
        33        P      tau(  33) = (   0.2076029   0.9882917   1.1106372  )
        34        P      tau(  34) = (   0.4577012   0.6460068   0.7865316  )
        35        P      tau(  35) = (   0.2881931   0.0932770   0.7837574  )
        36        P      tau(  36) = (   0.0392916   0.4238898   1.1104509  )
        37        O      tau(  37) = (   0.1306755   0.9148866   0.9708199  )
        38        O      tau(  38) = (   0.3789780   0.7172835   0.9261101  )
        39        O      tau(  39) = (   0.3654852   0.1662865   0.9239115  )
        40        O      tau(  40) = (   0.1163776   0.3546954   0.9687567  )
        41        O      tau(  41) = (   0.1502901   0.8969129   1.2400160  )
        42        O      tau(  42) = (   0.3974525   0.7354243   0.6571722  )
        43        O      tau(  43) = (   0.3483097   0.1789497   0.6529083  )
        44        O      tau(  44) = (   0.0974932   0.3376387   1.2412670  )
        45        O      tau(  45) = (   0.0984699   0.5818903   1.1060732  )
        46        O      tau(  46) = (   0.3459978   1.0405493   0.7923226  )
        47        O      tau(  47) = (   0.3731719   0.4204123   1.0996198  )
        48        O      tau(  48) = (   0.1223503   0.0989699   0.7941187  )
        49        O      tau(  49) = (   0.1235438   0.6536772   0.7961155  )
        50        O      tau(  50) = (   0.4004339   0.4872435   0.7894508  )
        51        O      tau(  51) = (   0.1476543   0.0398268   1.1069192  )
        52        O      tau(  52) = (   0.3728637   0.9843360   1.1010385  )
        53        Ni     tau(  53) = (   0.2411808   0.8324089   1.4309579  )
        54        Mn     tau(  54) = (   0.4946671   0.7639191   1.7613784  )
        55        Ni     tau(  55) = (   0.0045903   0.2758768   1.4289237  )
        56        Ni     tau(  56) = (   0.2582374   0.2038640   1.7770492  )
        57        Ni     tau(  57) = (   0.4995768   1.0765738   1.5968468  )
        58        Ni     tau(  58) = (   0.2446418   0.5161336   1.5986178  )
        59        P      tau(  59) = (   0.2110282   0.9624759   1.7570741  )
        60        P      tau(  60) = (   0.4555417   0.6266544   1.4355841  )
        61        P      tau(  61) = (   0.2894304   0.0771248   1.4326669  )
        62        P      tau(  62) = (   0.0328189   0.3995898   1.7561322  )
        63        O      tau(  63) = (   0.1349035   0.8971112   1.6106303  )
        64        O      tau(  64) = (   0.3788937   0.6993990   1.5743359  )
        65        O      tau(  65) = (   0.3659027   0.1511080   1.5708695  )
        66        O      tau(  66) = (   0.1105339   0.3441016   1.6092044  )
        67        O      tau(  67) = (   0.1557886   0.8603680   1.8762740  )
        68        O      tau(  68) = (   0.3942965   0.7173118   1.3080767  )
        69        O      tau(  69) = (   0.3497106   0.1654865   1.3026958  )
        70        O      tau(  70) = (   0.0882498   0.2997460   1.8754938  )
        71        O      tau(  71) = (   0.0879634   0.5612479   1.7635252  )
        72        O      tau(  72) = (   0.3490189   1.0246514   1.4369127  )
        73        O      tau(  73) = (   0.3670773   0.4040889   1.7520727  )
        74        O      tau(  74) = (   0.1226660   0.0818304   1.4423052  )
        75        O      tau(  75) = (   0.1225220   0.6345628   1.4463845  )
        76        O      tau(  76) = (   0.3964037   0.4688262   1.4379717  )
        77        O      tau(  77) = (   0.1495563   0.0133210   1.7552094  )
        78        O      tau(  78) = (   0.3782473   0.9569750   1.7438122  )
        79        Ni     tau(  79) = (   0.7421002   0.8609138   0.1302181  )
        80        Mn     tau(  80) = (   0.9924481   0.7886602   0.4655392  )
        81        Ni     tau(  81) = (   0.5052341   0.3031820   0.1284544  )
        82        Ni     tau(  82) = (   0.7570603   0.2374878   0.4617901  )
        83        Ni     tau(  83) = (   0.9976584   1.1048203   0.2964410  )
        84        Ni     tau(  84) = (   0.7495781   0.5440308   0.2953805  )
        85        P      tau(  85) = (   0.7083492   0.9982113   0.4588145  )
        86        P      tau(  86) = (   0.9584476   0.6559264   0.1347090  )
        87        P      tau(  87) = (   0.7889394   0.1031966   0.1319347  )
        88        P      tau(  88) = (   0.5400379   0.4338094   0.4586283  )
        89        O      tau(  89) = (   0.6314218   0.9248062   0.3189972  )
        90        O      tau(  90) = (   0.8797244   0.7272031   0.2742874  )
        91        O      tau(  91) = (   0.8662315   0.1762062   0.2720888  )
        92        O      tau(  92) = (   0.6171240   0.3646150   0.3169340  )
        93        O      tau(  93) = (   0.6510364   0.9068326   0.5881934  )
        94        O      tau(  94) = (   0.8981989   0.7453439   0.0053495  )
        95        O      tau(  95) = (   0.8490561   0.1888693   0.0010856  )
        96        O      tau(  96) = (   0.5982395   0.3475583   0.5894443  )
        97        O      tau(  97) = (   0.5992163   0.5918099   0.4542505  )
        98        O      tau(  98) = (   0.8467441   1.0504690   0.1405000  )
        99        O      tau(  99) = (   0.8739183   0.4303319   0.4477971  )
       100        O      tau( 100) = (   0.6230967   0.1088895   0.1422960  )
       101        O      tau( 101) = (   0.6242901   0.6635968   0.1442928  )
       102        O      tau( 102) = (   0.9011802   0.4971632   0.1376281  )
       103        O      tau( 103) = (   0.6484006   0.0497464   0.4550965  )
       104        O      tau( 104) = (   0.8736100   0.9942556   0.4492158  )
       105        Ni     tau( 105) = (   0.7413539   0.8509941   0.7820408  )
       106        Mn     tau( 106) = (   0.9917018   0.7787406   1.1173619  )
       107        Ni     tau( 107) = (   0.5044877   0.2932623   0.7802771  )
       108        Ni     tau( 108) = (   0.7563139   0.2275682   1.1136128  )
       109        Ni     tau( 109) = (   0.9969120   1.0949007   0.9482637  )
       110        Ni     tau( 110) = (   0.7488318   0.5341111   0.9472032  )
       111        P      tau( 111) = (   0.7076029   0.9882917   1.1106372  )
       112        P      tau( 112) = (   0.9577012   0.6460068   0.7865316  )
       113        P      tau( 113) = (   0.7881931   0.0932770   0.7837574  )
       114        P      tau( 114) = (   0.5392916   0.4238898   1.1104509  )
       115        O      tau( 115) = (   0.6306755   0.9148866   0.9708199  )
       116        O      tau( 116) = (   0.8789780   0.7172835   0.9261101  )
       117        O      tau( 117) = (   0.8654852   0.1662865   0.9239115  )
       118        O      tau( 118) = (   0.6163776   0.3546954   0.9687567  )
       119        O      tau( 119) = (   0.6502901   0.8969129   1.2400160  )
       120        O      tau( 120) = (   0.8974525   0.7354243   0.6571722  )
       121        O      tau( 121) = (   0.8483097   0.1789497   0.6529083  )
       122        O      tau( 122) = (   0.5974932   0.3376387   1.2412670  )
       123        O      tau( 123) = (   0.5984699   0.5818903   1.1060732  )
       124        O      tau( 124) = (   0.8459978   1.0405493   0.7923226  )
       125        O      tau( 125) = (   0.8731719   0.4204123   1.0996198  )
       126        O      tau( 126) = (   0.6223503   0.0989699   0.7941187  )
       127        O      tau( 127) = (   0.6235438   0.6536772   0.7961155  )
       128        O      tau( 128) = (   0.9004339   0.4872435   0.7894508  )
       129        O      tau( 129) = (   0.6476543   0.0398268   1.1069192  )
       130        O      tau( 130) = (   0.8728637   0.9843360   1.1010385  )
       131        Ni     tau( 131) = (   0.7410267   0.8325162   1.4305848  )
       132        Mn     tau( 132) = (   0.9957516   0.7600299   1.7607963  )
       133        Ni     tau( 133) = (   0.5040907   0.2758675   1.4300929  )
       134        Ni     tau( 134) = (   0.7492107   0.2133490   1.7410454  )
       135        Ni     tau( 135) = (   1.0009965   1.0739722   1.5938039  )
       136        Ni     tau( 136) = (   0.7435634   0.5197355   1.5956846  )
       137        P      tau( 137) = (   0.7125069   0.9656475   1.7574601  )
       138        P      tau( 138) = (   0.9562771   0.6261995   1.4348061  )
       139        P      tau( 139) = (   0.7897796   0.0749975   1.4289502  )
       140        P      tau( 140) = (   0.5344908   0.4056646   1.7624424  )
       141        O      tau( 141) = (   0.6363110   0.9022539   1.6111310  )
       142        O      tau( 142) = (   0.8791375   0.6993590   1.5736065  )
       143        O      tau( 143) = (   0.8677034   0.1479917   1.5677577  )
       144        O      tau( 144) = (   0.6096326   0.3453508   1.6130362  )
       145        O      tau( 145) = (   0.6538676   0.8663746   1.8771614  )
       146        O      tau( 146) = (   0.8948308   0.7180504   1.3081207  )
       147        O      tau( 147) = (   0.8505931   0.1642134   1.3003625  )
       148        O      tau( 148) = (   0.5994798   0.3097877   1.8805913  )
       149        O      tau( 149) = (   0.5905617   0.5666921   1.7630040  )
       150        O      tau( 150) = (   0.8496482   1.0230984   1.4339530  )
       151        O      tau( 151) = (   0.8648476   0.4011035   1.7429415  )
       152        O      tau( 152) = (   0.6235315   0.0826198   1.4430822  )
       153        O      tau( 153) = (   0.6220766   0.6363263   1.4460487  )
       154        O      tau( 154) = (   0.8951957   0.4690084   1.4354565  )
       155        O      tau( 155) = (   0.6579777   0.0195851   1.7588791  )
       156        O      tau( 156) = (   0.8798126   0.9576364   1.7467312  )
       157        O      tau( 157) = (   0.3700635   0.1197550   1.9179532  )
       158        H      tau( 158) = (   0.4553109   0.1803133   1.9415520  )

     -------------------------------------------------
     Parameters for Dispersion (Grimme-D2) Correction:
     -------------------------------------------------
       atom      VdW radius       C_6     

        Ni         2.952        374.666
        Mn         2.952        374.666
        P          3.222        271.980
        O          2.536         24.284
        H          1.892          4.857

     number of k points=     1  Gaussian smearing, width (Ry)=  0.0100
                       cart. coord. in units 2pi/alat
        k(    1) = (   0.0000000   0.0000000   0.0000000), wk =   1.0000000

     Dense  grid:  1938023 G-vectors     FFT dimensions: ( 125, 144, 450)

     Smooth grid:   490328 G-vectors     FFT dimensions: (  80,  90, 288)

     Estimated max dynamical RAM per process >     326.29 MB

     Estimated total dynamical RAM >      20.39 GB

     Check: negative core charge=   -0.000001
     Generating pointlists ...
     new r_m :   0.0819 (alat units)  1.4258 (a.u.) for type    1
     new r_m :   0.0904 (alat units)  1.5735 (a.u.) for type    2
     new r_m :   0.0681 (alat units)  1.1861 (a.u.) for type    3
     new r_m :   0.0442 (alat units)  0.7697 (a.u.) for type    4
     new r_m :   0.0442 (alat units)  0.7697 (a.u.) for type    5

     Initial potential from superposition of free atoms

     starting charge    1092.8893, renormalised to    1093.0000

     negative rho (up, down):  1.374E-03 4.518E-04
 
     Adding external electric field

     Computed dipole along edir(3) : 
        Dipole                1.6504 Ry au,          4.1948 Debye
        Dipole field          0.0010 Ry au, 
 
        Potential amp.       -0.1114 Ry
        Total length         55.1515 bohr
 
 
     Adding external electric field

     Computed dipole along edir(3) : 
        Dipole                1.6504 Ry au,          4.1948 Debye
        Dipole field          0.0010 Ry au, 
 
        Potential amp.       -0.1114 Ry
        Total length         55.1515 bohr
 
     Starting wfcs are  815 randomized atomic wfcs

     total cpu time spent up to now is       11.9 secs

     Self-consistent Calculation

     iteration #  1     ecut=    50.00 Ry     beta= 0.10
     Davidson diagonalization with overlap
     ethr =  1.00E-02,  avg # of iterations =  6.0

     negative rho (up, down):  3.842E-01 8.949E-07
 
     Adding external electric field

     Computed dipole along edir(3) : 
        Dipole               -3.6109 Ry au,         -9.1780 Debye
        Dipole field         -0.0022 Ry au, 
 
        Potential amp.        0.2438 Ry
        Total length         55.1515 bohr
 
 
     Adding external electric field

     Computed dipole along edir(3) : 
        Dipole               -3.6109 Ry au,         -9.1780 Debye
        Dipole field         -0.0022 Ry au, 
 
        Potential amp.        0.2438 Ry
        Total length         55.1515 bohr
 

     total cpu time spent up to now is       42.2 secs

     total energy              =   -7517.38130230 Ry
     estimated scf accuracy    <     750.47744671 Ry

     total magnetization       =   219.00 Bohr mag/cell
     absolute magnetization    =   307.88 Bohr mag/cell

     iteration #  2     ecut=    50.00 Ry     beta= 0.10
     Davidson diagonalization with overlap
     ethr =  1.00E-02,  avg # of iterations =  2.0

     negative rho (up, down):  3.623E-01 5.472E-07
 
     Adding external electric field

     Computed dipole along edir(3) : 
        Dipole               -2.4553 Ry au,         -6.2407 Debye
        Dipole field         -0.0015 Ry au, 
 
        Potential amp.        0.1658 Ry
        Total length         55.1515 bohr
 
 
     Adding external electric field

     Computed dipole along edir(3) : 
        Dipole               -2.4553 Ry au,         -6.2407 Debye
        Dipole field         -0.0015 Ry au, 
 
        Potential amp.        0.1658 Ry
        Total length         55.1515 bohr
 

     total cpu time spent up to now is       60.6 secs

     total energy              =   -7601.06545004 Ry
     estimated scf accuracy    <     200.78038256 Ry

     total magnetization       =   158.21 Bohr mag/cell
     absolute magnetization    =   206.80 Bohr mag/cell

     iteration #  3     ecut=    50.00 Ry     beta= 0.10
     Davidson diagonalization with overlap
     ethr =  1.00E-02,  avg # of iterations =  1.5

     negative rho (up, down):  3.203E-01 4.850E-07
 
     Adding external electric field

     Computed dipole along edir(3) : 
        Dipole               -2.1128 Ry au,         -5.3702 Debye
        Dipole field         -0.0013 Ry au, 
 
        Potential amp.        0.1426 Ry
        Total length         55.1515 bohr
 
 
     Adding external electric field

     Computed dipole along edir(3) : 
        Dipole               -2.1128 Ry au,         -5.3702 Debye
        Dipole field         -0.0013 Ry au, 
 
        Potential amp.        0.1426 Ry
        Total length         55.1515 bohr
 

     total cpu time spent up to now is       75.2 secs

     total energy              =   -7631.75121332 Ry
     estimated scf accuracy    <     101.25358672 Ry

     total magnetization       =   134.65 Bohr mag/cell
     absolute magnetization    =   185.93 Bohr mag/cell

     iteration #  4     ecut=    50.00 Ry     beta= 0.10
     Davidson diagonalization with overlap
     ethr =  9.26E-03,  avg # of iterations =  1.5

     negative rho (up, down):  2.493E-01 2.320E-07
 
     Adding external electric field

     Computed dipole along edir(3) : 
        Dipole               -2.0340 Ry au,         -5.1699 Debye
        Dipole field         -0.0012 Ry au, 
 
        Potential amp.        0.1373 Ry
        Total length         55.1515 bohr
 
 
     Adding external electric field

     Computed dipole along edir(3) : 
        Dipole               -2.0340 Ry au,         -5.1699 Debye
        Dipole field         -0.0012 Ry au, 
 
        Potential amp.        0.1373 Ry
        Total length         55.1515 bohr
 

     total cpu time spent up to now is       90.1 secs

     total energy              =   -7663.86520831 Ry
     estimated scf accuracy    <      81.38286766 Ry

     total magnetization       =   118.38 Bohr mag/cell
     absolute magnetization    =   171.38 Bohr mag/cell

     iteration #  5     ecut=    50.00 Ry     beta= 0.10
     Davidson diagonalization with overlap
     ethr =  7.45E-03,  avg # of iterations =  1.0

     negative rho (up, down):  2.421E-02 1.014E-07
 
     Adding external electric field

     Computed dipole along edir(3) : 
        Dipole               -1.6255 Ry au,         -4.1315 Debye
        Dipole field         -0.0010 Ry au, 
 
        Potential amp.        0.1097 Ry
        Total length         55.1515 bohr
 
 
     Adding external electric field

     Computed dipole along edir(3) : 
        Dipole               -1.6255 Ry au,         -4.1315 Debye
        Dipole field         -0.0010 Ry au, 
 
        Potential amp.        0.1097 Ry
        Total length         55.1515 bohr
 

     total cpu time spent up to now is      103.6 secs

     total energy              =   -7723.42046023 Ry
     estimated scf accuracy    <      65.24511279 Ry

     total magnetization       =    97.22 Bohr mag/cell
     absolute magnetization    =   153.14 Bohr mag/cell

     iteration #  6     ecut=    50.00 Ry     beta= 0.10
     Davidson diagonalization with overlap
     ethr =  5.97E-03,  avg # of iterations =  1.0

     negative rho (up, down):  4.820E-04 6.959E-04
 
     Adding external electric field

     Computed dipole along edir(3) : 
        Dipole               -1.1829 Ry au,         -3.0065 Debye
        Dipole field         -0.0007 Ry au, 
 
        Potential amp.        0.0799 Ry
        Total length         55.1515 bohr
 
 
     Adding external electric field

     Computed dipole along edir(3) : 
        Dipole               -1.1829 Ry au,         -3.0065 Debye
        Dipole field         -0.0007 Ry au, 
 
        Potential amp.        0.0799 Ry
        Total length         55.1515 bohr
 

     total cpu time spent up to now is      116.5 secs

     total energy              =   -7735.75836845 Ry
     estimated scf accuracy    <      13.99245959 Ry

     total magnetization       =    91.00 Bohr mag/cell
     absolute magnetization    =   124.95 Bohr mag/cell

     iteration #  7     ecut=    50.00 Ry     beta= 0.10
     Davidson diagonalization with overlap
     ethr =  1.28E-03,  avg # of iterations =  5.5

     negative rho (up, down):  4.629E-04 6.739E-04
 
     Adding external electric field

     Computed dipole along edir(3) : 
        Dipole               -1.1670 Ry au,         -2.9661 Debye
        Dipole field         -0.0007 Ry au, 
 
        Potential amp.        0.0788 Ry
        Total length         55.1515 bohr
 
 
     Adding external electric field

     Computed dipole along edir(3) : 
        Dipole               -1.1670 Ry au,         -2.9661 Debye
        Dipole field         -0.0007 Ry au, 
 
        Potential amp.        0.0788 Ry
        Total length         55.1515 bohr
 

     total cpu time spent up to now is      139.3 secs

     total energy              =   -7738.39585183 Ry
     estimated scf accuracy    <      26.49144661 Ry

     total magnetization       =    70.07 Bohr mag/cell
     absolute magnetization    =    87.32 Bohr mag/cell

     iteration #  8     ecut=    50.00 Ry     beta= 0.10
     Davidson diagonalization with overlap
     ethr =  1.28E-03,  avg # of iterations =  1.0

     negative rho (up, down):  4.130E-04 5.974E-04
 
     Adding external electric field

     Computed dipole along edir(3) : 
        Dipole               -1.1244 Ry au,         -2.8581 Debye
        Dipole field         -0.0007 Ry au, 
 
        Potential amp.        0.0759 Ry
        Total length         55.1515 bohr
 
 
     Adding external electric field

     Computed dipole along edir(3) : 
        Dipole               -1.1244 Ry au,         -2.8581 Debye
        Dipole field         -0.0007 Ry au, 
 
        Potential amp.        0.0759 Ry
        Total length         55.1515 bohr
 

     total cpu time spent up to now is      152.2 secs

     total energy              =   -7738.35378199 Ry
     estimated scf accuracy    <      25.45328252 Ry

     total magnetization       =    70.39 Bohr mag/cell
     absolute magnetization    =    87.30 Bohr mag/cell

     iteration #  9     ecut=    50.00 Ry     beta= 0.10
     Davidson diagonalization with overlap
     ethr =  1.28E-03,  avg # of iterations =  1.0

     negative rho (up, down):  1.628E-04 6.429E-04
 
     Adding external electric field

     Computed dipole along edir(3) : 
        Dipole               -0.7544 Ry au,         -1.9174 Debye
        Dipole field         -0.0005 Ry au, 
 
        Potential amp.        0.0509 Ry
        Total length         55.1515 bohr
 
 
     Adding external electric field

     Computed dipole along edir(3) : 
        Dipole               -0.7544 Ry au,         -1.9174 Debye
        Dipole field         -0.0005 Ry au, 
 
        Potential amp.        0.0509 Ry
        Total length         55.1515 bohr
 

     total cpu time spent up to now is      165.2 secs

     total energy              =   -7737.73900935 Ry
     estimated scf accuracy    <      23.16819378 Ry

     total magnetization       =    70.94 Bohr mag/cell
     absolute magnetization    =    87.36 Bohr mag/cell

     iteration # 10     ecut=    50.00 Ry     beta= 0.10
     Davidson diagonalization with overlap
     ethr =  1.28E-03,  avg # of iterations =  1.0

     negative rho (up, down):  2.267E-04 1.359E-03
 
     Adding external electric field

     Computed dipole along edir(3) : 
        Dipole               -0.5850 Ry au,         -1.4870 Debye
        Dipole field         -0.0004 Ry au, 
 
        Potential amp.        0.0395 Ry
        Total length         55.1515 bohr
 
 
     Adding external electric field

     Computed dipole along edir(3) : 
        Dipole               -0.5850 Ry au,         -1.4870 Debye
        Dipole field         -0.0004 Ry au, 
 
        Potential amp.        0.0395 Ry
        Total length         55.1515 bohr
 

     total cpu time spent up to now is      178.0 secs

     total energy              =   -7737.84246670 Ry
     estimated scf accuracy    <       7.02132068 Ry

     total magnetization       =    78.54 Bohr mag/cell
     absolute magnetization    =    90.84 Bohr mag/cell

     iteration # 11     ecut=    50.00 Ry     beta= 0.10
     Davidson diagonalization with overlap
     ethr =  6.42E-04,  avg # of iterations =  1.5

     negative rho (up, down):  1.729E-04 1.207E-03
 
     Adding external electric field

     Computed dipole along edir(3) : 
        Dipole               -0.6194 Ry au,         -1.5744 Debye
        Dipole field         -0.0004 Ry au, 
 
        Potential amp.        0.0418 Ry
        Total length         55.1515 bohr
 
 
     Adding external electric field

     Computed dipole along edir(3) : 
        Dipole               -0.6194 Ry au,         -1.5744 Debye
        Dipole field         -0.0004 Ry au, 
 
        Potential amp.        0.0418 Ry
        Total length         55.1515 bohr
 

     total cpu time spent up to now is      191.3 secs

     total energy              =   -7737.92352577 Ry
     estimated scf accuracy    <       2.63234210 Ry

     total magnetization       =    85.45 Bohr mag/cell
     absolute magnetization    =    95.29 Bohr mag/cell

     iteration # 12     ecut=    50.00 Ry     beta= 0.10
     Davidson diagonalization with overlap
     ethr =  2.41E-04,  avg # of iterations =  1.5

     negative rho (up, down):  5.572E-05 8.746E-04
 
     Adding external electric field

     Computed dipole along edir(3) : 
        Dipole               -0.7048 Ry au,         -1.7915 Debye
        Dipole field         -0.0004 Ry au, 
 
        Potential amp.        0.0476 Ry
        Total length         55.1515 bohr
 
 
     Adding external electric field

     Computed dipole along edir(3) : 
        Dipole               -0.7048 Ry au,         -1.7915 Debye
        Dipole field         -0.0004 Ry au, 
 
        Potential amp.        0.0476 Ry
        Total length         55.1515 bohr
 

     total cpu time spent up to now is      204.7 secs

     total energy              =   -7737.93046932 Ry
     estimated scf accuracy    <       2.35107836 Ry

     total magnetization       =    84.25 Bohr mag/cell
     absolute magnetization    =    94.05 Bohr mag/cell

     iteration # 13     ecut=    50.00 Ry     beta= 0.10
     Davidson diagonalization with overlap
     ethr =  2.15E-04,  avg # of iterations =  7.0

     negative rho (up, down):  5.128E-05 1.096E-03
 
     Adding external electric field

     Computed dipole along edir(3) : 
        Dipole               -0.6706 Ry au,         -1.7045 Debye
        Dipole field         -0.0004 Ry au, 
 
        Potential amp.        0.0453 Ry
        Total length         55.1515 bohr
 
 
     Adding external electric field

     Computed dipole along edir(3) : 
        Dipole               -0.6706 Ry au,         -1.7045 Debye
        Dipole field         -0.0004 Ry au, 
 
        Potential amp.        0.0453 Ry
        Total length         55.1515 bohr
 

     total cpu time spent up to now is      220.8 secs

     total energy              =   -7737.98214898 Ry
     estimated scf accuracy    <       3.57791586 Ry

     total magnetization       =    81.45 Bohr mag/cell
     absolute magnetization    =    90.65 Bohr mag/cell

     iteration # 14     ecut=    50.00 Ry     beta= 0.10
     Davidson diagonalization with overlap
     ethr =  2.15E-04,  avg # of iterations =  1.5

     negative rho (up, down):  2.364E-04 1.352E-03
 
     Adding external electric field

     Computed dipole along edir(3) : 
        Dipole               -0.5274 Ry au,         -1.3406 Debye
        Dipole field         -0.0003 Ry au, 
 
        Potential amp.        0.0356 Ry
        Total length         55.1515 bohr
 
 
     Adding external electric field

     Computed dipole along edir(3) : 
        Dipole               -0.5274 Ry au,         -1.3406 Debye
        Dipole field         -0.0003 Ry au, 
 
        Potential amp.        0.0356 Ry
        Total length         55.1515 bohr
 

     total cpu time spent up to now is      233.7 secs

     total energy              =   -7738.04996549 Ry
     estimated scf accuracy    <       2.70152426 Ry

     total magnetization       =    82.15 Bohr mag/cell
     absolute magnetization    =    90.61 Bohr mag/cell

     iteration # 15     ecut=    50.00 Ry     beta= 0.10
     Davidson diagonalization with overlap
     ethr =  2.15E-04,  avg # of iterations =  1.5

     negative rho (up, down):  2.244E-04 1.256E-03
 
     Adding external electric field

     Computed dipole along edir(3) : 
        Dipole               -0.4792 Ry au,         -1.2180 Debye
        Dipole field         -0.0003 Ry au, 
 
        Potential amp.        0.0324 Ry
        Total length         55.1515 bohr
 
 
     Adding external electric field

     Computed dipole along edir(3) : 
        Dipole               -0.4792 Ry au,         -1.2180 Debye
        Dipole field         -0.0003 Ry au, 
 
        Potential amp.        0.0324 Ry
        Total length         55.1515 bohr
 

     total cpu time spent up to now is      246.8 secs

     total energy              =   -7738.14918684 Ry
     estimated scf accuracy    <       0.43290983 Ry

     total magnetization       =    89.18 Bohr mag/cell
     absolute magnetization    =    94.99 Bohr mag/cell

     iteration # 16     ecut=    50.00 Ry     beta= 0.10
     Davidson diagonalization with overlap
     ethr =  3.96E-05,  avg # of iterations = 11.0

     negative rho (up, down):  1.826E-04 5.824E-04
 
     Adding external electric field

     Computed dipole along edir(3) : 
        Dipole               -0.3031 Ry au,         -0.7705 Debye
        Dipole field         -0.0002 Ry au, 
 
        Potential amp.        0.0205 Ry
        Total length         55.1515 bohr
 
 
     Adding external electric field

     Computed dipole along edir(3) : 
        Dipole               -0.3031 Ry au,         -0.7705 Debye
        Dipole field         -0.0002 Ry au, 
 
        Potential amp.        0.0205 Ry
        Total length         55.1515 bohr
 

     total cpu time spent up to now is      269.4 secs

     total energy              =   -7738.27073058 Ry
     estimated scf accuracy    <       0.52426595 Ry

     total magnetization       =    89.28 Bohr mag/cell
     absolute magnetization    =    94.54 Bohr mag/cell

     iteration # 17     ecut=    50.00 Ry     beta= 0.10
     Davidson diagonalization with overlap
     ethr =  3.96E-05,  avg # of iterations =  2.0

     negative rho (up, down):  1.766E-04 6.642E-04
 
     Adding external electric field

     Computed dipole along edir(3) : 
        Dipole               -0.3240 Ry au,         -0.8235 Debye
        Dipole field         -0.0002 Ry au, 
 
        Potential amp.        0.0219 Ry
        Total length         55.1515 bohr
 
 
     Adding external electric field

     Computed dipole along edir(3) : 
        Dipole               -0.3240 Ry au,         -0.8235 Debye
        Dipole field         -0.0002 Ry au, 
 
        Potential amp.        0.0219 Ry
        Total length         55.1515 bohr
 

     total cpu time spent up to now is      283.8 secs

     total energy              =   -7738.29992829 Ry
     estimated scf accuracy    <       1.53679844 Ry

     total magnetization       =    88.27 Bohr mag/cell
     absolute magnetization    =    91.22 Bohr mag/cell

     iteration # 18     ecut=    50.00 Ry     beta= 0.10
     Davidson diagonalization with overlap
     ethr =  3.96E-05,  avg # of iterations =  1.5

     negative rho (up, down):  1.494E-04 6.465E-04
 
     Adding external electric field

     Computed dipole along edir(3) : 
        Dipole               -0.3528 Ry au,         -0.8968 Debye
        Dipole field         -0.0002 Ry au, 
 
        Potential amp.        0.0238 Ry
        Total length         55.1515 bohr
 
 
     Adding external electric field

     Computed dipole along edir(3) : 
        Dipole               -0.3528 Ry au,         -0.8968 Debye
        Dipole field         -0.0002 Ry au, 
 
        Potential amp.        0.0238 Ry
        Total length         55.1515 bohr
 

     total cpu time spent up to now is      297.2 secs

     total energy              =   -7738.29983219 Ry
     estimated scf accuracy    <       0.70156233 Ry

     total magnetization       =    88.53 Bohr mag/cell
     absolute magnetization    =    90.65 Bohr mag/cell

     iteration # 19     ecut=    50.00 Ry     beta= 0.10
     Davidson diagonalization with overlap
     ethr =  3.96E-05,  avg # of iterations =  1.5

     negative rho (up, down):  1.184E-04 6.413E-04
 
     Adding external electric field

     Computed dipole along edir(3) : 
        Dipole               -0.3862 Ry au,         -0.9817 Debye
        Dipole field         -0.0002 Ry au, 
 
        Potential amp.        0.0261 Ry
        Total length         55.1515 bohr
 
 
     Adding external electric field

     Computed dipole along edir(3) : 
        Dipole               -0.3862 Ry au,         -0.9817 Debye
        Dipole field         -0.0002 Ry au, 
 
        Potential amp.        0.0261 Ry
        Total length         55.1515 bohr
 

     total cpu time spent up to now is      309.4 secs

     total energy              =   -7738.29055179 Ry
     estimated scf accuracy    <       0.49736439 Ry

     total magnetization       =    88.62 Bohr mag/cell
     absolute magnetization    =    90.78 Bohr mag/cell

     iteration # 20     ecut=    50.00 Ry     beta= 0.10
     Davidson diagonalization with overlap
     ethr =  3.96E-05,  avg # of iterations =  1.5

     negative rho (up, down):  2.430E-05 4.117E-04
 
     Adding external electric field

     Computed dipole along edir(3) : 
        Dipole               -0.3394 Ry au,         -0.8627 Debye
        Dipole field         -0.0002 Ry au, 
 
        Potential amp.        0.0229 Ry
        Total length         55.1515 bohr
 
 
     Adding external electric field

     Computed dipole along edir(3) : 
        Dipole               -0.3394 Ry au,         -0.8627 Debye
        Dipole field         -0.0002 Ry au, 
 
        Potential amp.        0.0229 Ry
        Total length         55.1515 bohr
 

     total cpu time spent up to now is      321.2 secs

     total energy              =   -7738.29890534 Ry
     estimated scf accuracy    <       0.27882418 Ry

     total magnetization       =    88.82 Bohr mag/cell
     absolute magnetization    =    91.02 Bohr mag/cell

     iteration # 21     ecut=    50.00 Ry     beta= 0.10
     Davidson diagonalization with overlap
     ethr =  2.55E-05,  avg # of iterations =  1.5

     negative rho (up, down):  2.605E-06 2.769E-05
 
     Adding external electric field

     Computed dipole along edir(3) : 
        Dipole               -0.3002 Ry au,         -0.7630 Debye
        Dipole field         -0.0002 Ry au, 
 
        Potential amp.        0.0203 Ry
        Total length         55.1515 bohr
 
 
     Adding external electric field

     Computed dipole along edir(3) : 
        Dipole               -0.3002 Ry au,         -0.7630 Debye
        Dipole field         -0.0002 Ry au, 
 
        Potential amp.        0.0203 Ry
        Total length         55.1515 bohr
 

     total cpu time spent up to now is      334.1 secs

     total energy              =   -7738.30236705 Ry
     estimated scf accuracy    <       0.19120936 Ry

     total magnetization       =    89.23 Bohr mag/cell
     absolute magnetization    =    90.85 Bohr mag/cell

     iteration # 22     ecut=    50.00 Ry     beta= 0.10
     Davidson diagonalization with overlap
     ethr =  1.75E-05,  avg # of iterations = 16.0

     negative rho (up, down):  1.395E-06 2.298E-05
 
     Adding external electric field

     Computed dipole along edir(3) : 
        Dipole               -0.2975 Ry au,         -0.7562 Debye
        Dipole field         -0.0002 Ry au, 
 
        Potential amp.        0.0201 Ry
        Total length         55.1515 bohr
 
 
     Adding external electric field

     Computed dipole along edir(3) : 
        Dipole               -0.2975 Ry au,         -0.7562 Debye
        Dipole field         -0.0002 Ry au, 
 
        Potential amp.        0.0201 Ry
        Total length         55.1515 bohr
 

     total cpu time spent up to now is      362.1 secs

     total energy              =   -7738.30639940 Ry
     estimated scf accuracy    <       0.08521791 Ry

     total magnetization       =    88.65 Bohr mag/cell
     absolute magnetization    =    89.95 Bohr mag/cell

     iteration # 23     ecut=    50.00 Ry     beta= 0.10
     Davidson diagonalization with overlap
     ethr =  7.80E-06,  avg # of iterations =  2.0

     negative rho (up, down):  5.884E-06 1.319E-05
 
     Adding external electric field

     Computed dipole along edir(3) : 
        Dipole               -0.2554 Ry au,         -0.6492 Debye
        Dipole field         -0.0002 Ry au, 
 
        Potential amp.        0.0172 Ry
        Total length         55.1515 bohr
 
 
     Adding external electric field

     Computed dipole along edir(3) : 
        Dipole               -0.2554 Ry au,         -0.6492 Debye
        Dipole field         -0.0002 Ry au, 
 
        Potential amp.        0.0172 Ry
        Total length         55.1515 bohr
 

     total cpu time spent up to now is      375.7 secs

     total energy              =   -7738.30590757 Ry
     estimated scf accuracy    <       0.07887673 Ry

     total magnetization       =    88.63 Bohr mag/cell
     absolute magnetization    =    89.95 Bohr mag/cell

     iteration # 24     ecut=    50.00 Ry     beta= 0.10
     Davidson diagonalization with overlap
     c_bands:  1 eigenvalues not converged
     ethr =  7.22E-06,  avg # of iterations = 11.0

     negative rho (up, down):  3.080E-06 7.460E-06
 
     Adding external electric field

     Computed dipole along edir(3) : 
        Dipole               -0.2356 Ry au,         -0.5989 Debye
        Dipole field         -0.0001 Ry au, 
 
        Potential amp.        0.0159 Ry
        Total length         55.1515 bohr
 
 
     Adding external electric field

     Computed dipole along edir(3) : 
        Dipole               -0.2356 Ry au,         -0.5989 Debye
        Dipole field         -0.0001 Ry au, 
 
        Potential amp.        0.0159 Ry
        Total length         55.1515 bohr
 

     total cpu time spent up to now is      393.4 secs

     total energy              =   -7738.30562048 Ry
     estimated scf accuracy    <       0.06912599 Ry

     total magnetization       =    88.22 Bohr mag/cell
     absolute magnetization    =    89.53 Bohr mag/cell

     iteration # 25     ecut=    50.00 Ry     beta= 0.10
     Davidson diagonalization with overlap
     ethr =  6.32E-06,  avg # of iterations =  2.0

     negative rho (up, down):  2.595E-08 5.587E-07
 
     Adding external electric field

     Computed dipole along edir(3) : 
        Dipole               -0.2570 Ry au,         -0.6533 Debye
        Dipole field         -0.0002 Ry au, 
 
        Potential amp.        0.0174 Ry
        Total length         55.1515 bohr
 
 
     Adding external electric field

     Computed dipole along edir(3) : 
        Dipole               -0.2570 Ry au,         -0.6533 Debye
        Dipole field         -0.0002 Ry au, 
 
        Potential amp.        0.0174 Ry
        Total length         55.1515 bohr
 

     total cpu time spent up to now is      406.7 secs

     total energy              =   -7738.30356363 Ry
     estimated scf accuracy    <       0.07356614 Ry

     total magnetization       =    88.22 Bohr mag/cell
     absolute magnetization    =    89.55 Bohr mag/cell

     iteration # 26     ecut=    50.00 Ry     beta= 0.10
     Davidson diagonalization with overlap
     ethr =  6.32E-06,  avg # of iterations =  1.5

     negative rho (up, down):  9.158E-09 2.030E-08
 
     Adding external electric field

     Computed dipole along edir(3) : 
        Dipole               -0.2551 Ry au,         -0.6485 Debye
        Dipole field         -0.0002 Ry au, 
 
        Potential amp.        0.0172 Ry
        Total length         55.1515 bohr
 
 
     Adding external electric field

     Computed dipole along edir(3) : 
        Dipole               -0.2551 Ry au,         -0.6485 Debye
        Dipole field         -0.0002 Ry au, 
 
        Potential amp.        0.0172 Ry
        Total length         55.1515 bohr
 

     total cpu time spent up to now is      419.7 secs

     total energy              =   -7738.30680185 Ry
     estimated scf accuracy    <       0.05311145 Ry

     total magnetization       =    88.44 Bohr mag/cell
     absolute magnetization    =    89.90 Bohr mag/cell

     iteration # 27     ecut=    50.00 Ry     beta= 0.10
     Davidson diagonalization with overlap
     ethr =  4.86E-06,  avg # of iterations =  2.0

     negative rho (up, down):  1.929E-07 1.051E-07
 
     Adding external electric field

     Computed dipole along edir(3) : 
        Dipole               -0.2457 Ry au,         -0.6244 Debye
        Dipole field         -0.0002 Ry au, 
 
        Potential amp.        0.0166 Ry
        Total length         55.1515 bohr
 
 
     Adding external electric field

     Computed dipole along edir(3) : 
        Dipole               -0.2457 Ry au,         -0.6244 Debye
        Dipole field         -0.0002 Ry au, 
 
        Potential amp.        0.0166 Ry
        Total length         55.1515 bohr
 

     total cpu time spent up to now is      433.6 secs

     total energy              =   -7738.30703427 Ry
     estimated scf accuracy    <       0.05297719 Ry

     total magnetization       =    88.61 Bohr mag/cell
     absolute magnetization    =    90.15 Bohr mag/cell

     iteration # 28     ecut=    50.00 Ry     beta= 0.10
     Davidson diagonalization with overlap
     ethr =  4.85E-06,  avg # of iterations =  1.0

     negative rho (up, down):  5.719E-08 6.408E-08
 
     Adding external electric field

     Computed dipole along edir(3) : 
        Dipole               -0.2379 Ry au,         -0.6047 Debye
        Dipole field         -0.0001 Ry au, 
 
        Potential amp.        0.0161 Ry
        Total length         55.1515 bohr
 
 
     Adding external electric field

     Computed dipole along edir(3) : 
        Dipole               -0.2379 Ry au,         -0.6047 Debye
        Dipole field         -0.0001 Ry au, 
 
        Potential amp.        0.0161 Ry
        Total length         55.1515 bohr
 

     total cpu time spent up to now is      445.6 secs

     total energy              =   -7738.30643607 Ry
     estimated scf accuracy    <       0.05143354 Ry

     total magnetization       =    88.69 Bohr mag/cell
     absolute magnetization    =    90.20 Bohr mag/cell

     iteration # 29     ecut=    50.00 Ry     beta= 0.10
     Davidson diagonalization with overlap
     ethr =  4.71E-06,  avg # of iterations =  2.0

     negative rho (up, down):  2.175E-08 4.127E-08
 
     Adding external electric field

     Computed dipole along edir(3) : 
        Dipole               -0.2365 Ry au,         -0.6011 Debye
        Dipole field         -0.0001 Ry au, 
 
        Potential amp.        0.0160 Ry
        Total length         55.1515 bohr
 
 
     Adding external electric field

     Computed dipole along edir(3) : 
        Dipole               -0.2365 Ry au,         -0.6011 Debye
        Dipole field         -0.0001 Ry au, 
 
        Potential amp.        0.0160 Ry
        Total length         55.1515 bohr
 

     total cpu time spent up to now is      459.1 secs

     total energy              =   -7738.30573387 Ry
     estimated scf accuracy    <       0.05133314 Ry

     total magnetization       =    88.27 Bohr mag/cell
     absolute magnetization    =    89.85 Bohr mag/cell

     iteration # 30     ecut=    50.00 Ry     beta= 0.10
     Davidson diagonalization with overlap
     ethr =  4.70E-06,  avg # of iterations =  2.0

     negative rho (up, down):  3.048E-07 3.012E-07
 
     Adding external electric field

     Computed dipole along edir(3) : 
        Dipole               -0.2022 Ry au,         -0.5139 Debye
        Dipole field         -0.0001 Ry au, 
 
        Potential amp.        0.0137 Ry
        Total length         55.1515 bohr
 
 
     Adding external electric field

     Computed dipole along edir(3) : 
        Dipole               -0.2022 Ry au,         -0.5139 Debye
        Dipole field         -0.0001 Ry au, 
 
        Potential amp.        0.0137 Ry
        Total length         55.1515 bohr
 

     total cpu time spent up to now is      473.2 secs

     total energy              =   -7738.30467803 Ry
     estimated scf accuracy    <       0.04795502 Ry

     total magnetization       =    88.37 Bohr mag/cell
     absolute magnetization    =    89.99 Bohr mag/cell

     iteration # 31     ecut=    50.00 Ry     beta= 0.10
     Davidson diagonalization with overlap
     ethr =  4.39E-06,  avg # of iterations =  2.0

     negative rho (up, down):  3.057E-06 3.639E-06
 
     Adding external electric field

     Computed dipole along edir(3) : 
        Dipole               -0.1724 Ry au,         -0.4382 Debye
        Dipole field         -0.0001 Ry au, 
 
        Potential amp.        0.0116 Ry
        Total length         55.1515 bohr
 
 
     Adding external electric field

     Computed dipole along edir(3) : 
        Dipole               -0.1724 Ry au,         -0.4382 Debye
        Dipole field         -0.0001 Ry au, 
 
        Potential amp.        0.0116 Ry
        Total length         55.1515 bohr
 

     total cpu time spent up to now is      487.0 secs

     total energy              =   -7738.30414598 Ry
     estimated scf accuracy    <       0.05127816 Ry

     total magnetization       =    88.28 Bohr mag/cell
     absolute magnetization    =    89.99 Bohr mag/cell

     iteration # 32     ecut=    50.00 Ry     beta= 0.10
     Davidson diagonalization with overlap
     ethr =  4.39E-06,  avg # of iterations =  2.0

     negative rho (up, down):  6.127E-07 5.587E-07
 
     Adding external electric field

     Computed dipole along edir(3) : 
        Dipole               -0.2226 Ry au,         -0.5658 Debye
        Dipole field         -0.0001 Ry au, 
 
        Potential amp.        0.0150 Ry
        Total length         55.1515 bohr
 
 
     Adding external electric field

     Computed dipole along edir(3) : 
        Dipole               -0.2226 Ry au,         -0.5658 Debye
        Dipole field         -0.0001 Ry au, 
 
        Potential amp.        0.0150 Ry
        Total length         55.1515 bohr
 

     total cpu time spent up to now is      501.2 secs

     total energy              =   -7738.30531716 Ry
     estimated scf accuracy    <       0.04469847 Ry

     total magnetization       =    88.27 Bohr mag/cell
     absolute magnetization    =    90.00 Bohr mag/cell

     iteration # 33     ecut=    50.00 Ry     beta= 0.10
     Davidson diagonalization with overlap
     ethr =  4.09E-06,  avg # of iterations =  1.5

     negative rho (up, down):  1.546E-06 1.725E-06
 
     Adding external electric field

     Computed dipole along edir(3) : 
        Dipole               -0.1620 Ry au,         -0.4117 Debye
        Dipole field         -0.0001 Ry au, 
 
        Potential amp.        0.0109 Ry
        Total length         55.1515 bohr
 
 
     Adding external electric field

     Computed dipole along edir(3) : 
        Dipole               -0.1620 Ry au,         -0.4117 Debye
        Dipole field         -0.0001 Ry au, 
 
        Potential amp.        0.0109 Ry
        Total length         55.1515 bohr
 

     total cpu time spent up to now is      514.5 secs

     total energy              =   -7738.30452456 Ry
     estimated scf accuracy    <       0.04542356 Ry

     total magnetization       =    88.38 Bohr mag/cell
     absolute magnetization    =    90.07 Bohr mag/cell

     iteration # 34     ecut=    50.00 Ry     beta= 0.10
     Davidson diagonalization with overlap
     ethr =  4.09E-06,  avg # of iterations =  2.0

     negative rho (up, down):  2.366E-06 2.153E-06
 
     Adding external electric field

     Computed dipole along edir(3) : 
        Dipole               -0.1597 Ry au,         -0.4059 Debye
        Dipole field         -0.0001 Ry au, 
 
        Potential amp.        0.0108 Ry
        Total length         55.1515 bohr
 
 
     Adding external electric field

     Computed dipole along edir(3) : 
        Dipole               -0.1597 Ry au,         -0.4059 Debye
        Dipole field         -0.0001 Ry au, 
 
        Potential amp.        0.0108 Ry
        Total length         55.1515 bohr
 

     total cpu time spent up to now is      528.5 secs

     total energy              =   -7738.30560030 Ry
     estimated scf accuracy    <       0.04788682 Ry

     total magnetization       =    88.20 Bohr mag/cell
     absolute magnetization    =    89.89 Bohr mag/cell

     iteration # 35     ecut=    50.00 Ry     beta= 0.10
     Davidson diagonalization with overlap
     ethr =  4.09E-06,  avg # of iterations =  2.0

     negative rho (up, down):  1.122E-06 1.077E-06
 
     Adding external electric field

     Computed dipole along edir(3) : 
        Dipole               -0.1846 Ry au,         -0.4692 Debye
        Dipole field         -0.0001 Ry au, 
 
        Potential amp.        0.0125 Ry
        Total length         55.1515 bohr
 
 
     Adding external electric field

     Computed dipole along edir(3) : 
        Dipole               -0.1846 Ry au,         -0.4692 Debye
        Dipole field         -0.0001 Ry au, 
 
        Potential amp.        0.0125 Ry
        Total length         55.1515 bohr
 

     total cpu time spent up to now is      543.0 secs

     total energy              =   -7738.30564815 Ry
     estimated scf accuracy    <       0.04813469 Ry

     total magnetization       =    88.36 Bohr mag/cell
     absolute magnetization    =    89.92 Bohr mag/cell

     iteration # 36     ecut=    50.00 Ry     beta= 0.10
     Davidson diagonalization with overlap
     ethr =  4.09E-06,  avg # of iterations =  1.0

     negative rho (up, down):  1.057E-06 2.906E-06
 
     Adding external electric field

     Computed dipole along edir(3) : 
        Dipole               -0.1033 Ry au,         -0.2626 Debye
        Dipole field         -0.0001 Ry au, 
 
        Potential amp.        0.0070 Ry
        Total length         55.1515 bohr
 
 
     Adding external electric field

     Computed dipole along edir(3) : 
        Dipole               -0.1033 Ry au,         -0.2626 Debye
        Dipole field         -0.0001 Ry au, 
 
        Potential amp.        0.0070 Ry
        Total length         55.1515 bohr
 

     total cpu time spent up to now is      555.6 secs

     total energy              =   -7738.30442656 Ry
     estimated scf accuracy    <       0.04929402 Ry

     total magnetization       =    88.33 Bohr mag/cell
     absolute magnetization    =    89.93 Bohr mag/cell

     iteration # 37     ecut=    50.00 Ry     beta= 0.10
     Davidson diagonalization with overlap
     ethr =  4.09E-06,  avg # of iterations =  2.0

     negative rho (up, down):  9.620E-06 9.910E-06
 
     Adding external electric field

     Computed dipole along edir(3) : 
        Dipole               -0.0674 Ry au,         -0.1713 Debye
        Dipole field         -0.0000 Ry au, 
 
        Potential amp.        0.0046 Ry
        Total length         55.1515 bohr
 
 
     Adding external electric field

     Computed dipole along edir(3) : 
        Dipole               -0.0674 Ry au,         -0.1713 Debye
        Dipole field         -0.0000 Ry au, 
 
        Potential amp.        0.0046 Ry
        Total length         55.1515 bohr
 

     total cpu time spent up to now is      570.0 secs

     total energy              =   -7738.30515000 Ry
     estimated scf accuracy    <       0.04727475 Ry

     total magnetization       =    88.21 Bohr mag/cell
     absolute magnetization    =    89.74 Bohr mag/cell

     iteration # 38     ecut=    50.00 Ry     beta= 0.10
     Davidson diagonalization with overlap
     ethr =  4.09E-06,  avg # of iterations =  2.0

     negative rho (up, down):  5.974E-05 6.644E-05
 
     Adding external electric field

     Computed dipole along edir(3) : 
        Dipole               -0.1424 Ry au,         -0.3619 Debye
        Dipole field         -0.0001 Ry au, 
 
        Potential amp.        0.0096 Ry
        Total length         55.1515 bohr
 
 
     Adding external electric field

     Computed dipole along edir(3) : 
        Dipole               -0.1424 Ry au,         -0.3619 Debye
        Dipole field         -0.0001 Ry au, 
 
        Potential amp.        0.0096 Ry
        Total length         55.1515 bohr
 

     total cpu time spent up to now is      584.5 secs

     total energy              =   -7738.30576595 Ry
     estimated scf accuracy    <       0.04736275 Ry

     total magnetization       =    88.21 Bohr mag/cell
     absolute magnetization    =    89.73 Bohr mag/cell

     iteration # 39     ecut=    50.00 Ry     beta= 0.10
     Davidson diagonalization with overlap
     ethr =  4.09E-06,  avg # of iterations =  2.0

     negative rho (up, down):  4.595E-05 5.193E-05
 
     Adding external electric field

     Computed dipole along edir(3) : 
        Dipole               -0.1786 Ry au,         -0.4540 Debye
        Dipole field         -0.0001 Ry au, 
 
        Potential amp.        0.0121 Ry
        Total length         55.1515 bohr
 
 
     Adding external electric field

     Computed dipole along edir(3) : 
        Dipole               -0.1786 Ry au,         -0.4540 Debye
        Dipole field         -0.0001 Ry au, 
 
        Potential amp.        0.0121 Ry
        Total length         55.1515 bohr
 

     total cpu time spent up to now is      598.9 secs

     total energy              =   -7738.30645396 Ry
     estimated scf accuracy    <       0.03593526 Ry

     total magnetization       =    88.24 Bohr mag/cell
     absolute magnetization    =    89.65 Bohr mag/cell

     iteration # 40     ecut=    50.00 Ry     beta= 0.10
     Davidson diagonalization with overlap
     ethr =  3.29E-06,  avg # of iterations =  1.0

     negative rho (up, down):  3.569E-05 4.267E-05
 
     Adding external electric field

     Computed dipole along edir(3) : 
        Dipole                0.0006 Ry au,          0.0016 Debye
        Dipole field          0.0000 Ry au, 
 
        Potential amp.       -0.0000 Ry
        Total length         55.1515 bohr
 
 
     Adding external electric field

     Computed dipole along edir(3) : 
        Dipole                0.0006 Ry au,          0.0016 Debye
        Dipole field          0.0000 Ry au, 
 
        Potential amp.       -0.0000 Ry
        Total length         55.1515 bohr
 

     total cpu time spent up to now is      611.1 secs

     total energy              =   -7738.30438633 Ry
     estimated scf accuracy    <       0.03612014 Ry

     total magnetization       =    88.25 Bohr mag/cell
     absolute magnetization    =    89.66 Bohr mag/cell

     iteration # 41     ecut=    50.00 Ry     beta= 0.10
     Davidson diagonalization with overlap
     ethr =  3.29E-06,  avg # of iterations =  2.0

     negative rho (up, down):  3.182E-05 4.326E-05
 
     Adding external electric field

     Computed dipole along edir(3) : 
        Dipole               -0.0150 Ry au,         -0.0381 Debye
        Dipole field         -0.0000 Ry au, 
 
        Potential amp.        0.0010 Ry
        Total length         55.1515 bohr
 
 
     Adding external electric field

     Computed dipole along edir(3) : 
        Dipole               -0.0150 Ry au,         -0.0381 Debye
        Dipole field         -0.0000 Ry au, 
 
        Potential amp.        0.0010 Ry
        Total length         55.1515 bohr
 

     total cpu time spent up to now is      625.4 secs

     total energy              =   -7738.30493928 Ry
     estimated scf accuracy    <       0.03224410 Ry

     total magnetization       =    88.19 Bohr mag/cell
     absolute magnetization    =    89.53 Bohr mag/cell

     iteration # 42     ecut=    50.00 Ry     beta= 0.10
     Davidson diagonalization with overlap
     ethr =  2.95E-06,  avg # of iterations =  1.0

     negative rho (up, down):  3.217E-05 5.787E-05
 
     Adding external electric field

     Computed dipole along edir(3) : 
        Dipole                0.0126 Ry au,          0.0320 Debye
        Dipole field          0.0000 Ry au, 
 
        Potential amp.       -0.0008 Ry
        Total length         55.1515 bohr
 
 
     Adding external electric field

     Computed dipole along edir(3) : 
        Dipole                0.0126 Ry au,          0.0320 Debye
        Dipole field          0.0000 Ry au, 
 
        Potential amp.       -0.0008 Ry
        Total length         55.1515 bohr
 

     total cpu time spent up to now is      637.8 secs

     total energy              =   -7738.30397872 Ry
     estimated scf accuracy    <       0.03219107 Ry

     total magnetization       =    88.18 Bohr mag/cell
     absolute magnetization    =    89.52 Bohr mag/cell

     iteration # 43     ecut=    50.00 Ry     beta= 0.10
     Davidson diagonalization with overlap
     ethr =  2.95E-06,  avg # of iterations =  2.0

     negative rho (up, down):  3.401E-05 4.299E-05
 
     Adding external electric field

     Computed dipole along edir(3) : 
        Dipole               -0.0199 Ry au,         -0.0506 Debye
        Dipole field         -0.0000 Ry au, 
 
        Potential amp.        0.0013 Ry
        Total length         55.1515 bohr
 
 
     Adding external electric field

     Computed dipole along edir(3) : 
        Dipole               -0.0199 Ry au,         -0.0506 Debye
        Dipole field         -0.0000 Ry au, 
 
        Potential amp.        0.0013 Ry
        Total length         55.1515 bohr
 

     total cpu time spent up to now is      651.8 secs

     total energy              =   -7738.30455498 Ry
     estimated scf accuracy    <       0.03758496 Ry

     total magnetization       =    88.12 Bohr mag/cell
     absolute magnetization    =    89.37 Bohr mag/cell

     iteration # 44     ecut=    50.00 Ry     beta= 0.10
     Davidson diagonalization with overlap
     ethr =  2.95E-06,  avg # of iterations =  1.0

     negative rho (up, down):  3.124E-05 3.713E-05
 
     Adding external electric field

     Computed dipole along edir(3) : 
        Dipole                0.0065 Ry au,          0.0165 Debye
        Dipole field          0.0000 Ry au, 
 
        Potential amp.       -0.0004 Ry
        Total length         55.1515 bohr
 
 
     Adding external electric field

     Computed dipole along edir(3) : 
        Dipole                0.0065 Ry au,          0.0165 Debye
        Dipole field          0.0000 Ry au, 
 
        Potential amp.       -0.0004 Ry
        Total length         55.1515 bohr
 

     total cpu time spent up to now is      663.7 secs

     total energy              =   -7738.30489011 Ry
     estimated scf accuracy    <       0.03422127 Ry

     total magnetization       =    88.26 Bohr mag/cell
     absolute magnetization    =    89.56 Bohr mag/cell

     iteration # 45     ecut=    50.00 Ry     beta= 0.10
     Davidson diagonalization with overlap
     ethr =  2.95E-06,  avg # of iterations =  2.0

     negative rho (up, down):  2.265E-04 4.316E-04
 
     Adding external electric field

     Computed dipole along edir(3) : 
        Dipole               -0.0082 Ry au,         -0.0208 Debye
        Dipole field         -0.0000 Ry au, 
 
        Potential amp.        0.0006 Ry
        Total length         55.1515 bohr
 
 
     Adding external electric field

     Computed dipole along edir(3) : 
        Dipole               -0.0082 Ry au,         -0.0208 Debye
        Dipole field         -0.0000 Ry au, 
 
        Potential amp.        0.0006 Ry
        Total length         55.1515 bohr
 

     total cpu time spent up to now is      677.7 secs

     total energy              =   -7738.30385208 Ry
     estimated scf accuracy    <       0.03517802 Ry

     total magnetization       =    88.23 Bohr mag/cell
     absolute magnetization    =    89.53 Bohr mag/cell

     iteration # 46     ecut=    50.00 Ry     beta= 0.10
     Davidson diagonalization with overlap
     ethr =  2.95E-06,  avg # of iterations =  2.0

     negative rho (up, down):  8.534E-05 1.969E-04
 
     Adding external electric field

     Computed dipole along edir(3) : 
        Dipole               -0.0164 Ry au,         -0.0416 Debye
        Dipole field         -0.0000 Ry au, 
 
        Potential amp.        0.0011 Ry
        Total length         55.1515 bohr
 
 
     Adding external electric field

     Computed dipole along edir(3) : 
        Dipole               -0.0164 Ry au,         -0.0416 Debye
        Dipole field         -0.0000 Ry au, 
 
        Potential amp.        0.0011 Ry
        Total length         55.1515 bohr
 

     total cpu time spent up to now is      691.6 secs

     total energy              =   -7738.30314370 Ry
     estimated scf accuracy    <       0.03193108 Ry

     total magnetization       =    88.18 Bohr mag/cell
     absolute magnetization    =    89.54 Bohr mag/cell

     iteration # 47     ecut=    50.00 Ry     beta= 0.10
     Davidson diagonalization with overlap
     ethr =  2.92E-06,  avg # of iterations =  2.0

     negative rho (up, down):  5.922E-03 6.504E-03
 
     Adding external electric field

     Computed dipole along edir(3) : 
        Dipole                0.1830 Ry au,          0.4653 Debye
        Dipole field          0.0001 Ry au, 
 
        Potential amp.       -0.0124 Ry
        Total length         55.1515 bohr
 
 
     Adding external electric field

     Computed dipole along edir(3) : 
        Dipole                0.1830 Ry au,          0.4653 Debye
        Dipole field          0.0001 Ry au, 
 
        Potential amp.       -0.0124 Ry
        Total length         55.1515 bohr
 

     total cpu time spent up to now is      705.7 secs

     total energy              =   -7738.30238744 Ry
     estimated scf accuracy    <       0.02777048 Ry

     total magnetization       =    88.13 Bohr mag/cell
     absolute magnetization    =    89.56 Bohr mag/cell

     iteration # 48     ecut=    50.00 Ry     beta= 0.10
     Davidson diagonalization with overlap
     c_bands:  5 eigenvalues not converged
     ethr =  2.54E-06,  avg # of iterations = 21.0

     negative rho (up, down):  1.084E-02 1.129E-02
 
     Adding external electric field

     Computed dipole along edir(3) : 
        Dipole                0.2808 Ry au,          0.7138 Debye
        Dipole field          0.0002 Ry au, 
 
        Potential amp.       -0.0190 Ry
        Total length         55.1515 bohr
 
 
     Adding external electric field

     Computed dipole along edir(3) : 
        Dipole                0.2808 Ry au,          0.7138 Debye
        Dipole field          0.0002 Ry au, 
 
        Potential amp.       -0.0190 Ry
        Total length         55.1515 bohr
 

     total cpu time spent up to now is      737.3 secs

     total energy              =   -7738.30256329 Ry
     estimated scf accuracy    <       0.01769469 Ry

     total magnetization       =    88.23 Bohr mag/cell
     absolute magnetization    =    89.70 Bohr mag/cell

     iteration # 49     ecut=    50.00 Ry     beta= 0.10
     Davidson diagonalization with overlap
     c_bands:  3 eigenvalues not converged
     ethr =  1.62E-06,  avg # of iterations = 11.0

     negative rho (up, down):  1.085E-02 1.088E-02
 
     Adding external electric field

     Computed dipole along edir(3) : 
        Dipole                0.3111 Ry au,          0.7908 Debye
        Dipole field          0.0002 Ry au, 
 
        Potential amp.       -0.0210 Ry
        Total length         55.1515 bohr
 
 
     Adding external electric field

     Computed dipole along edir(3) : 
        Dipole                0.3111 Ry au,          0.7908 Debye
        Dipole field          0.0002 Ry au, 
 
        Potential amp.       -0.0210 Ry
        Total length         55.1515 bohr
 

     total cpu time spent up to now is      758.9 secs

     total energy              =   -7738.30198992 Ry
     estimated scf accuracy    <       0.01479734 Ry

     total magnetization       =    88.25 Bohr mag/cell
     absolute magnetization    =    89.73 Bohr mag/cell

     iteration # 50     ecut=    50.00 Ry     beta= 0.10
     Davidson diagonalization with overlap
     c_bands:  1 eigenvalues not converged
     ethr =  1.35E-06,  avg # of iterations = 11.0

     negative rho (up, down):  1.133E-02 1.127E-02
 
     Adding external electric field

     Computed dipole along edir(3) : 
        Dipole                0.3240 Ry au,          0.8236 Debye
        Dipole field          0.0002 Ry au, 
 
        Potential amp.       -0.0219 Ry
        Total length         55.1515 bohr
 
 
     Adding external electric field

     Computed dipole along edir(3) : 
        Dipole                0.3240 Ry au,          0.8236 Debye
        Dipole field          0.0002 Ry au, 
 
        Potential amp.       -0.0219 Ry
        Total length         55.1515 bohr
 

     total cpu time spent up to now is      778.0 secs

     total energy              =   -7738.30186312 Ry
     estimated scf accuracy    <       0.01371610 Ry

     total magnetization       =    88.30 Bohr mag/cell
     absolute magnetization    =    89.80 Bohr mag/cell

     iteration # 51     ecut=    50.00 Ry     beta= 0.10
     Davidson diagonalization with overlap
     ethr =  1.25E-06,  avg # of iterations =  2.0

     negative rho (up, down):  1.069E-02 1.080E-02
 
     Adding external electric field

     Computed dipole along edir(3) : 
        Dipole                0.3266 Ry au,          0.8300 Debye
        Dipole field          0.0002 Ry au, 
 
        Potential amp.       -0.0220 Ry
        Total length         55.1515 bohr
 
 
     Adding external electric field

     Computed dipole along edir(3) : 
        Dipole                0.3266 Ry au,          0.8300 Debye
        Dipole field          0.0002 Ry au, 
 
        Potential amp.       -0.0220 Ry
        Total length         55.1515 bohr
 

     total cpu time spent up to now is      791.9 secs

     total energy              =   -7738.30189351 Ry
     estimated scf accuracy    <       0.01272298 Ry

     total magnetization       =    88.31 Bohr mag/cell
     absolute magnetization    =    89.82 Bohr mag/cell

     iteration # 52     ecut=    50.00 Ry     beta= 0.10
     Davidson diagonalization with overlap
     ethr =  1.16E-06,  avg # of iterations =  1.5

     negative rho (up, down):  1.252E-02 1.272E-02
 
     Adding external electric field

     Computed dipole along edir(3) : 
        Dipole                0.3846 Ry au,          0.9775 Debye
        Dipole field          0.0002 Ry au, 
 
        Potential amp.       -0.0260 Ry
        Total length         55.1515 bohr
 
 
     Adding external electric field

     Computed dipole along edir(3) : 
        Dipole                0.3846 Ry au,          0.9775 Debye
        Dipole field          0.0002 Ry au, 
 
        Potential amp.       -0.0260 Ry
        Total length         55.1515 bohr
 

     total cpu time spent up to now is      805.2 secs

     total energy              =   -7738.30201199 Ry
     estimated scf accuracy    <       0.01084237 Ry

     total magnetization       =    88.34 Bohr mag/cell
     absolute magnetization    =    89.85 Bohr mag/cell

     iteration # 53     ecut=    50.00 Ry     beta= 0.10
     Davidson diagonalization with overlap
     ethr =  9.92E-07,  avg # of iterations =  2.0

     negative rho (up, down):  1.299E-02 1.318E-02
 
     Adding external electric field

     Computed dipole along edir(3) : 
        Dipole                0.4021 Ry au,          1.0219 Debye
        Dipole field          0.0002 Ry au, 
 
        Potential amp.       -0.0271 Ry
        Total length         55.1515 bohr
 
 
     Adding external electric field

     Computed dipole along edir(3) : 
        Dipole                0.4021 Ry au,          1.0219 Debye
        Dipole field          0.0002 Ry au, 
 
        Potential amp.       -0.0271 Ry
        Total length         55.1515 bohr
 

     total cpu time spent up to now is      819.4 secs

     total energy              =   -7738.30199543 Ry
     estimated scf accuracy    <       0.01056602 Ry

     total magnetization       =    88.34 Bohr mag/cell
     absolute magnetization    =    89.82 Bohr mag/cell

     iteration # 54     ecut=    50.00 Ry     beta= 0.10
     Davidson diagonalization with overlap
     ethr =  9.67E-07,  avg # of iterations =  1.5

     negative rho (up, down):  1.346E-02 1.371E-02
 
     Adding external electric field

     Computed dipole along edir(3) : 
        Dipole                0.4216 Ry au,          1.0716 Debye
        Dipole field          0.0003 Ry au, 
 
        Potential amp.       -0.0285 Ry
        Total length         55.1515 bohr
 
 
     Adding external electric field

     Computed dipole along edir(3) : 
        Dipole                0.4216 Ry au,          1.0716 Debye
        Dipole field          0.0003 Ry au, 
 
        Potential amp.       -0.0285 Ry
        Total length         55.1515 bohr
 

     total cpu time spent up to now is      832.5 secs

     total energy              =   -7738.30179836 Ry
     estimated scf accuracy    <       0.01045011 Ry

     total magnetization       =    88.32 Bohr mag/cell
     absolute magnetization    =    89.82 Bohr mag/cell

     iteration # 55     ecut=    50.00 Ry     beta= 0.10
     Davidson diagonalization with overlap
     ethr =  9.56E-07,  avg # of iterations =  2.0

     negative rho (up, down):  1.317E-02 1.310E-02
 
     Adding external electric field

     Computed dipole along edir(3) : 
        Dipole                0.4248 Ry au,          1.0798 Debye
        Dipole field          0.0003 Ry au, 
 
        Potential amp.       -0.0287 Ry
        Total length         55.1515 bohr
 
 
     Adding external electric field

     Computed dipole along edir(3) : 
        Dipole                0.4248 Ry au,          1.0798 Debye
        Dipole field          0.0003 Ry au, 
 
        Potential amp.       -0.0287 Ry
        Total length         55.1515 bohr
 

     total cpu time spent up to now is      846.2 secs

     total energy              =   -7738.30186037 Ry
     estimated scf accuracy    <       0.01046405 Ry

     total magnetization       =    88.30 Bohr mag/cell
     absolute magnetization    =    89.83 Bohr mag/cell

     iteration # 56     ecut=    50.00 Ry     beta= 0.10
     Davidson diagonalization with overlap
     ethr =  9.56E-07,  avg # of iterations =  1.0

     negative rho (up, down):  1.245E-02 1.238E-02
 
     Adding external electric field

     Computed dipole along edir(3) : 
        Dipole                0.4254 Ry au,          1.0812 Debye
        Dipole field          0.0003 Ry au, 
 
        Potential amp.       -0.0287 Ry
        Total length         55.1515 bohr
 
 
     Adding external electric field

     Computed dipole along edir(3) : 
        Dipole                0.4254 Ry au,          1.0812 Debye
        Dipole field          0.0003 Ry au, 
 
        Potential amp.       -0.0287 Ry
        Total length         55.1515 bohr
 

     total cpu time spent up to now is      858.3 secs

     total energy              =   -7738.30188038 Ry
     estimated scf accuracy    <       0.01009827 Ry

     total magnetization       =    88.32 Bohr mag/cell
     absolute magnetization    =    89.81 Bohr mag/cell

     iteration # 57     ecut=    50.00 Ry     beta= 0.10
     Davidson diagonalization with overlap
     ethr =  9.24E-07,  avg # of iterations =  1.5

     negative rho (up, down):  1.279E-02 1.286E-02
 
     Adding external electric field

     Computed dipole along edir(3) : 
        Dipole                0.3959 Ry au,          1.0063 Debye
        Dipole field          0.0002 Ry au, 
 
        Potential amp.       -0.0267 Ry
        Total length         55.1515 bohr
 
 
     Adding external electric field

     Computed dipole along edir(3) : 
        Dipole                0.3959 Ry au,          1.0063 Debye
        Dipole field          0.0002 Ry au, 
 
        Potential amp.       -0.0267 Ry
        Total length         55.1515 bohr
 

     total cpu time spent up to now is      871.2 secs

     total energy              =   -7738.30203358 Ry
     estimated scf accuracy    <       0.01033709 Ry

     total magnetization       =    88.33 Bohr mag/cell
     absolute magnetization    =    89.81 Bohr mag/cell

     iteration # 58     ecut=    50.00 Ry     beta= 0.10
     Davidson diagonalization with overlap
     ethr =  9.24E-07,  avg # of iterations =  1.5

     negative rho (up, down):  1.361E-02 1.396E-02
 
     Adding external electric field

     Computed dipole along edir(3) : 
        Dipole                0.4547 Ry au,          1.1557 Debye
[...]
    -5.9187  -5.9006  -5.8877  -5.8789  -5.8666  -5.8450  -5.8369  -5.8074
    -5.7802  -5.7742  -5.7347  -5.7244  -5.7077  -5.6803  -5.6696  -5.6515
    -5.6328  -5.6028  -5.5570  -5.5531  -5.5286  -5.4980  -5.4826  -5.4722
    -5.4674  -5.4367  -5.4306  -5.4023  -5.3842  -5.3687  -5.3564  -5.3267
    -5.2089  -5.1990  -5.1826  -5.1763  -5.1621  -5.1367  -5.0735  -5.0276
    -5.0111  -4.9928  -4.9492  -4.9214  -4.9108  -4.8920  -4.8582  -4.8168
    -4.7936  -4.7387  -4.7280  -4.7124  -4.6732  -4.6553  -4.6255  -4.5482
    -4.5463  -4.4721  -4.4607  -4.4032  -4.3966  -4.3779  -4.3373  -4.3298
    -4.3134  -4.2458  -4.1909  -4.1818  -4.1453  -4.1178  -4.1001  -4.0746
    -4.0662  -4.0410  -4.0394  -3.9674  -3.9228  -3.9019  -3.8896  -3.8507
    -3.8315  -3.8095  -3.7690  -3.7589  -3.7541  -3.7201  -3.6991  -3.6628
    -3.6361  -3.5887  -3.5862  -3.5806  -3.5595  -3.5393  -3.5383  -3.5172
    -3.5025  -3.4796  -3.4583  -3.4541  -3.4432  -3.4304  -3.4043  -3.3908
    -3.3627  -3.3590  -3.3437  -3.3139  -3.3085  -3.2694  -3.2540  -3.2080
    -3.2033  -3.1929  -3.1856  -3.1668  -3.1580  -3.1048  -3.0802  -3.0566
    -3.0339  -3.0157  -3.0106  -3.0010  -2.9972  -2.9857  -2.9682  -2.9305
    -2.9128  -2.9009  -2.8761  -2.8354  -2.8304  -2.8208  -2.7844  -2.7672
    -2.7432  -2.7308  -2.7147  -2.7022  -2.6982  -2.6797  -2.6640  -2.6554
    -2.6380  -2.6315  -2.6241  -2.6044  -2.5923  -2.5823  -2.5751  -2.5609
    -2.5441  -2.5311  -2.5160  -2.4948  -2.4774  -2.4714  -2.4479  -2.4381
    -2.4095  -2.4023  -2.3771  -2.3513  -2.3171  -2.3007  -2.2817  -2.2586
    -2.2470  -2.2325  -2.2109  -2.1710  -2.1578  -2.1388  -2.1264  -2.1020
    -2.0984  -2.0777  -2.0686  -2.0564  -2.0417  -2.0180  -2.0011  -1.9547
    -1.9409  -1.9113  -1.9076  -1.8990  -1.8888  -1.8781  -1.8451  -1.8217
    -1.8120  -1.7961  -1.7786  -1.7712  -1.7608  -1.7509  -1.7337  -1.7165
    -1.6907  -1.6637  -1.6470  -1.6073  -1.5993  -1.5810  -1.5610  -1.5433
    -1.5311  -1.4992  -1.4784  -1.4596  -1.4531  -1.4434  -1.4167  -1.3936
    -1.3856  -1.3753  -1.3537  -1.3447  -1.3197  -1.3044  -1.2484  -1.2434
    -1.2256  -1.2157  -1.1957  -1.1571  -1.1483  -1.0850  -1.0434  -1.0222
    -0.9807  -0.8761  -0.8593  -0.8188  -0.7483  -0.6851  -0.6790  -0.4502
    -0.2862  -0.2397  -0.2147  -0.1076   0.2147   0.2475   0.2695   0.2772
     0.2821   0.2983   0.3328   0.3416   0.3671   0.3769   0.3927   0.3980
     0.4039   0.4157   0.4260   0.4324   0.4401   0.4525   0.4596   0.4682
     0.4739   0.4848   0.4856   0.4942   0.4996   0.5091   0.5113   0.5229
     0.5391   0.5414   0.5506   0.5571   0.5627   0.5676   0.5703   0.5965
     0.6032   0.6059   0.6132   0.6173   0.6312   0.6432   0.6452   0.6466
     0.6624   0.6667   0.6693   0.6804   0.6823   0.7023   0.7062   0.7104
     0.7194   0.7245   0.7273   0.7369   0.7542   0.7672   0.7793   0.7823
     0.7906   0.7948   0.8032   0.8273   0.8315   0.8420   0.8456   0.8478
     0.8601   0.8634   0.8816   0.8959   0.8994   0.9047   0.9160   0.9218
     0.9291   0.9579   0.9680   0.9829   0.9847   0.9858   0.9890   1.0146
     1.0494   1.1283   1.1305   1.2292   1.2513   1.7007   1.7787   1.7868
     1.7921   1.8075   1.8184   1.8352   1.8452   1.8577   1.9409   1.9573
     1.9697   1.9896   2.0148   2.0384   2.0496   2.0781   2.0928   2.1433
     2.1542   2.1684   2.1786   2.2061   2.2197   2.2358   2.2492   2.2666
     2.2772   2.2976   2.3191   2.3342   2.3464   2.3569   2.3883   2.3970
     2.4090   2.4113   2.4590   2.4615   2.4898   2.5071   2.5141   2.5198
     2.5320   2.5372   2.5568   2.5654   2.5853   2.6174   2.6248   2.6436
     2.6640   2.6698   2.6819   2.7403   2.8080   2.8248   2.8817   2.8923
     2.8951   2.9395   3.5187   3.5530   3.6037   3.6303   3.7644   3.7946
     3.8757   3.8893   3.9031   3.9482   3.9615   4.0142   4.0989   4.1069
     4.1160   4.1389   4.1630   4.1680   4.1898   4.2043   4.6750   4.7947
     4.8454   4.8804   4.9487   4.9625   4.9971   5.0518   5.0597   5.1330
     5.1345   5.1919   5.4362   6.3009   6.3904   6.5271   6.6386   6.7327
     6.8112   6.8654   6.9175   6.9623   7.0001   7.0799   7.1488   7.2148
     7.2936   7.3577   7.4080   7.4183   7.4706   7.5036   7.6486   7.6863
     7.7249   7.7622   7.7727   7.8165   7.8601   7.9068   7.9272   7.9672
     8.0234   8.0554   8.0878   8.1161   8.1699   8.1898   8.2110   8.2418
     8.2781   8.3124   8.3670   8.3842   8.4239   8.4324   8.4435   8.4669
     8.4796   8.5073   8.5337   8.5512   8.5867   8.5957   8.6135   8.6687
     8.6915   8.7059   8.7229   8.7471   8.7652   8.8070   8.8424   8.8708

     the Fermi energy is     1.6917 ev

!    total energy              =   -7738.30208253 Ry
     estimated scf accuracy    <       0.00000070 Ry
     smearing contrib. (-TS)   =      -0.02505758 Ry
     internal energy E=F+TS    =   -7738.27702495 Ry

     The total energy is F=E-TS. E is the sum of the following terms:
     one-electron contribution =  -95050.82270983 Ry
     hartree contribution      =   48142.87835059 Ry
     xc contribution           =   -2218.73970486 Ry
     ewald contribution        =   41390.21546021 Ry
     Dispersion Correction     =      -1.80860017 Ry
     electric field correction =       0.00017912 Ry

     total magnetization       =    88.32 Bohr mag/cell
     absolute magnetization    =    89.69 Bohr mag/cell

     convergence has been achieved in  88 iterations

     negative rho (up, down):  1.048E-03 5.890E-04

     Forces acting on atoms (cartesian axes, Ry/au):

     atom    1 type  1   force =     0.02530125   -0.03106081    0.01838513
     atom    2 type  2   force =    -0.01382821   -0.00160723   -0.00991649
     atom    3 type  1   force =    -0.02328721   -0.01855504    0.01977955
     atom    4 type  1   force =     0.00569032    0.00416466   -0.00620258
     atom    5 type  1   force =    -0.00195628    0.00117212   -0.00528510
     atom    6 type  1   force =     0.00208352    0.00773502   -0.00902139
     atom    7 type  3   force =    -0.00772731    0.00116807   -0.01048033
     atom    8 type  3   force =    -0.03498791    0.05414741   -0.08331966
     atom    9 type  3   force =     0.03413889    0.03816863   -0.06432305
     atom   10 type  3   force =    -0.00306254   -0.00247532   -0.01163415
     atom   11 type  4   force =     0.00668166    0.00553673    0.01377307
     atom   12 type  4   force =    -0.00029086   -0.00289146    0.01490146
     atom   13 type  4   force =     0.00199006    0.00177501    0.01746655
     atom   14 type  4   force =    -0.00044503   -0.00135141    0.01261143
     atom   15 type  4   force =    -0.00070882    0.00451381   -0.00188444
     atom   16 type  4   force =    -0.00046605    0.00270033    0.04013373
     atom   17 type  4   force =     0.00175526    0.00818450    0.03759618
     atom   18 type  4   force =     0.00801972   -0.00451779   -0.00038540
     atom   19 type  4   force =     0.00051026    0.01200390    0.00426769
     atom   20 type  4   force =    -0.00957581   -0.02689687   -0.00373223
     atom   21 type  4   force =    -0.01126370   -0.00042190    0.00066383
     atom   22 type  4   force =    -0.03223293    0.00310393    0.00781698
     atom   23 type  4   force =     0.03220390    0.00057015    0.01405199
     atom   24 type  4   force =     0.00695600   -0.03708456    0.00373877
     atom   25 type  4   force =    -0.00320746    0.00185281    0.00395795
     atom   26 type  4   force =     0.01800300   -0.00685677    0.00080311
     atom   27 type  1   force =    -0.00523654   -0.00876148    0.00303367
     atom   28 type  2   force =    -0.01381237   -0.00042755    0.00530959
     atom   29 type  1   force =     0.00299948   -0.00504395   -0.00088024
     atom   30 type  1   force =     0.00385827    0.00356438    0.00218669
     atom   31 type  1   force =     0.00135138   -0.00459956    0.00057714
     atom   32 type  1   force =    -0.00079347    0.00104353   -0.00136279
     atom   33 type  3   force =    -0.00628149   -0.00045441   -0.00050005
     atom   34 type  3   force =    -0.00801849    0.00260985   -0.00026572
     atom   35 type  3   force =     0.00436715   -0.00058712    0.00287838
     atom   36 type  3   force =     0.00092851   -0.00175411   -0.00505932
     atom   37 type  4   force =     0.00827106    0.00495638    0.00751040
     atom   38 type  4   force =     0.00377210   -0.00086251   -0.01926649
     atom   39 type  4   force =    -0.00153812    0.00364383   -0.00988075
     atom   40 type  4   force =    -0.00177062   -0.00225855    0.00913651
     atom   41 type  4   force =    -0.00042943    0.00355653   -0.00652459
     atom   42 type  4   force =    -0.00437585   -0.00448517    0.01794938
     atom   43 type  4   force =     0.00775682    0.00345155    0.00763861
     atom   44 type  4   force =     0.01037881   -0.00457453   -0.00780207
     atom   45 type  4   force =     0.00284870    0.00435985    0.00057702
     atom   46 type  4   force =     0.00241043   -0.00019593   -0.00558229
     atom   47 type  4   force =    -0.01272488   -0.00013483   -0.00352114
     atom   48 type  4   force =    -0.01465641    0.00125624    0.00335315
     atom   49 type  4   force =     0.01359049    0.00253868    0.00441880
     atom   50 type  4   force =    -0.00271956   -0.00497217   -0.00047679
     atom   51 type  4   force =    -0.00497446    0.00140389    0.00000426
     atom   52 type  4   force =     0.01577562   -0.00419736   -0.00438174
     atom   53 type  1   force =     0.00032647   -0.00038582    0.00015625
     atom   54 type  2   force =     0.00015625    0.00024604   -0.00009139
     atom   55 type  1   force =     0.00029325    0.00003435    0.00010204
     atom   56 type  1   force =     0.00134913   -0.00189295    0.00142606
     atom   57 type  1   force =     0.00022998   -0.00075410   -0.00003543
     atom   58 type  1   force =    -0.00006366    0.00052284    0.00005546
     atom   59 type  3   force =    -0.00073941   -0.00005887   -0.00007555
     atom   60 type  3   force =     0.00021901   -0.00021313    0.00028957
     atom   61 type  3   force =     0.00003583    0.00012953   -0.00026255
     atom   62 type  3   force =    -0.00000865   -0.00053721   -0.00013504
     atom   63 type  4   force =     0.00094682    0.00023995   -0.00025469
     atom   64 type  4   force =     0.00004661   -0.00025185    0.00030880
     atom   65 type  4   force =    -0.00072674   -0.00058949    0.00067404
     atom   66 type  4   force =    -0.00096003   -0.00024867   -0.00025472
     atom   67 type  4   force =     0.00057667   -0.00024328   -0.00087159
     atom   68 type  4   force =     0.00029711    0.00063996    0.00086380
     atom   69 type  4   force =    -0.00010394    0.00037008    0.00001407
     atom   70 type  4   force =    -0.00090307    0.00001499   -0.00114318
     atom   71 type  4   force =     0.00077811   -0.00057454    0.00027170
     atom   72 type  4   force =    -0.00032596    0.00037362    0.00001319
     atom   73 type  4   force =     0.00024893   -0.00022879    0.00014583
     atom   74 type  4   force =     0.00014794    0.00042580   -0.00049279
     atom   75 type  4   force =    -0.00011027   -0.00062842   -0.00002861
     atom   76 type  4   force =    -0.00001142   -0.00031427    0.00031124
     atom   77 type  4   force =     0.00052052    0.00063459    0.00014339
     atom   78 type  4   force =    -0.00104309   -0.00051467    0.00017754
     atom   79 type  1   force =     0.02529220   -0.03106547    0.01836182
     atom   80 type  2   force =    -0.01372755   -0.00163381   -0.00986769
     atom   81 type  1   force =    -0.02331894   -0.01853848    0.01976241
     atom   82 type  1   force =     0.00573749    0.00420041   -0.00620219
     atom   83 type  1   force =    -0.00188240    0.00120632   -0.00527780
     atom   84 type  1   force =     0.00209214    0.00772142   -0.00902943
     atom   85 type  3   force =    -0.00773408    0.00115386   -0.01047017
     atom   86 type  3   force =    -0.03498862    0.05414699   -0.08332458
     atom   87 type  3   force =     0.03414426    0.03816953   -0.06432009
     atom   88 type  3   force =    -0.00304995   -0.00247556   -0.01163901
     atom   89 type  4   force =     0.00680266    0.00554622    0.01376128
     atom   90 type  4   force =    -0.00019495   -0.00280296    0.01489794
     atom   91 type  4   force =     0.00208542    0.00176786    0.01744930
     atom   92 type  4   force =    -0.00028209   -0.00134311    0.01260716
     atom   93 type  4   force =    -0.00071768    0.00471570   -0.00176665
     atom   94 type  4   force =    -0.00052849    0.00265953    0.03991774
     atom   95 type  4   force =     0.00188750    0.00818720    0.03759248
     atom   96 type  4   force =     0.00782535   -0.00453119   -0.00040164
     atom   97 type  4   force =     0.00061611    0.01209317    0.00417080
     atom   98 type  4   force =    -0.00946490   -0.02673162   -0.00370118
     atom   99 type  4   force =    -0.01127562   -0.00038639    0.00085962
     atom  100 type  4   force =    -0.03227427    0.00299827    0.00768715
     atom  101 type  4   force =     0.03223362    0.00057325    0.01405721
     atom  102 type  4   force =     0.00677574   -0.03709061    0.00374347
     atom  103 type  4   force =    -0.00312166    0.00181049    0.00393504
     atom  104 type  4   force =     0.01811553   -0.00685846    0.00079668
     atom  105 type  1   force =    -0.00520919   -0.00876102    0.00298214
     atom  106 type  2   force =    -0.01309707    0.00012671    0.00499837
     atom  107 type  1   force =     0.00297981   -0.00516026   -0.00091481
     atom  108 type  1   force =     0.00238844    0.00516922   -0.00148155
     atom  109 type  1   force =     0.00175391   -0.00454081    0.00066994
     atom  110 type  1   force =    -0.00075022    0.00107816   -0.00136839
     atom  111 type  3   force =    -0.00618337   -0.00172513   -0.00297144
     atom  112 type  3   force =    -0.00802918    0.00261688   -0.00032233
     atom  113 type  3   force =     0.00449494   -0.00067587    0.00274063
     atom  114 type  3   force =     0.00082890   -0.00195731   -0.00417803
     atom  115 type  4   force =     0.00859369    0.00516280    0.00774807
     atom  116 type  4   force =     0.00378862   -0.00091007   -0.01925386
     atom  117 type  4   force =    -0.00139944    0.00363372   -0.00989303
     atom  118 type  4   force =    -0.00139778   -0.00271039    0.00931335
     atom  119 type  4   force =    -0.00137625    0.00377360   -0.00693513
     atom  120 type  4   force =    -0.00422602   -0.00460436    0.01796009
     atom  121 type  4   force =     0.00776670    0.00342384    0.00766868
     atom  122 type  4   force =     0.01000364   -0.00527531   -0.00629384
     atom  123 type  4   force =     0.00277150    0.00457718    0.00046872
     atom  124 type  4   force =     0.00219176   -0.00014436   -0.00558765
     atom  125 type  4   force =    -0.01268623   -0.00017133   -0.00370836
     atom  126 type  4   force =    -0.01477681    0.00125951    0.00343315
     atom  127 type  4   force =     0.01360920    0.00243938    0.00456973
     atom  128 type  4   force =    -0.00289182   -0.00497120   -0.00046590
     atom  129 type  4   force =    -0.00526997    0.00139268    0.00045682
     atom  130 type  4   force =     0.01526933   -0.00413049   -0.00440299
     atom  131 type  1   force =     0.00002540   -0.00016459    0.00012702
     atom  132 type  2   force =     0.00028274   -0.00031043   -0.00006916
     atom  133 type  1   force =    -0.00039767   -0.00030285    0.00008754
     atom  134 type  1   force =     0.00025154    0.00099819   -0.00015528
     atom  135 type  1   force =     0.00034447   -0.00055613   -0.00053628
     atom  136 type  1   force =    -0.00037479   -0.00035321    0.00042510
     atom  137 type  3   force =     0.00007301    0.00012796    0.00003587
     atom  138 type  3   force =    -0.00067762   -0.00029934    0.00015443
     atom  139 type  3   force =    -0.00008043    0.00013786    0.00046076
     atom  140 type  3   force =     0.00017179    0.00047098   -0.00002927
     atom  141 type  4   force =     0.00052072   -0.00009196    0.00036165
     atom  142 type  4   force =    -0.00022898    0.00027131   -0.00012507
     atom  143 type  4   force =    -0.00011840    0.00024761    0.00024159
     atom  144 type  4   force =    -0.00059418   -0.00043100    0.00028827
     atom  145 type  4   force =     0.00016704   -0.00026408   -0.00053470
     atom  146 type  4   force =     0.00089892    0.00033068    0.00038807
     atom  147 type  4   force =     0.00006368    0.00016873    0.00075048
     atom  148 type  4   force =    -0.00012726    0.00010067   -0.00062219
     atom  149 type  4   force =    -0.00031371    0.00011476   -0.00036544
     atom  150 type  4   force =    -0.00032543    0.00013335    0.00008842
     atom  151 type  4   force =     0.00007882   -0.00072959   -0.00014962
     atom  152 type  4   force =     0.00005625   -0.00032912   -0.00027077
     atom  153 type  4   force =    -0.00063546    0.00017286    0.00041469
     atom  154 type  4   force =     0.00044871   -0.00004794    0.00028924
     atom  155 type  4   force =    -0.00044704   -0.00012840   -0.00030239
     atom  156 type  4   force =    -0.00027068   -0.00045066    0.00007511
     atom  157 type  4   force =    -0.00489038   -0.00093362   -0.00470476
     atom  158 type  5   force =     0.00345782    0.00136055    0.00070499

     Total force =     0.262908     Total SCF correction =     0.004299
 
     init_run     :      9.08s CPU      9.72s WALL (       1 calls)
     electrons    :   1246.41s CPU   1292.90s WALL (       1 calls)
     forces       :      4.22s CPU      4.53s WALL (       1 calls)
     force_london :      0.09s CPU      0.09s WALL (       1 calls)

     Called by init_run:
     wfcinit      :      5.37s CPU      5.54s WALL (       1 calls)
     potinit      :      0.99s CPU      1.14s WALL (       1 calls)
     hinit0       :      1.60s CPU      1.73s WALL (       1 calls)

     Called by electrons:
     c_bands      :    967.14s CPU    992.80s WALL (      88 calls)
     sum_band     :    170.68s CPU    182.09s WALL (      88 calls)
     v_of_rho     :     24.31s CPU     25.24s WALL (      89 calls)
     newd         :     57.68s CPU     66.23s WALL (      89 calls)
     mix_rho      :     25.28s CPU     25.41s WALL (      88 calls)
     energy_londo :      0.09s CPU      0.09s WALL (       1 calls)

     Called by c_bands:
     init_us_2    :      2.04s CPU      2.10s WALL (     356 calls)
     init_us_2:cp :      2.04s CPU      2.10s WALL (     356 calls)
     regterg      :    949.20s CPU    974.60s WALL (     178 calls)

     Called by *egterg:
     rdiaghg      :    237.26s CPU    250.32s WALL (     672 calls)
     h_psi        :    358.15s CPU    363.77s WALL (     674 calls)
     s_psi        :     48.54s CPU     48.58s WALL (     674 calls)
     g_psi        :      0.36s CPU      0.36s WALL (     494 calls)

     Called by h_psi:
     h_psi:calbec :     96.48s CPU    100.90s WALL (     674 calls)
     vloc_psi     :    208.75s CPU    209.45s WALL (     674 calls)
     add_vuspsi   :     52.28s CPU     52.78s WALL (     674 calls)

     General routines
     calbec       :    141.67s CPU    148.26s WALL (     858 calls)
     fft          :     49.13s CPU     50.39s WALL (    1615 calls)
     ffts         :     14.86s CPU     14.89s WALL (   10967 calls)
     fftw         :    242.11s CPU    242.89s WALL (  298744 calls)
     interpolate  :      2.01s CPU      2.08s WALL (     178 calls)
 
     Parallel routines
 
     PWSCF        :  21m 1.73s CPU  21m49.60s WALL

 
   This run was terminated on:  23:23:35  17Nov2025            

=------------------------------------------------------------------------------=
   JOB DONE.
=------------------------------------------------------------------------------=
