
     Program PWSCF v.7.2 starts on 18Nov2025 at  1:20:43 

     This program is part of the open-source Quantum ESPRESSO suite
     for quantum simulation of materials; please cite
         "P. Giannozzi et al., J. Phys.:Condens. Matter 21 395502 (2009);
         "P. Giannozzi et al., J. Phys.:Condens. Matter 29 465901 (2017);
         "P. Giannozzi et al., J. Chem. Phys. 152 154105 (2020);
          URL http://www.quantum-espresso.org", 
     in publications or presentations arising from this work. More details at
     http://www.quantum-espresso.org/quote

     Parallel version (MPI), running on    64 processors

     MPI processes distributed on     4 nodes
     369446 MiB available memory on the printing compute node when the environment starts
 
     Reading input from PWINPUT_atm158_zp

     Current dimensions of program PWSCF are:
     Max number of different atomic species (ntypx) = 10
     Max number of k-points (npk) =  40000
     Max angular momentum in pseudopotentials (lmaxx) =  4
     Presently no symmetry can be used with electric field

     file Ni.pbe-n-rrkjus_psl.1.0.0.UPF: wavefunction(s)  3D renormalized
     file Mn.pbe-spn-rrkjus_psl.0.3.1.UPF: wavefunction(s)  3D renormalized
     file O.pbe-rrkjus.UPF: wavefunction(s)  2S renormalized
     file H.pbe-rrkjus.UPF: wavefunction(s)  1S renormalized

     gamma-point specific algorithms are used
 
     R & G space division:  proc/nbgrp/npool/nimage =      64
     Subspace diagonalization in iterative solution of the eigenvalue problem:
     one sub-group per band group will be used
     custom distributed-memory algorithm (size of sub-group:  7*  7 procs)

 
     Parallelization info
     --------------------
     sticks:   dense  smooth     PW     G-vecs:    dense   smooth      PW
     Min         207      82     20                60552    15302    1896
     Max         210      84     22                60574    15336    1950
     Sum       13325    5345   1333              3876045   980655  122653
 
     Using Slab Decomposition
 


     bravais-lattice index     =            0
     lattice parameter (alat)  =      17.4067  a.u.
     unit-cell volume          =   20529.8182 (a.u.)^3
     number of atoms/cell      =          158
     number of atomic types    =            5
     number of electrons       =      1093.00
     number of Kohn-Sham states=          656
     kinetic-energy cutoff     =      50.0000  Ry
     charge density cutoff     =     500.0000  Ry
     scf convergence threshold =      1.0E-06
     mixing beta               =       0.1000
     number of iterations used =            8  local-TF  mixing
     Exchange-correlation=  SLA  PW   PBE  PBE
                           (   1   4   3   4   0   0   0)

     celldm(1)=  17.406729  celldm(2)=   0.000000  celldm(3)=   0.000000
     celldm(4)=   0.000000  celldm(5)=   0.000000  celldm(6)=   0.000000

     crystal axes: (cart. coord. in units of alat)
               a(1) = (   1.000000   0.000000   0.000000 )  
               a(2) = (  -0.001404   1.105696   0.000000 )  
               a(3) = (   0.000000   0.000000   3.520448 )  

     reciprocal axes: (cart. coord. in units 2 pi/alat)
               b(1) = (  1.000000  0.001270  0.000000 )  
               b(2) = (  0.000000  0.904408  0.000000 )  
               b(3) = (  0.000000  0.000000  0.284055 )  


     PseudoPot. # 1 for Ni read from file:
     ~/PSEUDO/Ni.pbe-n-rrkjus_psl.1.0.0.UPF
     MD5 check sum: Not computed, couldn't open file
     Pseudo is Ultrasoft + core correction, Zval = 10.0
     Generated using "atomic" code by A. Dal Corso  v.5.1.2
     Using radial grid of 1195 points,  6 beta functions with: 
                l(1) =   0
                l(2) =   0
                l(3) =   1
                l(4) =   1
                l(5) =   2
                l(6) =   2
     Q(r) pseudized with 0 coefficients 


     PseudoPot. # 2 for Mn read from file:
     ~/PSEUDO/Mn.pbe-spn-rrkjus_psl.0.3.1.UPF
     MD5 check sum: Not computed, couldn't open file
     Pseudo is Ultrasoft + core correction, Zval = 15.0
     Generated using &quot;atomic&quot; code by A. Dal Corso  v.6.2.2
     Using radial grid of 1187 points,  6 beta functions with: 
                l(1) =   0
                l(2) =   0
                l(3) =   1
                l(4) =   1
                l(5) =   2
                l(6) =   2
     Q(r) pseudized with 0 coefficients 


     PseudoPot. # 3 for P  read from file:
     ~/PSEUDO/P.pbe-n-rrkjus_psl.1.0.0.UPF
     MD5 check sum: Not computed, couldn't open file
     Pseudo is Ultrasoft + core correction, Zval =  5.0
     Generated using "atomic" code by A. Dal Corso  v.5.1
     Using radial grid of 1147 points,  6 beta functions with: 
                l(1) =   0
                l(2) =   0
                l(3) =   1
                l(4) =   1
                l(5) =   2
                l(6) =   2
     Q(r) pseudized with 0 coefficients 


     PseudoPot. # 4 for O  read from file:
     ~/PSEUDO/O.pbe-rrkjus.UPF
     MD5 check sum: Not computed, couldn't open file
     Pseudo is Ultrasoft, Zval =  6.0
     Generated by new atomic code, or converted to UPF format
     Using radial grid of 1269 points,  4 beta functions with: 
                l(1) =   0
                l(2) =   0
                l(3) =   1
                l(4) =   1
     Q(r) pseudized with 0 coefficients 


     PseudoPot. # 5 for H  read from file:
     ~/PSEUDO/H.pbe-rrkjus.UPF
     MD5 check sum: Not computed, couldn't open file
     Pseudo is Ultrasoft, Zval =  1.0
     Generated by new atomic code, or converted to UPF format
     Using radial grid of 1061 points,  2 beta functions with: 
                l(1) =   0
                l(2) =   0
     Q(r) pseudized with 0 coefficients 


     atomic species   valence    mass     pseudopotential
     Ni               10.00    58.69300     Ni( 1.00)
     Mn               15.00    54.93800     Mn( 1.00)
     P                 5.00    30.97300     P ( 1.00)
     O                 6.00    15.99900     O ( 1.00)
     H                 1.00     1.00790     H ( 1.00)

     Starting magnetic structure 
     atomic species   magnetization
     Ni              1.000
     Mn              1.000
     P               1.000
     O               1.000
     H               0.000

     No symmetry found



   Cartesian axes

     site n.     atom                  positions (alat units)
         1        Ni     tau(   1) = (   0.2421002   0.8609138   0.1302181  )
         2        Mn     tau(   2) = (   0.4924481   0.7886602   0.4655392  )
         3        Ni     tau(   3) = (   0.0052341   0.3031820   0.1284544  )
         4        Ni     tau(   4) = (   0.2570603   0.2374878   0.4617901  )
         5        Ni     tau(   5) = (   0.4976584   1.1048203   0.2964410  )
         6        Ni     tau(   6) = (   0.2495781   0.5440308   0.2953805  )
         7        P      tau(   7) = (   0.2083492   0.9982113   0.4588145  )
         8        P      tau(   8) = (   0.4584476   0.6559264   0.1347090  )
         9        P      tau(   9) = (   0.2889394   0.1031966   0.1319347  )
        10        P      tau(  10) = (   0.0400379   0.4338094   0.4586283  )
        11        O      tau(  11) = (   0.1314218   0.9248062   0.3189972  )
        12        O      tau(  12) = (   0.3797244   0.7272031   0.2742874  )
        13        O      tau(  13) = (   0.3662315   0.1762062   0.2720888  )
        14        O      tau(  14) = (   0.1171240   0.3646150   0.3169340  )
        15        O      tau(  15) = (   0.1510364   0.9068326   0.5881934  )
        16        O      tau(  16) = (   0.3981989   0.7453439   0.0053495  )
        17        O      tau(  17) = (   0.3490561   0.1888693   0.0010856  )
        18        O      tau(  18) = (   0.0982395   0.3475583   0.5894443  )
        19        O      tau(  19) = (   0.0992163   0.5918099   0.4542505  )
        20        O      tau(  20) = (   0.3467441   1.0504690   0.1405000  )
        21        O      tau(  21) = (   0.3739183   0.4303319   0.4477971  )
        22        O      tau(  22) = (   0.1230967   0.1088895   0.1422960  )
        23        O      tau(  23) = (   0.1242901   0.6635968   0.1442928  )
        24        O      tau(  24) = (   0.4011802   0.4971632   0.1376281  )
        25        O      tau(  25) = (   0.1484006   0.0497464   0.4550965  )
        26        O      tau(  26) = (   0.3736100   0.9942556   0.4492158  )
        27        Ni     tau(  27) = (   0.2413539   0.8509941   0.7820408  )
        28        Mn     tau(  28) = (   0.4917018   0.7787406   1.1173619  )
        29        Ni     tau(  29) = (   0.0044877   0.2932623   0.7802771  )
        30        Ni     tau(  30) = (   0.2563139   0.2275682   1.1136128  )
        31        Ni     tau(  31) = (   0.4969120   1.0949007   0.9482637  )
        32        Ni     tau(  32) = (   0.2488318   0.5341111   0.9472032  )
        33        P      tau(  33) = (   0.2076029   0.9882917   1.1106372  )
        34        P      tau(  34) = (   0.4577012   0.6460068   0.7865316  )
        35        P      tau(  35) = (   0.2881931   0.0932770   0.7837574  )
        36        P      tau(  36) = (   0.0392916   0.4238898   1.1104509  )
        37        O      tau(  37) = (   0.1306755   0.9148866   0.9708199  )
        38        O      tau(  38) = (   0.3789780   0.7172835   0.9261101  )
        39        O      tau(  39) = (   0.3654852   0.1662865   0.9239115  )
        40        O      tau(  40) = (   0.1163776   0.3546954   0.9687567  )
        41        O      tau(  41) = (   0.1502901   0.8969129   1.2400160  )
        42        O      tau(  42) = (   0.3974525   0.7354243   0.6571722  )
        43        O      tau(  43) = (   0.3483097   0.1789497   0.6529083  )
        44        O      tau(  44) = (   0.0974932   0.3376387   1.2412670  )
        45        O      tau(  45) = (   0.0984699   0.5818903   1.1060732  )
        46        O      tau(  46) = (   0.3459978   1.0405493   0.7923226  )
        47        O      tau(  47) = (   0.3731719   0.4204123   1.0996198  )
        48        O      tau(  48) = (   0.1223503   0.0989699   0.7941187  )
        49        O      tau(  49) = (   0.1235438   0.6536772   0.7961155  )
        50        O      tau(  50) = (   0.4004339   0.4872435   0.7894508  )
        51        O      tau(  51) = (   0.1476543   0.0398268   1.1069192  )
        52        O      tau(  52) = (   0.3728637   0.9843360   1.1010385  )
        53        Ni     tau(  53) = (   0.2411808   0.8324089   1.4309579  )
        54        Mn     tau(  54) = (   0.4946671   0.7639191   1.7613784  )
        55        Ni     tau(  55) = (   0.0045903   0.2758768   1.4289237  )
        56        Ni     tau(  56) = (   0.2582374   0.2038640   1.7770492  )
        57        Ni     tau(  57) = (   0.4995768   1.0765738   1.5968468  )
        58        Ni     tau(  58) = (   0.2446418   0.5161336   1.5986178  )
        59        P      tau(  59) = (   0.2110282   0.9624759   1.7570741  )
        60        P      tau(  60) = (   0.4555417   0.6266544   1.4355841  )
        61        P      tau(  61) = (   0.2894304   0.0771248   1.4326669  )
        62        P      tau(  62) = (   0.0328189   0.3995898   1.7561322  )
        63        O      tau(  63) = (   0.1349035   0.8971112   1.6106303  )
        64        O      tau(  64) = (   0.3788937   0.6993990   1.5743359  )
        65        O      tau(  65) = (   0.3659027   0.1511080   1.5708695  )
        66        O      tau(  66) = (   0.1105339   0.3441016   1.6092044  )
        67        O      tau(  67) = (   0.1557886   0.8603680   1.8762740  )
        68        O      tau(  68) = (   0.3942965   0.7173118   1.3080767  )
        69        O      tau(  69) = (   0.3497106   0.1654865   1.3026958  )
        70        O      tau(  70) = (   0.0882498   0.2997460   1.8754938  )
        71        O      tau(  71) = (   0.0879634   0.5612479   1.7635252  )
        72        O      tau(  72) = (   0.3490189   1.0246514   1.4369127  )
        73        O      tau(  73) = (   0.3670773   0.4040889   1.7520727  )
        74        O      tau(  74) = (   0.1226660   0.0818304   1.4423052  )
        75        O      tau(  75) = (   0.1225220   0.6345628   1.4463845  )
        76        O      tau(  76) = (   0.3964037   0.4688262   1.4379717  )
        77        O      tau(  77) = (   0.1495563   0.0133210   1.7552094  )
        78        O      tau(  78) = (   0.3782473   0.9569750   1.7438122  )
        79        Ni     tau(  79) = (   0.7421002   0.8609138   0.1302181  )
        80        Mn     tau(  80) = (   0.9924481   0.7886602   0.4655392  )
        81        Ni     tau(  81) = (   0.5052341   0.3031820   0.1284544  )
        82        Ni     tau(  82) = (   0.7570603   0.2374878   0.4617901  )
        83        Ni     tau(  83) = (   0.9976584   1.1048203   0.2964410  )
        84        Ni     tau(  84) = (   0.7495781   0.5440308   0.2953805  )
        85        P      tau(  85) = (   0.7083492   0.9982113   0.4588145  )
        86        P      tau(  86) = (   0.9584476   0.6559264   0.1347090  )
        87        P      tau(  87) = (   0.7889394   0.1031966   0.1319347  )
        88        P      tau(  88) = (   0.5400379   0.4338094   0.4586283  )
        89        O      tau(  89) = (   0.6314218   0.9248062   0.3189972  )
        90        O      tau(  90) = (   0.8797244   0.7272031   0.2742874  )
        91        O      tau(  91) = (   0.8662315   0.1762062   0.2720888  )
        92        O      tau(  92) = (   0.6171240   0.3646150   0.3169340  )
        93        O      tau(  93) = (   0.6510364   0.9068326   0.5881934  )
        94        O      tau(  94) = (   0.8981989   0.7453439   0.0053495  )
        95        O      tau(  95) = (   0.8490561   0.1888693   0.0010856  )
        96        O      tau(  96) = (   0.5982395   0.3475583   0.5894443  )
        97        O      tau(  97) = (   0.5992163   0.5918099   0.4542505  )
        98        O      tau(  98) = (   0.8467441   1.0504690   0.1405000  )
        99        O      tau(  99) = (   0.8739183   0.4303319   0.4477971  )
       100        O      tau( 100) = (   0.6230967   0.1088895   0.1422960  )
       101        O      tau( 101) = (   0.6242901   0.6635968   0.1442928  )
       102        O      tau( 102) = (   0.9011802   0.4971632   0.1376281  )
       103        O      tau( 103) = (   0.6484006   0.0497464   0.4550965  )
       104        O      tau( 104) = (   0.8736100   0.9942556   0.4492158  )
       105        Ni     tau( 105) = (   0.7413539   0.8509941   0.7820408  )
       106        Mn     tau( 106) = (   0.9917018   0.7787406   1.1173619  )
       107        Ni     tau( 107) = (   0.5044877   0.2932623   0.7802771  )
       108        Ni     tau( 108) = (   0.7563139   0.2275682   1.1136128  )
       109        Ni     tau( 109) = (   0.9969120   1.0949007   0.9482637  )
       110        Ni     tau( 110) = (   0.7488318   0.5341111   0.9472032  )
       111        P      tau( 111) = (   0.7076029   0.9882917   1.1106372  )
       112        P      tau( 112) = (   0.9577012   0.6460068   0.7865316  )
       113        P      tau( 113) = (   0.7881931   0.0932770   0.7837574  )
       114        P      tau( 114) = (   0.5392916   0.4238898   1.1104509  )
       115        O      tau( 115) = (   0.6306755   0.9148866   0.9708199  )
       116        O      tau( 116) = (   0.8789780   0.7172835   0.9261101  )
       117        O      tau( 117) = (   0.8654852   0.1662865   0.9239115  )
       118        O      tau( 118) = (   0.6163776   0.3546954   0.9687567  )
       119        O      tau( 119) = (   0.6502901   0.8969129   1.2400160  )
       120        O      tau( 120) = (   0.8974525   0.7354243   0.6571722  )
       121        O      tau( 121) = (   0.8483097   0.1789497   0.6529083  )
       122        O      tau( 122) = (   0.5974932   0.3376387   1.2412670  )
       123        O      tau( 123) = (   0.5984699   0.5818903   1.1060732  )
       124        O      tau( 124) = (   0.8459978   1.0405493   0.7923226  )
       125        O      tau( 125) = (   0.8731719   0.4204123   1.0996198  )
       126        O      tau( 126) = (   0.6223503   0.0989699   0.7941187  )
       127        O      tau( 127) = (   0.6235438   0.6536772   0.7961155  )
       128        O      tau( 128) = (   0.9004339   0.4872435   0.7894508  )
       129        O      tau( 129) = (   0.6476543   0.0398268   1.1069192  )
       130        O      tau( 130) = (   0.8728637   0.9843360   1.1010385  )
       131        Ni     tau( 131) = (   0.7410267   0.8325162   1.4305848  )
       132        Mn     tau( 132) = (   0.9957516   0.7600299   1.7607963  )
       133        Ni     tau( 133) = (   0.5040907   0.2758675   1.4300929  )
       134        Ni     tau( 134) = (   0.7492107   0.2133490   1.7410454  )
       135        Ni     tau( 135) = (   1.0009965   1.0739722   1.5938039  )
       136        Ni     tau( 136) = (   0.7435634   0.5197355   1.5956846  )
       137        P      tau( 137) = (   0.7125069   0.9656475   1.7574601  )
       138        P      tau( 138) = (   0.9562771   0.6261995   1.4348061  )
       139        P      tau( 139) = (   0.7897796   0.0749975   1.4289502  )
       140        P      tau( 140) = (   0.5344908   0.4056646   1.7624424  )
       141        O      tau( 141) = (   0.6363110   0.9022539   1.6111310  )
       142        O      tau( 142) = (   0.8791375   0.6993590   1.5736065  )
       143        O      tau( 143) = (   0.8677034   0.1479917   1.5677577  )
       144        O      tau( 144) = (   0.6096326   0.3453508   1.6130362  )
       145        O      tau( 145) = (   0.6538676   0.8663746   1.8771614  )
       146        O      tau( 146) = (   0.8948308   0.7180504   1.3081207  )
       147        O      tau( 147) = (   0.8505931   0.1642134   1.3003625  )
       148        O      tau( 148) = (   0.5994798   0.3097877   1.8805913  )
       149        O      tau( 149) = (   0.5905617   0.5666921   1.7630040  )
       150        O      tau( 150) = (   0.8496482   1.0230984   1.4339530  )
       151        O      tau( 151) = (   0.8648476   0.4011035   1.7429415  )
       152        O      tau( 152) = (   0.6235315   0.0826198   1.4430822  )
       153        O      tau( 153) = (   0.6220766   0.6363263   1.4460487  )
       154        O      tau( 154) = (   0.8951957   0.4690084   1.4354565  )
       155        O      tau( 155) = (   0.6579777   0.0195851   1.7588791  )
       156        O      tau( 156) = (   0.8798126   0.9576364   1.7467312  )
       157        O      tau( 157) = (   0.3700635   0.1197550   1.9168676  )
       158        H      tau( 158) = (   0.4553109   0.1803133   1.9426376  )

     -------------------------------------------------
     Parameters for Dispersion (Grimme-D2) Correction:
     -------------------------------------------------
       atom      VdW radius       C_6     

        Ni         2.952        374.666
        Mn         2.952        374.666
        P          3.222        271.980
        O          2.536         24.284
        H          1.892          4.857

     number of k points=     1  Gaussian smearing, width (Ry)=  0.0100
                       cart. coord. in units 2pi/alat
        k(    1) = (   0.0000000   0.0000000   0.0000000), wk =   1.0000000

     Dense  grid:  1938023 G-vectors     FFT dimensions: ( 125, 144, 450)

     Smooth grid:   490328 G-vectors     FFT dimensions: (  80,  90, 288)

     Estimated max dynamical RAM per process >     326.29 MB

     Estimated total dynamical RAM >      20.39 GB

     Check: negative core charge=   -0.000001
     Generating pointlists ...
     new r_m :   0.0816 (alat units)  1.4203 (a.u.) for type    1
     new r_m :   0.0904 (alat units)  1.5735 (a.u.) for type    2
     new r_m :   0.0681 (alat units)  1.1861 (a.u.) for type    3
     new r_m :   0.0444 (alat units)  0.7733 (a.u.) for type    4
     new r_m :   0.0444 (alat units)  0.7733 (a.u.) for type    5

     Initial potential from superposition of free atoms

     starting charge    1092.8893, renormalised to    1093.0000

     negative rho (up, down):  1.373E-03 4.516E-04
 
     Adding external electric field

     Computed dipole along edir(3) : 
        Dipole                1.6522 Ry au,          4.1995 Debye
        Dipole field          0.0010 Ry au, 
 
        Potential amp.       -0.1116 Ry
        Total length         55.1515 bohr
 
 
     Adding external electric field

     Computed dipole along edir(3) : 
        Dipole                1.6522 Ry au,          4.1995 Debye
        Dipole field          0.0010 Ry au, 
 
        Potential amp.       -0.1116 Ry
        Total length         55.1515 bohr
 
     Starting wfcs are  815 randomized atomic wfcs

     total cpu time spent up to now is       10.8 secs

     Self-consistent Calculation

     iteration #  1     ecut=    50.00 Ry     beta= 0.10
     Davidson diagonalization with overlap
     ethr =  1.00E-02,  avg # of iterations =  6.0

     negative rho (up, down):  4.118E-01 2.687E-06
 
     Adding external electric field

     Computed dipole along edir(3) : 
        Dipole               -2.9848 Ry au,         -7.5865 Debye
        Dipole field         -0.0018 Ry au, 
 
        Potential amp.        0.2015 Ry
        Total length         55.1515 bohr
 
 
     Adding external electric field

     Computed dipole along edir(3) : 
        Dipole               -2.9848 Ry au,         -7.5865 Debye
        Dipole field         -0.0018 Ry au, 
 
        Potential amp.        0.2015 Ry
        Total length         55.1515 bohr
 

     total cpu time spent up to now is       41.5 secs

     total energy              =   -7520.97046088 Ry
     estimated scf accuracy    <     750.67231836 Ry

     total magnetization       =   219.00 Bohr mag/cell
     absolute magnetization    =   307.96 Bohr mag/cell

     iteration #  2     ecut=    50.00 Ry     beta= 0.10
     Davidson diagonalization with overlap
     ethr =  1.00E-02,  avg # of iterations =  2.0

     negative rho (up, down):  3.716E-01 2.688E-06
 
     Adding external electric field

     Computed dipole along edir(3) : 
        Dipole               -2.3459 Ry au,         -5.9627 Debye
        Dipole field         -0.0014 Ry au, 
 
        Potential amp.        0.1584 Ry
        Total length         55.1515 bohr
 
 
     Adding external electric field

     Computed dipole along edir(3) : 
        Dipole               -2.3459 Ry au,         -5.9627 Debye
        Dipole field         -0.0014 Ry au, 
 
        Potential amp.        0.1584 Ry
        Total length         55.1515 bohr
 

     total cpu time spent up to now is       59.5 secs

     total energy              =   -7605.34222355 Ry
     estimated scf accuracy    <     139.76602536 Ry

     total magnetization       =   149.91 Bohr mag/cell
     absolute magnetization    =   201.09 Bohr mag/cell

     iteration #  3     ecut=    50.00 Ry     beta= 0.10
     Davidson diagonalization with overlap
     ethr =  1.00E-02,  avg # of iterations =  1.5

     negative rho (up, down):  3.183E-01 3.171E-06
 
     Adding external electric field

     Computed dipole along edir(3) : 
        Dipole               -1.9091 Ry au,         -4.8524 Debye
        Dipole field         -0.0012 Ry au, 
 
        Potential amp.        0.1289 Ry
        Total length         55.1515 bohr
 
 
     Adding external electric field

     Computed dipole along edir(3) : 
        Dipole               -1.9091 Ry au,         -4.8524 Debye
        Dipole field         -0.0012 Ry au, 
 
        Potential amp.        0.1289 Ry
        Total length         55.1515 bohr
 

     total cpu time spent up to now is       73.3 secs

     total energy              =   -7639.87802117 Ry
     estimated scf accuracy    <      98.99030696 Ry

     total magnetization       =   128.97 Bohr mag/cell
     absolute magnetization    =   180.85 Bohr mag/cell

     iteration #  4     ecut=    50.00 Ry     beta= 0.10
     Davidson diagonalization with overlap
     ethr =  9.06E-03,  avg # of iterations =  1.0

     negative rho (up, down):  2.452E-01 6.023E-07
 
     Adding external electric field

     Computed dipole along edir(3) : 
        Dipole               -1.8680 Ry au,         -4.7480 Debye
        Dipole field         -0.0011 Ry au, 
 
        Potential amp.        0.1261 Ry
        Total length         55.1515 bohr
 
 
     Adding external electric field

     Computed dipole along edir(3) : 
        Dipole               -1.8680 Ry au,         -4.7480 Debye
        Dipole field         -0.0011 Ry au, 
 
        Potential amp.        0.1261 Ry
        Total length         55.1515 bohr
 

     total cpu time spent up to now is       86.8 secs

     total energy              =   -7670.55081831 Ry
     estimated scf accuracy    <      77.75454211 Ry

     total magnetization       =   110.31 Bohr mag/cell
     absolute magnetization    =   165.45 Bohr mag/cell

     iteration #  5     ecut=    50.00 Ry     beta= 0.10
     Davidson diagonalization with overlap
     ethr =  7.11E-03,  avg # of iterations =  1.0

     negative rho (up, down):  1.811E-03 2.726E-07
 
     Adding external electric field

     Computed dipole along edir(3) : 
        Dipole               -1.1415 Ry au,         -2.9014 Debye
        Dipole field         -0.0007 Ry au, 
 
        Potential amp.        0.0771 Ry
        Total length         55.1515 bohr
 
 
     Adding external electric field

     Computed dipole along edir(3) : 
        Dipole               -1.1415 Ry au,         -2.9014 Debye
        Dipole field         -0.0007 Ry au, 
 
        Potential amp.        0.0771 Ry
        Total length         55.1515 bohr
 

     total cpu time spent up to now is      100.2 secs

     total energy              =   -7730.70871425 Ry
     estimated scf accuracy    <      60.05335356 Ry

     total magnetization       =    97.00 Bohr mag/cell
     absolute magnetization    =   149.87 Bohr mag/cell

     iteration #  6     ecut=    50.00 Ry     beta= 0.10
     Davidson diagonalization with overlap
     ethr =  5.49E-03,  avg # of iterations =  1.5

     negative rho (up, down):  2.355E-04 2.622E-04
 
     Adding external electric field

     Computed dipole along edir(3) : 
        Dipole               -0.7774 Ry au,         -1.9759 Debye
        Dipole field         -0.0005 Ry au, 
 
        Potential amp.        0.0525 Ry
        Total length         55.1515 bohr
 
 
     Adding external electric field

     Computed dipole along edir(3) : 
        Dipole               -0.7774 Ry au,         -1.9759 Debye
        Dipole field         -0.0005 Ry au, 
 
        Potential amp.        0.0525 Ry
        Total length         55.1515 bohr
 

     total cpu time spent up to now is      114.5 secs

     total energy              =   -7736.74071121 Ry
     estimated scf accuracy    <      13.37087680 Ry

     total magnetization       =    81.15 Bohr mag/cell
     absolute magnetization    =   109.25 Bohr mag/cell

     iteration #  7     ecut=    50.00 Ry     beta= 0.10
     Davidson diagonalization with overlap
     ethr =  1.22E-03,  avg # of iterations =  6.0

     negative rho (up, down):  1.447E-04 2.008E-04
 
     Adding external electric field

     Computed dipole along edir(3) : 
        Dipole               -0.9033 Ry au,         -2.2959 Debye
        Dipole field         -0.0006 Ry au, 
 
        Potential amp.        0.0610 Ry
        Total length         55.1515 bohr
 
 
     Adding external electric field

     Computed dipole along edir(3) : 
        Dipole               -0.9033 Ry au,         -2.2959 Debye
        Dipole field         -0.0006 Ry au, 
 
        Potential amp.        0.0610 Ry
        Total length         55.1515 bohr
 

     total cpu time spent up to now is      136.6 secs

     total energy              =   -7738.20003961 Ry
     estimated scf accuracy    <      18.07739595 Ry

     total magnetization       =    71.10 Bohr mag/cell
     absolute magnetization    =    90.40 Bohr mag/cell

     iteration #  8     ecut=    50.00 Ry     beta= 0.10
     Davidson diagonalization with overlap
     ethr =  1.22E-03,  avg # of iterations =  1.0

     negative rho (up, down):  4.430E-04 6.637E-04
 
     Adding external electric field

     Computed dipole along edir(3) : 
        Dipole               -0.4999 Ry au,         -1.2706 Debye
        Dipole field         -0.0003 Ry au, 
 
        Potential amp.        0.0338 Ry
        Total length         55.1515 bohr
 
 
     Adding external electric field

     Computed dipole along edir(3) : 
        Dipole               -0.4999 Ry au,         -1.2706 Debye
        Dipole field         -0.0003 Ry au, 
 
        Potential amp.        0.0338 Ry
        Total length         55.1515 bohr
 

     total cpu time spent up to now is      149.7 secs

     total energy              =   -7736.83862985 Ry
     estimated scf accuracy    <      26.08680620 Ry

     total magnetization       =    70.34 Bohr mag/cell
     absolute magnetization    =    89.11 Bohr mag/cell

     iteration #  9     ecut=    50.00 Ry     beta= 0.10
     Davidson diagonalization with overlap
     ethr =  1.22E-03,  avg # of iterations =  1.5

     negative rho (up, down):  2.423E-04 5.742E-04
 
     Adding external electric field

     Computed dipole along edir(3) : 
        Dipole               -0.4908 Ry au,         -1.2474 Debye
        Dipole field         -0.0003 Ry au, 
 
        Potential amp.        0.0331 Ry
        Total length         55.1515 bohr
 
 
     Adding external electric field

     Computed dipole along edir(3) : 
        Dipole               -0.4908 Ry au,         -1.2474 Debye
        Dipole field         -0.0003 Ry au, 
 
        Potential amp.        0.0331 Ry
        Total length         55.1515 bohr
 

     total cpu time spent up to now is      163.2 secs

     total energy              =   -7737.82011881 Ry
     estimated scf accuracy    <       1.57803790 Ry

     total magnetization       =    89.77 Bohr mag/cell
     absolute magnetization    =   102.83 Bohr mag/cell

     iteration # 10     ecut=    50.00 Ry     beta= 0.10
     Davidson diagonalization with overlap
     ethr =  1.44E-04,  avg # of iterations = 11.5

     negative rho (up, down):  1.778E-04 4.628E-04
 
     Adding external electric field

     Computed dipole along edir(3) : 
        Dipole               -0.4868 Ry au,         -1.2372 Debye
        Dipole field         -0.0003 Ry au, 
 
        Potential amp.        0.0329 Ry
        Total length         55.1515 bohr
 
 
     Adding external electric field

     Computed dipole along edir(3) : 
        Dipole               -0.4868 Ry au,         -1.2372 Debye
        Dipole field         -0.0003 Ry au, 
 
        Potential amp.        0.0329 Ry
        Total length         55.1515 bohr
 

     total cpu time spent up to now is      189.4 secs

     total energy              =   -7737.87752018 Ry
     estimated scf accuracy    <       1.23622609 Ry

     total magnetization       =    89.00 Bohr mag/cell
     absolute magnetization    =   100.23 Bohr mag/cell

     iteration # 11     ecut=    50.00 Ry     beta= 0.10
     Davidson diagonalization with overlap
     ethr =  1.13E-04,  avg # of iterations =  1.0

     negative rho (up, down):  1.319E-05 7.924E-05
 
     Adding external electric field

     Computed dipole along edir(3) : 
        Dipole               -0.4376 Ry au,         -1.1123 Debye
        Dipole field         -0.0003 Ry au, 
 
        Potential amp.        0.0295 Ry
        Total length         55.1515 bohr
 
 
     Adding external electric field

     Computed dipole along edir(3) : 
        Dipole               -0.4376 Ry au,         -1.1123 Debye
        Dipole field         -0.0003 Ry au, 
 
        Potential amp.        0.0295 Ry
        Total length         55.1515 bohr
 

     total cpu time spent up to now is      201.6 secs

     total energy              =   -7738.03263299 Ry
     estimated scf accuracy    <       1.04268120 Ry

     total magnetization       =    88.82 Bohr mag/cell
     absolute magnetization    =    99.44 Bohr mag/cell

     iteration # 12     ecut=    50.00 Ry     beta= 0.10
     Davidson diagonalization with overlap
     ethr =  9.54E-05,  avg # of iterations =  1.5

     negative rho (up, down):  6.688E-06 5.378E-05
 
     Adding external electric field

     Computed dipole along edir(3) : 
        Dipole               -0.4330 Ry au,         -1.1007 Debye
        Dipole field         -0.0003 Ry au, 
 
        Potential amp.        0.0292 Ry
        Total length         55.1515 bohr
 
 
     Adding external electric field

     Computed dipole along edir(3) : 
        Dipole               -0.4330 Ry au,         -1.1007 Debye
        Dipole field         -0.0003 Ry au, 
 
        Potential amp.        0.0292 Ry
        Total length         55.1515 bohr
 

     total cpu time spent up to now is      213.9 secs

     total energy              =   -7738.09437399 Ry
     estimated scf accuracy    <       1.05032780 Ry

     total magnetization       =    88.42 Bohr mag/cell
     absolute magnetization    =    96.14 Bohr mag/cell

     iteration # 13     ecut=    50.00 Ry     beta= 0.10
     Davidson diagonalization with overlap
     ethr =  9.54E-05,  avg # of iterations =  1.0

     negative rho (up, down):  2.605E-09 1.104E-06
 
     Adding external electric field

     Computed dipole along edir(3) : 
        Dipole               -0.3910 Ry au,         -0.9937 Debye
        Dipole field         -0.0002 Ry au, 
 
        Potential amp.        0.0264 Ry
        Total length         55.1515 bohr
 
 
     Adding external electric field

     Computed dipole along edir(3) : 
        Dipole               -0.3910 Ry au,         -0.9937 Debye
        Dipole field         -0.0002 Ry au, 
 
        Potential amp.        0.0264 Ry
        Total length         55.1515 bohr
 

     total cpu time spent up to now is      225.6 secs

     total energy              =   -7738.23645817 Ry
     estimated scf accuracy    <       0.66082396 Ry

     total magnetization       =    89.59 Bohr mag/cell
     absolute magnetization    =    96.50 Bohr mag/cell

     iteration # 14     ecut=    50.00 Ry     beta= 0.10
     Davidson diagonalization with overlap
     ethr =  6.05E-05,  avg # of iterations =  1.5

     negative rho (up, down):  3.993E-06 9.721E-06
 
     Adding external electric field

     Computed dipole along edir(3) : 
        Dipole               -0.3533 Ry au,         -0.8980 Debye
        Dipole field         -0.0002 Ry au, 
 
        Potential amp.        0.0239 Ry
        Total length         55.1515 bohr
 
 
     Adding external electric field

     Computed dipole along edir(3) : 
        Dipole               -0.3533 Ry au,         -0.8980 Debye
        Dipole field         -0.0002 Ry au, 
 
        Potential amp.        0.0239 Ry
        Total length         55.1515 bohr
 

     total cpu time spent up to now is      238.9 secs

     total energy              =   -7738.29166768 Ry
     estimated scf accuracy    <       0.45480158 Ry

     total magnetization       =    89.84 Bohr mag/cell
     absolute magnetization    =    94.00 Bohr mag/cell

     iteration # 15     ecut=    50.00 Ry     beta= 0.10
     Davidson diagonalization with overlap
     ethr =  4.16E-05,  avg # of iterations =  2.0

     negative rho (up, down):  2.759E-06 4.502E-07
 
     Adding external electric field

     Computed dipole along edir(3) : 
        Dipole               -0.3679 Ry au,         -0.9350 Debye
        Dipole field         -0.0002 Ry au, 
 
        Potential amp.        0.0248 Ry
        Total length         55.1515 bohr
 
 
     Adding external electric field

     Computed dipole along edir(3) : 
        Dipole               -0.3679 Ry au,         -0.9350 Debye
        Dipole field         -0.0002 Ry au, 
 
        Potential amp.        0.0248 Ry
        Total length         55.1515 bohr
 

     total cpu time spent up to now is      252.6 secs

     total energy              =   -7738.30598913 Ry
     estimated scf accuracy    <       0.49746886 Ry

     total magnetization       =    89.19 Bohr mag/cell
     absolute magnetization    =    91.67 Bohr mag/cell

     iteration # 16     ecut=    50.00 Ry     beta= 0.10
     Davidson diagonalization with overlap
     ethr =  4.16E-05,  avg # of iterations =  1.5

     negative rho (up, down):  1.263E-05 8.711E-07
 
     Adding external electric field

     Computed dipole along edir(3) : 
        Dipole               -0.3634 Ry au,         -0.9238 Debye
        Dipole field         -0.0002 Ry au, 
 
        Potential amp.        0.0245 Ry
        Total length         55.1515 bohr
 
 
     Adding external electric field

     Computed dipole along edir(3) : 
        Dipole               -0.3634 Ry au,         -0.9238 Debye
        Dipole field         -0.0002 Ry au, 
 
        Potential amp.        0.0245 Ry
        Total length         55.1515 bohr
 

     total cpu time spent up to now is      265.7 secs

     total energy              =   -7738.29646352 Ry
     estimated scf accuracy    <       0.32563920 Ry

     total magnetization       =    89.72 Bohr mag/cell
     absolute magnetization    =    92.16 Bohr mag/cell

     iteration # 17     ecut=    50.00 Ry     beta= 0.10
     Davidson diagonalization with overlap
     ethr =  2.98E-05,  avg # of iterations =  2.0

     negative rho (up, down):  5.695E-05 3.465E-05
 
     Adding external electric field

     Computed dipole along edir(3) : 
        Dipole               -0.3531 Ry au,         -0.8975 Debye
        Dipole field         -0.0002 Ry au, 
 
        Potential amp.        0.0238 Ry
        Total length         55.1515 bohr
 
 
     Adding external electric field

     Computed dipole along edir(3) : 
        Dipole               -0.3531 Ry au,         -0.8975 Debye
        Dipole field         -0.0002 Ry au, 
 
        Potential amp.        0.0238 Ry
        Total length         55.1515 bohr
 

     total cpu time spent up to now is      279.6 secs

     total energy              =   -7738.28842956 Ry
     estimated scf accuracy    <       0.19160124 Ry

     total magnetization       =    89.30 Bohr mag/cell
     absolute magnetization    =    91.09 Bohr mag/cell

     iteration # 18     ecut=    50.00 Ry     beta= 0.10
     Davidson diagonalization with overlap
     c_bands:  1 eigenvalues not converged
     ethr =  1.75E-05,  avg # of iterations = 11.0

     negative rho (up, down):  2.893E-05 1.358E-05
 
     Adding external electric field

     Computed dipole along edir(3) : 
        Dipole               -0.3446 Ry au,         -0.8759 Debye
        Dipole field         -0.0002 Ry au, 
 
        Potential amp.        0.0233 Ry
        Total length         55.1515 bohr
 
 
     Adding external electric field

     Computed dipole along edir(3) : 
        Dipole               -0.3446 Ry au,         -0.8759 Debye
        Dipole field         -0.0002 Ry au, 
 
        Potential amp.        0.0233 Ry
        Total length         55.1515 bohr
 

     total cpu time spent up to now is      298.5 secs

     total energy              =   -7738.30248586 Ry
     estimated scf accuracy    <       0.71273454 Ry

     total magnetization       =    86.27 Bohr mag/cell
     absolute magnetization    =    87.71 Bohr mag/cell

     iteration # 19     ecut=    50.00 Ry     beta= 0.10
     Davidson diagonalization with overlap
     ethr =  1.75E-05,  avg # of iterations =  2.0

     negative rho (up, down):  7.341E-06 4.046E-06
 
     Adding external electric field

     Computed dipole along edir(3) : 
        Dipole               -0.3117 Ry au,         -0.7924 Debye
        Dipole field         -0.0002 Ry au, 
 
        Potential amp.        0.0210 Ry
        Total length         55.1515 bohr
 
 
     Adding external electric field

     Computed dipole along edir(3) : 
        Dipole               -0.3117 Ry au,         -0.7924 Debye
        Dipole field         -0.0002 Ry au, 
 
        Potential amp.        0.0210 Ry
        Total length         55.1515 bohr
 

     total cpu time spent up to now is      312.4 secs

     total energy              =   -7738.30543739 Ry
     estimated scf accuracy    <       0.17753414 Ry

     total magnetization       =    87.68 Bohr mag/cell
     absolute magnetization    =    89.10 Bohr mag/cell

     iteration # 20     ecut=    50.00 Ry     beta= 0.10
     Davidson diagonalization with overlap
     ethr =  1.62E-05,  avg # of iterations =  2.0

     negative rho (up, down):  6.322E-06 2.490E-06
 
     Adding external electric field

     Computed dipole along edir(3) : 
        Dipole               -0.2639 Ry au,         -0.6707 Debye
        Dipole field         -0.0002 Ry au, 
 
        Potential amp.        0.0178 Ry
        Total length         55.1515 bohr
 
 
     Adding external electric field

     Computed dipole along edir(3) : 
        Dipole               -0.2639 Ry au,         -0.6707 Debye
        Dipole field         -0.0002 Ry au, 
 
        Potential amp.        0.0178 Ry
        Total length         55.1515 bohr
 

     total cpu time spent up to now is      326.5 secs

     total energy              =   -7738.30484383 Ry
     estimated scf accuracy    <       0.04551373 Ry

     total magnetization       =    88.19 Bohr mag/cell
     absolute magnetization    =    89.63 Bohr mag/cell

     iteration # 21     ecut=    50.00 Ry     beta= 0.10
     Davidson diagonalization with overlap
     c_bands:  1 eigenvalues not converged
     c_bands:  3 eigenvalues not converged
     ethr =  4.16E-06,  avg # of iterations = 20.0

     negative rho (up, down):  7.357E-06 2.560E-06
 
     Adding external electric field

     Computed dipole along edir(3) : 
        Dipole               -0.2399 Ry au,         -0.6097 Debye
        Dipole field         -0.0001 Ry au, 
 
        Potential amp.        0.0162 Ry
        Total length         55.1515 bohr
 
 
     Adding external electric field

     Computed dipole along edir(3) : 
        Dipole               -0.2399 Ry au,         -0.6097 Debye
        Dipole field         -0.0001 Ry au, 
 
        Potential amp.        0.0162 Ry
        Total length         55.1515 bohr
 

     total cpu time spent up to now is      359.9 secs

     total energy              =   -7738.30554914 Ry
     estimated scf accuracy    <       0.07322754 Ry

     total magnetization       =    88.67 Bohr mag/cell
     absolute magnetization    =    90.07 Bohr mag/cell

     iteration # 22     ecut=    50.00 Ry     beta= 0.10
     Davidson diagonalization with overlap
     ethr =  4.16E-06,  avg # of iterations =  1.5

     negative rho (up, down):  5.127E-06 2.040E-07
 
     Adding external electric field

     Computed dipole along edir(3) : 
        Dipole               -0.1938 Ry au,         -0.4925 Debye
        Dipole field         -0.0001 Ry au, 
 
        Potential amp.        0.0131 Ry
        Total length         55.1515 bohr
 
 
     Adding external electric field

     Computed dipole along edir(3) : 
        Dipole               -0.1938 Ry au,         -0.4925 Debye
        Dipole field         -0.0001 Ry au, 
 
        Potential amp.        0.0131 Ry
        Total length         55.1515 bohr
 

     total cpu time spent up to now is      373.4 secs

     total energy              =   -7738.30345485 Ry
     estimated scf accuracy    <       0.04962188 Ry

     total magnetization       =    88.47 Bohr mag/cell
     absolute magnetization    =    89.82 Bohr mag/cell

     iteration # 23     ecut=    50.00 Ry     beta= 0.10
     Davidson diagonalization with overlap
     ethr =  4.16E-06,  avg # of iterations =  1.0

     negative rho (up, down):  3.621E-06 1.166E-07
 
     Adding external electric field

     Computed dipole along edir(3) : 
        Dipole               -0.1613 Ry au,         -0.4099 Debye
        Dipole field         -0.0001 Ry au, 
 
        Potential amp.        0.0109 Ry
        Total length         55.1515 bohr
 
 
     Adding external electric field

     Computed dipole along edir(3) : 
        Dipole               -0.1613 Ry au,         -0.4099 Debye
        Dipole field         -0.0001 Ry au, 
 
        Potential amp.        0.0109 Ry
        Total length         55.1515 bohr
 

     total cpu time spent up to now is      385.7 secs

     total energy              =   -7738.30407300 Ry
     estimated scf accuracy    <       0.08139099 Ry

     total magnetization       =    88.80 Bohr mag/cell
     absolute magnetization    =    90.20 Bohr mag/cell

     iteration # 24     ecut=    50.00 Ry     beta= 0.10
     Davidson diagonalization with overlap
     ethr =  4.16E-06,  avg # of iterations =  1.5

     negative rho (up, down):  2.475E-06 7.893E-08
 
     Adding external electric field

     Computed dipole along edir(3) : 
        Dipole               -0.1802 Ry au,         -0.4579 Debye
        Dipole field         -0.0001 Ry au, 
 
        Potential amp.        0.0122 Ry
        Total length         55.1515 bohr
 
 
     Adding external electric field

     Computed dipole along edir(3) : 
        Dipole               -0.1802 Ry au,         -0.4579 Debye
        Dipole field         -0.0001 Ry au, 
 
        Potential amp.        0.0122 Ry
        Total length         55.1515 bohr
 

     total cpu time spent up to now is      399.3 secs

     total energy              =   -7738.30517999 Ry
     estimated scf accuracy    <       0.10285265 Ry

     total magnetization       =    88.69 Bohr mag/cell
     absolute magnetization    =    90.13 Bohr mag/cell

     iteration # 25     ecut=    50.00 Ry     beta= 0.10
     Davidson diagonalization with overlap
     ethr =  4.16E-06,  avg # of iterations =  1.0

     negative rho (up, down):  2.021E-05 1.376E-06
 
     Adding external electric field

     Computed dipole along edir(3) : 
        Dipole               -0.1944 Ry au,         -0.4942 Debye
        Dipole field         -0.0001 Ry au, 
 
        Potential amp.        0.0131 Ry
        Total length         55.1515 bohr
 
 
     Adding external electric field

     Computed dipole along edir(3) : 
        Dipole               -0.1944 Ry au,         -0.4942 Debye
        Dipole field         -0.0001 Ry au, 
 
        Potential amp.        0.0131 Ry
        Total length         55.1515 bohr
 

     total cpu time spent up to now is      412.4 secs

     total energy              =   -7738.30209495 Ry
     estimated scf accuracy    <       0.11463061 Ry

     total magnetization       =    88.79 Bohr mag/cell
     absolute magnetization    =    90.20 Bohr mag/cell

     iteration # 26     ecut=    50.00 Ry     beta= 0.10
     Davidson diagonalization with overlap
     ethr =  4.16E-06,  avg # of iterations =  1.0

     negative rho (up, down):  4.105E-06 3.312E-07
 
     Adding external electric field

     Computed dipole along edir(3) : 
        Dipole               -0.1835 Ry au,         -0.4664 Debye
        Dipole field         -0.0001 Ry au, 
 
        Potential amp.        0.0124 Ry
        Total length         55.1515 bohr
 
 
     Adding external electric field

     Computed dipole along edir(3) : 
        Dipole               -0.1835 Ry au,         -0.4664 Debye
        Dipole field         -0.0001 Ry au, 
 
        Potential amp.        0.0124 Ry
        Total length         55.1515 bohr
 

     total cpu time spent up to now is      425.3 secs

     total energy              =   -7738.30456374 Ry
     estimated scf accuracy    <       0.06657861 Ry

     total magnetization       =    88.69 Bohr mag/cell
     absolute magnetization    =    89.99 Bohr mag/cell

     iteration # 27     ecut=    50.00 Ry     beta= 0.10
     Davidson diagonalization with overlap
     ethr =  4.16E-06,  avg # of iterations =  1.0

     negative rho (up, down):  7.170E-06 5.150E-07
 
     Adding external electric field

     Computed dipole along edir(3) : 
        Dipole               -0.1418 Ry au,         -0.3603 Debye
        Dipole field         -0.0001 Ry au, 
 
        Potential amp.        0.0096 Ry
        Total length         55.1515 bohr
 
 
     Adding external electric field

     Computed dipole along edir(3) : 
        Dipole               -0.1418 Ry au,         -0.3603 Debye
        Dipole field         -0.0001 Ry au, 
 
        Potential amp.        0.0096 Ry
        Total length         55.1515 bohr
 

     total cpu time spent up to now is      438.1 secs

     total energy              =   -7738.30432175 Ry
     estimated scf accuracy    <       0.06391187 Ry

     total magnetization       =    88.45 Bohr mag/cell
     absolute magnetization    =    89.85 Bohr mag/cell

     iteration # 28     ecut=    50.00 Ry     beta= 0.10
     Davidson diagonalization with overlap
     ethr =  4.16E-06,  avg # of iterations =  1.0

     negative rho (up, down):  6.352E-06 9.962E-07
 
     Adding external electric field

     Computed dipole along edir(3) : 
        Dipole               -0.2212 Ry au,         -0.5622 Debye
        Dipole field         -0.0001 Ry au, 
 
        Potential amp.        0.0149 Ry
        Total length         55.1515 bohr
 
 
     Adding external electric field

     Computed dipole along edir(3) : 
        Dipole               -0.2212 Ry au,         -0.5622 Debye
        Dipole field         -0.0001 Ry au, 
 
        Potential amp.        0.0149 Ry
        Total length         55.1515 bohr
 

     total cpu time spent up to now is      450.7 secs

     total energy              =   -7738.30479826 Ry
     estimated scf accuracy    <       0.09263409 Ry

     total magnetization       =    88.56 Bohr mag/cell
     absolute magnetization    =    89.92 Bohr mag/cell

     iteration # 29     ecut=    50.00 Ry     beta= 0.10
     Davidson diagonalization with overlap
     ethr =  4.16E-06,  avg # of iterations =  1.0

     negative rho (up, down):  2.007E-05 6.584E-06
 
     Adding external electric field

     Computed dipole along edir(3) : 
        Dipole               -0.2012 Ry au,         -0.5114 Debye
        Dipole field         -0.0001 Ry au, 
 
        Potential amp.        0.0136 Ry
        Total length         55.1515 bohr
 
 
     Adding external electric field

     Computed dipole along edir(3) : 
        Dipole               -0.2012 Ry au,         -0.5114 Debye
        Dipole field         -0.0001 Ry au, 
 
        Potential amp.        0.0136 Ry
        Total length         55.1515 bohr
 

     total cpu time spent up to now is      463.3 secs

     total energy              =   -7738.30443970 Ry
     estimated scf accuracy    <       0.05187432 Ry

     total magnetization       =    88.37 Bohr mag/cell
     absolute magnetization    =    89.75 Bohr mag/cell

     iteration # 30     ecut=    50.00 Ry     beta= 0.10
     Davidson diagonalization with overlap
     ethr =  4.16E-06,  avg # of iterations =  1.0

     negative rho (up, down):  2.354E-05 5.454E-06
 
     Adding external electric field

     Computed dipole along edir(3) : 
        Dipole               -0.1795 Ry au,         -0.4562 Debye
        Dipole field         -0.0001 Ry au, 
 
        Potential amp.        0.0121 Ry
        Total length         55.1515 bohr
 
 
     Adding external electric field

     Computed dipole along edir(3) : 
        Dipole               -0.1795 Ry au,         -0.4562 Debye
        Dipole field         -0.0001 Ry au, 
 
        Potential amp.        0.0121 Ry
        Total length         55.1515 bohr
 

     total cpu time spent up to now is      476.3 secs

     total energy              =   -7738.30353302 Ry
     estimated scf accuracy    <       0.04817720 Ry

     total magnetization       =    88.36 Bohr mag/cell
     absolute magnetization    =    89.74 Bohr mag/cell

     iteration # 31     ecut=    50.00 Ry     beta= 0.10
     Davidson diagonalization with overlap
     ethr =  4.16E-06,  avg # of iterations =  1.0

     negative rho (up, down):  3.022E-05 9.087E-06
 
     Adding external electric field

     Computed dipole along edir(3) : 
        Dipole               -0.1830 Ry au,         -0.4650 Debye
        Dipole field         -0.0001 Ry au, 
 
        Potential amp.        0.0124 Ry
        Total length         55.1515 bohr
 
 
     Adding external electric field

     Computed dipole along edir(3) : 
        Dipole               -0.1830 Ry au,         -0.4650 Debye
        Dipole field         -0.0001 Ry au, 
 
        Potential amp.        0.0124 Ry
        Total length         55.1515 bohr
 

     total cpu time spent up to now is      488.9 secs

     total energy              =   -7738.30397599 Ry
     estimated scf accuracy    <       0.05168599 Ry

     total magnetization       =    88.41 Bohr mag/cell
     absolute magnetization    =    89.81 Bohr mag/cell

     iteration # 32     ecut=    50.00 Ry     beta= 0.10
     Davidson diagonalization with overlap
     ethr =  4.16E-06,  avg # of iterations =  1.0

     negative rho (up, down):  4.042E-05 1.185E-05
 
     Adding external electric field

     Computed dipole along edir(3) : 
        Dipole               -0.1830 Ry au,         -0.4651 Debye
        Dipole field         -0.0001 Ry au, 
 
        Potential amp.        0.0124 Ry
        Total length         55.1515 bohr
 
 
     Adding external electric field

     Computed dipole along edir(3) : 
        Dipole               -0.1830 Ry au,         -0.4651 Debye
        Dipole field         -0.0001 Ry au, 
 
        Potential amp.        0.0124 Ry
        Total length         55.1515 bohr
 

     total cpu time spent up to now is      501.0 secs

     total energy              =   -7738.30333725 Ry
     estimated scf accuracy    <       0.05314785 Ry

     total magnetization       =    88.44 Bohr mag/cell
     absolute magnetization    =    89.83 Bohr mag/cell

     iteration # 33     ecut=    50.00 Ry     beta= 0.10
     Davidson diagonalization with overlap
     ethr =  4.16E-06,  avg # of iterations =  1.0

     negative rho (up, down):  2.044E-05 6.401E-06
 
     Adding external electric field

     Computed dipole along edir(3) : 
        Dipole               -0.1986 Ry au,         -0.5048 Debye
        Dipole field         -0.0001 Ry au, 
 
        Potential amp.        0.0134 Ry
        Total length         55.1515 bohr
 
 
     Adding external electric field

     Computed dipole along edir(3) : 
        Dipole               -0.1986 Ry au,         -0.5048 Debye
        Dipole field         -0.0001 Ry au, 
 
        Potential amp.        0.0134 Ry
        Total length         55.1515 bohr
 

     total cpu time spent up to now is      513.4 secs

     total energy              =   -7738.30450734 Ry
     estimated scf accuracy    <       0.05168882 Ry

     total magnetization       =    88.46 Bohr mag/cell
     absolute magnetization    =    89.86 Bohr mag/cell

     iteration # 34     ecut=    50.00 Ry     beta= 0.10
     Davidson diagonalization with overlap
     ethr =  4.16E-06,  avg # of iterations =  1.0

     negative rho (up, down):  8.078E-06 4.983E-06
 
     Adding external electric field

     Computed dipole along edir(3) : 
        Dipole               -0.2394 Ry au,         -0.6085 Debye
        Dipole field         -0.0001 Ry au, 
 
        Potential amp.        0.0162 Ry
        Total length         55.1515 bohr
 
 
     Adding external electric field

     Computed dipole along edir(3) : 
        Dipole               -0.2394 Ry au,         -0.6085 Debye
        Dipole field         -0.0001 Ry au, 
 
        Potential amp.        0.0162 Ry
        Total length         55.1515 bohr
 

     total cpu time spent up to now is      525.9 secs

     total energy              =   -7738.30633426 Ry
     estimated scf accuracy    <       0.04454350 Ry

     total magnetization       =    88.29 Bohr mag/cell
     absolute magnetization    =    89.66 Bohr mag/cell

     iteration # 35     ecut=    50.00 Ry     beta= 0.10
     Davidson diagonalization with overlap
     ethr =  4.08E-06,  avg # of iterations =  1.5

     negative rho (up, down):  2.212E-05 1.689E-05
 
     Adding external electric field

     Computed dipole along edir(3) : 
        Dipole               -0.2176 Ry au,         -0.5531 Debye
        Dipole field         -0.0001 Ry au, 
 
        Potential amp.        0.0147 Ry
        Total length         55.1515 bohr
 
 
     Adding external electric field

     Computed dipole along edir(3) : 
        Dipole               -0.2176 Ry au,         -0.5531 Debye
        Dipole field         -0.0001 Ry au, 
 
        Potential amp.        0.0147 Ry
        Total length         55.1515 bohr
 

     total cpu time spent up to now is      539.4 secs

     total energy              =   -7738.30594332 Ry
     estimated scf accuracy    <       0.05542989 Ry

     total magnetization       =    88.42 Bohr mag/cell
     absolute magnetization    =    89.82 Bohr mag/cell

     iteration # 36     ecut=    50.00 Ry     beta= 0.10
     Davidson diagonalization with overlap
     ethr =  4.08E-06,  avg # of iterations =  1.0

     negative rho (up, down):  3.651E-05 8.465E-06
 
     Adding external electric field

     Computed dipole along edir(3) : 
        Dipole               -0.2304 Ry au,         -0.5855 Debye
        Dipole field         -0.0001 Ry au, 
 
        Potential amp.        0.0156 Ry
        Total length         55.1515 bohr
 
 
     Adding external electric field

     Computed dipole along edir(3) : 
        Dipole               -0.2304 Ry au,         -0.5855 Debye
        Dipole field         -0.0001 Ry au, 
 
        Potential amp.        0.0156 Ry
        Total length         55.1515 bohr
 

     total cpu time spent up to now is      551.3 secs

     total energy              =   -7738.29925995 Ry
     estimated scf accuracy    <       0.06175889 Ry

     total magnetization       =    88.22 Bohr mag/cell
     absolute magnetization    =    89.71 Bohr mag/cell

     iteration # 37     ecut=    50.00 Ry     beta= 0.10
     Davidson diagonalization with overlap
     ethr =  4.08E-06,  avg # of iterations =  2.0

     negative rho (up, down):  1.622E-05 1.149E-05
 
     Adding external electric field

     Computed dipole along edir(3) : 
        Dipole               -0.1347 Ry au,         -0.3424 Debye
        Dipole field         -0.0001 Ry au, 
 
        Potential amp.        0.0091 Ry
        Total length         55.1515 bohr
 
 
     Adding external electric field

     Computed dipole along edir(3) : 
        Dipole               -0.1347 Ry au,         -0.3424 Debye
        Dipole field         -0.0001 Ry au, 
 
        Potential amp.        0.0091 Ry
        Total length         55.1515 bohr
 

     total cpu time spent up to now is      564.9 secs

     total energy              =   -7738.30538168 Ry
     estimated scf accuracy    <       0.05273846 Ry

     total magnetization       =    88.38 Bohr mag/cell
     absolute magnetization    =    89.58 Bohr mag/cell

     iteration # 38     ecut=    50.00 Ry     beta= 0.10
     Davidson diagonalization with overlap
     ethr =  4.08E-06,  avg # of iterations =  1.5

     negative rho (up, down):  9.205E-05 4.322E-05
 
     Adding external electric field

     Computed dipole along edir(3) : 
        Dipole               -0.0704 Ry au,         -0.1789 Debye
        Dipole field         -0.0000 Ry au, 
 
        Potential amp.        0.0048 Ry
        Total length         55.1515 bohr
 
 
     Adding external electric field

     Computed dipole along edir(3) : 
        Dipole               -0.0704 Ry au,         -0.1789 Debye
        Dipole field         -0.0000 Ry au, 
 
        Potential amp.        0.0048 Ry
        Total length         55.1515 bohr
 

     total cpu time spent up to now is      577.7 secs

     total energy              =   -7738.30427555 Ry
     estimated scf accuracy    <       0.06256860 Ry

     total magnetization       =    88.37 Bohr mag/cell
     absolute magnetization    =    89.72 Bohr mag/cell

     iteration # 39     ecut=    50.00 Ry     beta= 0.10
     Davidson diagonalization with overlap
     ethr =  4.08E-06,  avg # of iterations =  2.0

     negative rho (up, down):  3.624E-05 2.054E-05
 
     Adding external electric field

     Computed dipole along edir(3) : 
        Dipole               -0.1010 Ry au,         -0.2567 Debye
        Dipole field         -0.0001 Ry au, 
 
        Potential amp.        0.0068 Ry
        Total length         55.1515 bohr
 
 
     Adding external electric field

     Computed dipole along edir(3) : 
        Dipole               -0.1010 Ry au,         -0.2567 Debye
        Dipole field         -0.0001 Ry au, 
 
        Potential amp.        0.0068 Ry
        Total length         55.1515 bohr
 

     total cpu time spent up to now is      591.4 secs

     total energy              =   -7738.30458780 Ry
     estimated scf accuracy    <       0.06800155 Ry

     total magnetization       =    88.40 Bohr mag/cell
     absolute magnetization    =    89.80 Bohr mag/cell

     iteration # 40     ecut=    50.00 Ry     beta= 0.10
     Davidson diagonalization with overlap
     ethr =  4.08E-06,  avg # of iterations =  1.0

     negative rho (up, down):  1.961E-05 1.356E-05
 
     Adding external electric field

     Computed dipole along edir(3) : 
        Dipole               -0.1324 Ry au,         -0.3364 Debye
        Dipole field         -0.0001 Ry au, 
 
        Potential amp.        0.0089 Ry
        Total length         55.1515 bohr
 
 
     Adding external electric field

     Computed dipole along edir(3) : 
        Dipole               -0.1324 Ry au,         -0.3364 Debye
        Dipole field         -0.0001 Ry au, 
 
        Potential amp.        0.0089 Ry
        Total length         55.1515 bohr
 

     total cpu time spent up to now is      604.0 secs

     total energy              =   -7738.30616867 Ry
     estimated scf accuracy    <       0.06774511 Ry

     total magnetization       =    88.42 Bohr mag/cell
     absolute magnetization    =    89.86 Bohr mag/cell

     iteration # 41     ecut=    50.00 Ry     beta= 0.10
     Davidson diagonalization with overlap
     ethr =  4.08E-06,  avg # of iterations =  1.0

     negative rho (up, down):  3.208E-05 2.576E-05
 
     Adding external electric field

     Computed dipole along edir(3) : 
        Dipole               -0.1100 Ry au,         -0.2797 Debye
        Dipole field         -0.0001 Ry au, 
 
        Potential amp.        0.0074 Ry
        Total length         55.1515 bohr
 
 
     Adding external electric field

     Computed dipole along edir(3) : 
        Dipole               -0.1100 Ry au,         -0.2797 Debye
        Dipole field         -0.0001 Ry au, 
 
        Potential amp.        0.0074 Ry
        Total length         55.1515 bohr
 

     total cpu time spent up to now is      616.4 secs

     total energy              =   -7738.30642976 Ry
     estimated scf accuracy    <       0.06104583 Ry

     total magnetization       =    88.39 Bohr mag/cell
     absolute magnetization    =    89.77 Bohr mag/cell

     iteration # 42     ecut=    50.00 Ry     beta= 0.10
     Davidson diagonalization with overlap
     ethr =  4.08E-06,  avg # of iterations =  1.0

     negative rho (up, down):  2.641E-05 2.691E-05
 
     Adding external electric field

     Computed dipole along edir(3) : 
        Dipole               -0.1345 Ry au,         -0.3418 Debye
        Dipole field         -0.0001 Ry au, 
 
        Potential amp.        0.0091 Ry
        Total length         55.1515 bohr
 
 
     Adding external electric field

     Computed dipole along edir(3) : 
        Dipole               -0.1345 Ry au,         -0.3418 Debye
        Dipole field         -0.0001 Ry au, 
 
        Potential amp.        0.0091 Ry
        Total length         55.1515 bohr
 

     total cpu time spent up to now is      629.0 secs

     total energy              =   -7738.30692974 Ry
     estimated scf accuracy    <       0.06148885 Ry

     total magnetization       =    88.38 Bohr mag/cell
     absolute magnetization    =    89.76 Bohr mag/cell

     iteration # 43     ecut=    50.00 Ry     beta= 0.10
     Davidson diagonalization with overlap
     ethr =  4.08E-06,  avg # of iterations =  1.0

     negative rho (up, down):  3.600E-05 1.828E-05
 
     Adding external electric field

     Computed dipole along edir(3) : 
        Dipole               -0.2408 Ry au,         -0.6120 Debye
        Dipole field         -0.0001 Ry au, 
 
        Potential amp.        0.0163 Ry
        Total length         55.1515 bohr
 
 
     Adding external electric field

     Computed dipole along edir(3) : 
        Dipole               -0.2408 Ry au,         -0.6120 Debye
        Dipole field         -0.0001 Ry au, 
 
        Potential amp.        0.0163 Ry
        Total length         55.1515 bohr
 

     total cpu time spent up to now is      641.4 secs

     total energy              =   -7738.30352529 Ry
     estimated scf accuracy    <       0.06420606 Ry

     total magnetization       =    88.31 Bohr mag/cell
     absolute magnetization    =    89.64 Bohr mag/cell

     iteration # 44     ecut=    50.00 Ry     beta= 0.10
     Davidson diagonalization with overlap
     ethr =  4.08E-06,  avg # of iterations =  2.0

     negative rho (up, down):  2.072E-04 1.414E-04
 
     Adding external electric field

     Computed dipole along edir(3) : 
        Dipole               -0.0801 Ry au,         -0.2037 Debye
        Dipole field         -0.0000 Ry au, 
 
        Potential amp.        0.0054 Ry
        Total length         55.1515 bohr
 
 
     Adding external electric field

     Computed dipole along edir(3) : 
        Dipole               -0.0801 Ry au,         -0.2037 Debye
        Dipole field         -0.0000 Ry au, 
 
        Potential amp.        0.0054 Ry
        Total length         55.1515 bohr
 

     total cpu time spent up to now is      655.5 secs

     total energy              =   -7738.30445694 Ry
     estimated scf accuracy    <       0.06048003 Ry

     total magnetization       =    88.53 Bohr mag/cell
     absolute magnetization    =    89.74 Bohr mag/cell

     iteration # 45     ecut=    50.00 Ry     beta= 0.10
     Davidson diagonalization with overlap
     ethr =  4.08E-06,  avg # of iterations =  2.0

     negative rho (up, down):  2.546E-05 1.783E-05
 
     Adding external electric field

     Computed dipole along edir(3) : 
        Dipole               -0.1319 Ry au,         -0.3352 Debye
        Dipole field         -0.0001 Ry au, 
 
        Potential amp.        0.0089 Ry
        Total length         55.1515 bohr
 
 
     Adding external electric field

     Computed dipole along edir(3) : 
        Dipole               -0.1319 Ry au,         -0.3352 Debye
        Dipole field         -0.0001 Ry au, 
 
        Potential amp.        0.0089 Ry
        Total length         55.1515 bohr
 

     total cpu time spent up to now is      669.6 secs

     total energy              =   -7738.30581900 Ry
     estimated scf accuracy    <       0.06314701 Ry

     total magnetization       =    88.30 Bohr mag/cell
     absolute magnetization    =    89.61 Bohr mag/cell

     iteration # 46     ecut=    50.00 Ry     beta= 0.10
     Davidson diagonalization with overlap
     ethr =  4.08E-06,  avg # of iterations =  1.0

     negative rho (up, down):  4.398E-05 3.494E-05
 
     Adding external electric field

     Computed dipole along edir(3) : 
        Dipole               -0.2889 Ry au,         -0.7342 Debye
        Dipole field         -0.0002 Ry au, 
 
        Potential amp.        0.0195 Ry
        Total length         55.1515 bohr
 
 
     Adding external electric field

     Computed dipole along edir(3) : 
        Dipole               -0.2889 Ry au,         -0.7342 Debye
        Dipole field         -0.0002 Ry au, 
 
        Potential amp.        0.0195 Ry
        Total length         55.1515 bohr
 

     total cpu time spent up to now is      682.0 secs

     total energy              =   -7738.30718172 Ry
     estimated scf accuracy    <       0.05814695 Ry

     total magnetization       =    88.35 Bohr mag/cell
     absolute magnetization    =    89.74 Bohr mag/cell

     iteration # 47     ecut=    50.00 Ry     beta= 0.10
     Davidson diagonalization with overlap
     ethr =  4.08E-06,  avg # of iterations =  2.0

     negative rho (up, down):  5.009E-06 5.050E-06
 
     Adding external electric field

     Computed dipole along edir(3) : 
        Dipole               -0.2099 Ry au,         -0.5334 Debye
        Dipole field         -0.0001 Ry au, 
 
        Potential amp.        0.0142 Ry
        Total length         55.1515 bohr
 
 
     Adding external electric field

     Computed dipole along edir(3) : 
        Dipole               -0.2099 Ry au,         -0.5334 Debye
        Dipole field         -0.0001 Ry au, 
 
        Potential amp.        0.0142 Ry
        Total length         55.1515 bohr
 

     total cpu time spent up to now is      696.4 secs

     total energy              =   -7738.30667523 Ry
     estimated scf accuracy    <       0.05596907 Ry

     total magnetization       =    88.35 Bohr mag/cell
     absolute magnetization    =    89.71 Bohr mag/cell

     iteration # 48     ecut=    50.00 Ry     beta= 0.10
     Davidson diagonalization with overlap
     ethr =  4.08E-06,  avg # of iterations =  1.5

     negative rho (up, down):  1.576E-04 7.634E-05
 
     Adding external electric field

     Computed dipole along edir(3) : 
        Dipole               -0.1539 Ry au,         -0.3911 Debye
        Dipole field         -0.0001 Ry au, 
 
        Potential amp.        0.0104 Ry
        Total length         55.1515 bohr
 
 
     Adding external electric field

     Computed dipole along edir(3) : 
        Dipole               -0.1539 Ry au,         -0.3911 Debye
        Dipole field         -0.0001 Ry au, 
 
        Potential amp.        0.0104 Ry
        Total length         55.1515 bohr
 

     total cpu time spent up to now is      710.4 secs

     total energy              =   -7738.30034055 Ry
     estimated scf accuracy    <       0.06472288 Ry

     total magnetization       =    88.36 Bohr mag/cell
     absolute magnetization    =    89.79 Bohr mag/cell

     iteration # 49     ecut=    50.00 Ry     beta= 0.10
     Davidson diagonalization with overlap
     ethr =  4.08E-06,  avg # of iterations =  2.0

     negative rho (up, down):  1.114E-04 6.453E-05
 
     Adding external electric field

     Computed dipole along edir(3) : 
        Dipole               -0.2008 Ry au,         -0.5103 Debye
        Dipole field         -0.0001 Ry au, 
 
        Potential amp.        0.0136 Ry
        Total length         55.1515 bohr
 
 
     Adding external electric field

     Computed dipole along edir(3) : 
        Dipole               -0.2008 Ry au,         -0.5103 Debye
        Dipole field         -0.0001 Ry au, 
 
        Potential amp.        0.0136 Ry
        Total length         55.1515 bohr
 

     total cpu time spent up to now is      724.7 secs

     total energy              =   -7738.30269997 Ry
     estimated scf accuracy    <       0.05824089 Ry

     total magnetization       =    88.42 Bohr mag/cell
     absolute magnetization    =    89.73 Bohr mag/cell

     iteration # 50     ecut=    50.00 Ry     beta= 0.10
     Davidson diagonalization with overlap
     ethr =  4.08E-06,  avg # of iterations =  1.5

     negative rho (up, down):  5.285E-04 3.947E-04
 
     Adding external electric field

     Computed dipole along edir(3) : 
        Dipole               -0.0739 Ry au,         -0.1878 Debye
        Dipole field         -0.0000 Ry au, 
 
        Potential amp.        0.0050 Ry
        Total length         55.1515 bohr
 
 
     Adding external electric field

     Computed dipole along edir(3) : 
        Dipole               -0.0739 Ry au,         -0.1878 Debye
        Dipole field         -0.0000 Ry au, 
 
        Potential amp.        0.0050 Ry
        Total length         55.1515 bohr
 

     total cpu time spent up to now is      737.9 secs

     total energy              =   -7738.30398762 Ry
     estimated scf accuracy    <       0.07166042 Ry

     total magnetization       =    88.51 Bohr mag/cell
     absolute magnetization    =    89.91 Bohr mag/cell

     iteration # 51     ecut=    50.00 Ry     beta= 0.10
     Davidson diagonalization with overlap
     ethr =  4.08E-06,  avg # of iterations =  3.5

     negative rho (up, down):  4.871E-05 3.227E-05
 
     Adding external electric field

     Computed dipole along edir(3) : 
        Dipole               -0.1303 Ry au,         -0.3312 Debye
        Dipole field         -0.0001 Ry au, 
 
        Potential amp.        0.0088 Ry
        Total length         55.1515 bohr
 
 
     Adding external electric field

     Computed dipole along edir(3) : 
        Dipole               -0.1303 Ry au,         -0.3312 Debye
        Dipole field         -0.0001 Ry au, 
 
        Potential amp.        0.0088 Ry
        Total length         55.1515 bohr
 

     total cpu time spent up to now is      752.7 secs

     total energy              =   -7738.30555892 Ry
     estimated scf accuracy    <       0.05635700 Ry

     total magnetization       =    88.38 Bohr mag/cell
     absolute magnetization    =    89.84 Bohr mag/cell

     iteration # 52     ecut=    50.00 Ry     beta= 0.10
     Davidson diagonalization with overlap
     ethr =  4.08E-06,  avg # of iterations =  2.0

     negative rho (up, down):  5.154E-05 6.434E-05
 
     Adding external electric field

     Computed dipole along edir(3) : 
        Dipole               -0.2241 Ry au,         -0.5695 Debye
        Dipole field         -0.0001 Ry au, 
 
        Potential amp.        0.0151 Ry
        Total length         55.1515 bohr
 
 
     Adding external electric field

     Computed dipole along edir(3) : 
        Dipole               -0.2241 Ry au,         -0.5695 Debye
        Dipole field         -0.0001 Ry au, 
 
        Potential amp.        0.0151 Ry
        Total length         55.1515 bohr
 

     total cpu time spent up to now is      766.1 secs

     total energy              =   -7738.30678865 Ry
     estimated scf accuracy    <       0.06037613 Ry

     total magnetization       =    88.47 Bohr mag/cell
     absolute magnetization    =    89.90 Bohr mag/cell

     iteration # 53     ecut=    50.00 Ry     beta= 0.10
     Davidson diagonalization with overlap
     ethr =  4.08E-06,  avg # of iterations =  1.0

     negative rho (up, down):  8.227E-05 6.433E-05
 
     Adding external electric field

     Computed dipole along edir(3) : 
        Dipole               -0.0808 Ry au,         -0.2053 Debye
        Dipole field         -0.0000 Ry au, 
 
        Potential amp.        0.0055 Ry
        Total length         55.1515 bohr
 
 
     Adding external electric field

     Computed dipole along edir(3) : 
        Dipole               -0.0808 Ry au,         -0.2053 Debye
        Dipole field         -0.0000 Ry au, 
 
        Potential amp.        0.0055 Ry
        Total length         55.1515 bohr
 

     total cpu time spent up to now is      778.0 secs

     total energy              =   -7738.30390954 Ry
     estimated scf accuracy    <       0.06502100 Ry

     total magnetization       =    88.21 Bohr mag/cell
     absolute magnetization    =    89.49 Bohr mag/cell

     iteration # 54     ecut=    50.00 Ry     beta= 0.10
     Davidson diagonalization with overlap
     ethr =  4.08E-06,  avg # of iterations =  1.0

     negative rho (up, down):  1.777E-03 1.389E-03
 
     Adding external electric field

     Computed dipole along edir(3) : 
        Dipole               -0.1013 Ry au,         -0.2575 Debye
        Dipole field         -0.0001 Ry au, 
 
        Potential amp.        0.0068 Ry
        Total length         55.1515 bohr
 
 
     Adding external electric field

     Computed dipole along edir(3) : 
        Dipole               -0.1013 Ry au,         -0.2575 Debye
        Dipole field         -0.0001 Ry au, 
 
        Potential amp.        0.0068 Ry
        Total length         55.1515 bohr
 

     total cpu time spent up to now is      789.9 secs

     total energy              =   -7738.30192513 Ry
     estimated scf accuracy    <       0.05725114 Ry

     total magnetization       =    88.20 Bohr mag/cell
     absolute magnetization    =    89.74 Bohr mag/cell

     iteration # 55     ecut=    50.00 Ry     beta= 0.10
     Davidson diagonalization with overlap
     ethr =  4.08E-06,  avg # of iterations =  2.0

     negative rho (up, down):  4.640E-04 3.120E-04
 
     Adding external electric field

     Computed dipole along edir(3) : 
        Dipole               -0.1848 Ry au,         -0.4698 Debye
        Dipole field         -0.0001 Ry au, 
 
        Potential amp.        0.0125 Ry
        Total length         55.1515 bohr
 
 
     Adding external electric field

     Computed dipole along edir(3) : 
        Dipole               -0.1848 Ry au,         -0.4698 Debye
        Dipole field         -0.0001 Ry au, 
 
        Potential amp.        0.0125 Ry
        Total length         55.1515 bohr
 

     total cpu time spent up to now is      803.9 secs

     total energy              =   -7738.30476549 Ry
     estimated scf accuracy    <       0.06035881 Ry

     total magnetization       =    88.27 Bohr mag/cell
     absolute magnetization    =    89.56 Bohr mag/cell

     iteration # 56     ecut=    50.00 Ry     beta= 0.10
     Davidson diagonalization with overlap
     ethr =  4.08E-06,  avg # of iterations =  1.0

     negative rho (up, down):  3.720E-03 3.199E-03
 
     Adding external electric field

     Computed dipole along edir(3) : 
        Dipole               -0.0792 Ry au,         -0.2013 Debye
        Dipole field         -0.0000 Ry au, 
 
        Potential amp.        0.0053 Ry
        Total length         55.1515 bohr
 
 
     Adding external electric field

     Computed dipole along edir(3) : 
        Dipole               -0.0792 Ry au,         -0.2013 Debye
        Dipole field         -0.0000 Ry au, 
 
        Potential amp.        0.0053 Ry
        Total length         55.1515 bohr
 

     total cpu time spent up to now is      815.4 secs

     total energy              =   -7738.30312841 Ry
     estimated scf accuracy    <       0.05158686 Ry

     total magnetization       =    88.38 Bohr mag/cell
     absolute magnetization    =    89.75 Bohr mag/cell

     iteration # 57     ecut=    50.00 Ry     beta= 0.10
     Davidson diagonalization with overlap
     ethr =  4.08E-06,  avg # of iterations =  2.0

     negative rho (up, down):  2.043E-05 1.069E-05
 
     Adding external electric field

     Computed dipole along edir(3) : 
        Dipole               -0.1902 Ry au,         -0.4835 Debye
        Dipole field         -0.0001 Ry au, 
 
        Potential amp.        0.0128 Ry
        Total length         55.1515 bohr
 
 
     Adding external electric field

     Computed dipole along edir(3) : 
        Dipole               -0.1902 Ry au,         -0.4835 Debye
        Dipole field         -0.0001 Ry au, 
 
        Potential amp.        0.0128 Ry
        Total length         55.1515 bohr
 

     total cpu time spent up to now is      828.1 secs

     total energy              =   -7738.30554642 Ry
     estimated scf accuracy    <       0.06023561 Ry

     total magnetization       =    88.41 Bohr mag/cell
     absolute magnetization    =    89.89 Bohr mag/cell

     iteration # 58     ecut=    50.00 Ry     beta= 0.10
     Davidson diagonalization with overlap
     ethr =  4.08E-06,  avg # of iterations =  2.0

     negative rho (up, down):  5.344E-05 4.054E-05
 
     Adding external electric field

     Computed dipole along edir(3) : 
        Dipole               -0.2373 Ry au,         -0.6033 Debye
        Dipole field         -0.0001 Ry au, 
 
[...]
    -5.9165  -5.8984  -5.8855  -5.8768  -5.8645  -5.8427  -5.8346  -5.8051
    -5.7778  -5.7722  -5.7325  -5.7225  -5.7055  -5.6781  -5.6674  -5.6493
    -5.6310  -5.6006  -5.5551  -5.5508  -5.5265  -5.4956  -5.4804  -5.4700
    -5.4650  -5.4347  -5.4283  -5.4002  -5.3818  -5.3669  -5.3545  -5.3248
    -5.2071  -5.1971  -5.1806  -5.1739  -5.1599  -5.1346  -5.0711  -5.0269
    -5.0087  -4.9908  -4.9477  -4.9194  -4.9088  -4.8901  -4.8568  -4.8156
    -4.7914  -4.7363  -4.7256  -4.7104  -4.6714  -4.6544  -4.6233  -4.5457
    -4.5448  -4.4750  -4.4584  -4.4012  -4.3947  -4.3763  -4.3357  -4.3276
    -4.3112  -4.2526  -4.1895  -4.1796  -4.1438  -4.1163  -4.0981  -4.0732
    -4.0641  -4.0400  -4.0371  -3.9651  -3.9207  -3.8997  -3.8878  -3.8485
    -3.8295  -3.8091  -3.7666  -3.7566  -3.7519  -3.7192  -3.6971  -3.6607
    -3.6341  -3.5866  -3.5841  -3.5784  -3.5573  -3.5371  -3.5364  -3.5159
    -3.5004  -3.4774  -3.4561  -3.4521  -3.4411  -3.4284  -3.4024  -3.3884
    -3.3605  -3.3568  -3.3414  -3.3124  -3.3073  -3.2673  -3.2518  -3.2058
    -3.2015  -3.1908  -3.1832  -3.1649  -3.1560  -3.1025  -3.0781  -3.0554
    -3.0321  -3.0133  -3.0084  -2.9987  -2.9949  -2.9836  -2.9663  -2.9283
    -2.9107  -2.8994  -2.8740  -2.8333  -2.8285  -2.8186  -2.7825  -2.7651
    -2.7412  -2.7286  -2.7132  -2.7001  -2.6961  -2.6776  -2.6617  -2.6532
    -2.6369  -2.6292  -2.6233  -2.6028  -2.5900  -2.5800  -2.5730  -2.5587
    -2.5422  -2.5292  -2.5139  -2.4931  -2.4752  -2.4695  -2.4456  -2.4358
    -2.4074  -2.4003  -2.3752  -2.3491  -2.3154  -2.2984  -2.2797  -2.2570
    -2.2446  -2.2302  -2.2087  -2.1692  -2.1556  -2.1369  -2.1248  -2.0996
    -2.0961  -2.0758  -2.0665  -2.0544  -2.0394  -2.0164  -1.9991  -1.9526
    -1.9388  -1.9101  -1.9059  -1.8969  -1.8868  -1.8758  -1.8432  -1.8196
    -1.8099  -1.7937  -1.7763  -1.7688  -1.7594  -1.7490  -1.7315  -1.7148
    -1.6886  -1.6615  -1.6468  -1.6054  -1.5972  -1.5795  -1.5608  -1.5410
    -1.5288  -1.4976  -1.4767  -1.4571  -1.4515  -1.4413  -1.4143  -1.3921
    -1.3833  -1.3732  -1.3516  -1.3425  -1.3174  -1.3019  -1.2465  -1.2418
    -1.2234  -1.2146  -1.1945  -1.1547  -1.1489  -1.0828  -1.0413  -1.0248
    -0.9780  -0.8737  -0.8582  -0.8161  -0.7474  -0.6827  -0.6822  -0.4475
    -0.2836  -0.2371  -0.2327  -0.1051   0.2170   0.2499   0.2718   0.2792
     0.2843   0.3004   0.3351   0.3439   0.3695   0.3788   0.3948   0.4001
     0.4063   0.4178   0.4283   0.4346   0.4424   0.4549   0.4620   0.4705
     0.4762   0.4870   0.4880   0.4966   0.5020   0.5113   0.5136   0.5253
     0.5415   0.5436   0.5529   0.5594   0.5650   0.5700   0.5727   0.5989
     0.6055   0.6082   0.6156   0.6196   0.6335   0.6455   0.6476   0.6488
     0.6645   0.6690   0.6714   0.6828   0.6846   0.7046   0.7084   0.7126
     0.7216   0.7269   0.7297   0.7392   0.7551   0.7695   0.7817   0.7845
     0.7930   0.7973   0.8054   0.8299   0.8344   0.8445   0.8480   0.8503
     0.8626   0.8658   0.8842   0.8983   0.9018   0.9070   0.9185   0.9244
     0.9315   0.9604   0.9704   0.9853   0.9865   0.9880   0.9914   1.0171
     1.0522   1.1308   1.1331   1.2318   1.2539   1.7032   1.7812   1.7892
     1.7946   1.8100   1.8209   1.8376   1.8476   1.8601   1.9434   1.9598
     1.9720   1.9919   2.0172   2.0405   2.0518   2.0807   2.0950   2.1456
     2.1566   2.1706   2.1809   2.2082   2.2220   2.2381   2.2514   2.2690
     2.2795   2.2999   2.3215   2.3364   2.3487   2.3590   2.3905   2.3994
     2.4115   2.4137   2.4613   2.4639   2.4922   2.5095   2.5165   2.5221
     2.5342   2.5396   2.5593   2.5681   2.5877   2.6195   2.6272   2.6461
     2.6663   2.6722   2.6842   2.7426   2.8105   2.8272   2.8850   2.8948
     2.8976   2.9420   3.5208   3.5552   3.6059   3.6326   3.7667   3.7968
     3.8780   3.8917   3.9053   3.9504   3.9638   4.0164   4.1012   4.1092
     4.1182   4.1411   4.1653   4.1703   4.1920   4.2065   4.6773   4.7974
     4.8480   4.8829   4.9511   4.9646   4.9994   5.0543   5.0620   5.1353
     5.1369   5.1942   5.4380   6.3021   6.3930   6.5297   6.6406   6.7351
     6.8128   6.8664   6.9194   6.9639   7.0021   7.0818   7.1502   7.2170
     7.2955   7.3596   7.4098   7.4201   7.4650   7.5055   7.6495   7.6882
     7.7272   7.7642   7.7749   7.8190   7.8620   7.9093   7.9272   7.9692
     8.0255   8.0571   8.0901   8.1184   8.1698   8.1916   8.2119   8.2440
     8.2799   8.3145   8.3689   8.3848   8.4248   8.4330   8.4450   8.4691
     8.4807   8.5089   8.5355   8.5526   8.5886   8.5975   8.6153   8.6708
     8.6928   8.7070   8.7251   8.7469   8.7669   8.8077   8.8382   8.8759

     the Fermi energy is     1.6941 ev

!    total energy              =   -7738.30210444 Ry
     estimated scf accuracy    <       0.00000066 Ry
     smearing contrib. (-TS)   =      -0.02505620 Ry
     internal energy E=F+TS    =   -7738.27704824 Ry

     The total energy is F=E-TS. E is the sum of the following terms:
     one-electron contribution =  -95054.38240118 Ry
     hartree contribution      =   48144.83078294 Ry
     xc contribution           =   -2218.73810536 Ry
     ewald contribution        =   41391.82114043 Ry
     Dispersion Correction     =      -1.80864260 Ry
     electric field correction =       0.00017751 Ry

     total magnetization       =    88.32 Bohr mag/cell
     absolute magnetization    =    89.69 Bohr mag/cell

     convergence has been achieved in 127 iterations

     negative rho (up, down):  1.048E-03 5.891E-04

     Forces acting on atoms (cartesian axes, Ry/au):

     atom    1 type  1   force =     0.02523625   -0.03098071    0.01822262
     atom    2 type  2   force =    -0.01381454   -0.00153677   -0.01016256
     atom    3 type  1   force =    -0.02327857   -0.01857279    0.01958322
     atom    4 type  1   force =     0.00574046    0.00410147   -0.00646725
     atom    5 type  1   force =    -0.00192290    0.00117025   -0.00545702
     atom    6 type  1   force =     0.00209490    0.00775983   -0.00922538
     atom    7 type  3   force =    -0.00773102    0.00117446   -0.01041838
     atom    8 type  3   force =    -0.03499050    0.05414723   -0.08327218
     atom    9 type  3   force =     0.03413918    0.03816828   -0.06426834
     atom   10 type  3   force =    -0.00305916   -0.00247868   -0.01157435
     atom   11 type  4   force =     0.00674445    0.00562201    0.01390979
     atom   12 type  4   force =    -0.00023445   -0.00294450    0.01481681
     atom   13 type  4   force =     0.00194123    0.00169213    0.01734654
     atom   14 type  4   force =    -0.00050370   -0.00127725    0.01272515
     atom   15 type  4   force =    -0.00068232    0.00455159   -0.00197636
     atom   16 type  4   force =    -0.00040349    0.00258329    0.04045120
     atom   17 type  4   force =     0.00168611    0.00805612    0.03796002
     atom   18 type  4   force =     0.00799349   -0.00448708   -0.00045288
     atom   19 type  4   force =     0.00045918    0.01192517    0.00424960
     atom   20 type  4   force =    -0.00968756   -0.02671068   -0.00367694
     atom   21 type  4   force =    -0.01114073   -0.00043098    0.00064426
     atom   22 type  4   force =    -0.03200593    0.00312315    0.00786839
     atom   23 type  4   force =     0.03198469    0.00058678    0.01410097
     atom   24 type  4   force =     0.00705834   -0.03690410    0.00380151
     atom   25 type  4   force =    -0.00314481    0.00173271    0.00392790
     atom   26 type  4   force =     0.01784841   -0.00687025    0.00077998
     atom   27 type  1   force =    -0.00522325   -0.00875825    0.00268148
     atom   28 type  2   force =    -0.01382227   -0.00031778    0.00488606
     atom   29 type  1   force =     0.00298252   -0.00507130   -0.00128016
     atom   30 type  1   force =     0.00391195    0.00341582    0.00191169
     atom   31 type  1   force =     0.00134240   -0.00469785    0.00017480
     atom   32 type  1   force =    -0.00077304    0.00118035   -0.00181263
     atom   33 type  3   force =    -0.00627965   -0.00045092   -0.00043960
     atom   34 type  3   force =    -0.00801036    0.00260531   -0.00019520
     atom   35 type  3   force =     0.00436689   -0.00058552    0.00294307
     atom   36 type  3   force =     0.00093515   -0.00176373   -0.00500183
     atom   37 type  4   force =     0.00822910    0.00490315    0.00741884
     atom   38 type  4   force =     0.00375104   -0.00082353   -0.01923438
     atom   39 type  4   force =    -0.00149845    0.00368618   -0.00983316
     atom   40 type  4   force =    -0.00173378   -0.00231477    0.00900847
     atom   41 type  4   force =    -0.00052105    0.00346087   -0.00634395
     atom   42 type  4   force =    -0.00433184   -0.00451426    0.01799099
     atom   43 type  4   force =     0.00773852    0.00342656    0.00765746
     atom   44 type  4   force =     0.01049381   -0.00469632   -0.00755540
     atom   45 type  4   force =     0.00292723    0.00453412    0.00059289
     atom   46 type  4   force =     0.00241943   -0.00020434   -0.00560319
     atom   47 type  4   force =    -0.01293471   -0.00010842   -0.00350925
     atom   48 type  4   force =    -0.01468331    0.00124877    0.00332788
     atom   49 type  4   force =     0.01361277    0.00254542    0.00439566
     atom   50 type  4   force =    -0.00273145   -0.00499525   -0.00050361
     atom   51 type  4   force =    -0.00506101    0.00155174    0.00003203
     atom   52 type  4   force =     0.01592154   -0.00419600   -0.00437383
     atom   53 type  1   force =     0.00030967   -0.00017890    0.00008475
     atom   54 type  2   force =     0.00020583    0.00033977    0.00015581
     atom   55 type  1   force =     0.00034539   -0.00007957    0.00017583
     atom   56 type  1   force =    -0.00009188   -0.00017552   -0.00022181
     atom   57 type  1   force =     0.00018321   -0.00064682    0.00014538
     atom   58 type  1   force =    -0.00000357    0.00041554    0.00026468
     atom   59 type  3   force =    -0.00072566   -0.00006478   -0.00013447
     atom   60 type  3   force =     0.00020244   -0.00020777    0.00032950
     atom   61 type  3   force =     0.00010244    0.00017248   -0.00020773
     atom   62 type  3   force =    -0.00005628   -0.00040256   -0.00026104
     atom   63 type  4   force =     0.00086112    0.00014469   -0.00036679
     atom   64 type  4   force =    -0.00006450   -0.00012999    0.00052766
     atom   65 type  4   force =    -0.00064551   -0.00046468    0.00061513
     atom   66 type  4   force =    -0.00087027   -0.00041207   -0.00033517
     atom   67 type  4   force =     0.00057066   -0.00035202   -0.00049006
     atom   68 type  4   force =     0.00018869    0.00076116    0.00067606
     atom   69 type  4   force =    -0.00001116    0.00046603   -0.00020691
     atom   70 type  4   force =    -0.00084733   -0.00013174   -0.00090513
     atom   71 type  4   force =     0.00089348   -0.00044918    0.00043694
     atom   72 type  4   force =    -0.00022353    0.00014787   -0.00000149
     atom   73 type  4   force =     0.00005777   -0.00002300    0.00020856
     atom   74 type  4   force =    -0.00012631    0.00040763   -0.00048144
     atom   75 type  4   force =     0.00019607   -0.00063968   -0.00002016
     atom   76 type  4   force =    -0.00015001   -0.00058627    0.00029494
     atom   77 type  4   force =     0.00019706    0.00060626    0.00015821
     atom   78 type  4   force =    -0.00087448   -0.00056729    0.00023730
     atom   79 type  1   force =     0.02523047   -0.03098720    0.01822286
     atom   80 type  2   force =    -0.01375931   -0.00154150   -0.01014009
     atom   81 type  1   force =    -0.02327550   -0.01857057    0.01958082
     atom   82 type  1   force =     0.00573606    0.00410018   -0.00646697
     atom   83 type  1   force =    -0.00192684    0.00117130   -0.00545261
     atom   84 type  1   force =     0.00209248    0.00776040   -0.00922427
     atom   85 type  3   force =    -0.00773351    0.00116152   -0.01040724
     atom   86 type  3   force =    -0.03499063    0.05414732   -0.08327562
     atom   87 type  3   force =     0.03414342    0.03816868   -0.06426615
     atom   88 type  3   force =    -0.00304760   -0.00248209   -0.01157924
     atom   89 type  4   force =     0.00687234    0.00563907    0.01389911
     atom   90 type  4   force =    -0.00013689   -0.00285946    0.01480893
     atom   91 type  4   force =     0.00202931    0.00168014    0.01732232
     atom   92 type  4   force =    -0.00034307   -0.00126795    0.01272666
     atom   93 type  4   force =    -0.00068077    0.00476024   -0.00186528
     atom   94 type  4   force =    -0.00046446    0.00253898    0.04024748
     atom   95 type  4   force =     0.00181697    0.00805742    0.03796040
     atom   96 type  4   force =     0.00779596   -0.00449809   -0.00047780
     atom   97 type  4   force =     0.00055569    0.01199314    0.00414792
     atom   98 type  4   force =    -0.00957996   -0.02654259   -0.00364409
     atom   99 type  4   force =    -0.01114951   -0.00039370    0.00083909
     atom  100 type  4   force =    -0.03203598    0.00301855    0.00774160
     atom  101 type  4   force =     0.03201192    0.00058973    0.01410647
     atom  102 type  4   force =     0.00687858   -0.03690626    0.00380667
     atom  103 type  4   force =    -0.00305360    0.00168337    0.00390229
     atom  104 type  4   force =     0.01796411   -0.00687380    0.00077411
     atom  105 type  1   force =    -0.00522502   -0.00874266    0.00258291
     atom  106 type  2   force =    -0.01308387    0.00022035    0.00458780
     atom  107 type  1   force =     0.00299446   -0.00518302   -0.00132962
     atom  108 type  1   force =     0.00240612    0.00504464   -0.00179999
     atom  109 type  1   force =     0.00173155   -0.00462663    0.00027137
     atom  110 type  1   force =    -0.00076585    0.00121172   -0.00183157
     atom  111 type  3   force =    -0.00618767   -0.00172715   -0.00291567
     atom  112 type  3   force =    -0.00802313    0.00261544   -0.00025789
     atom  113 type  3   force =     0.00449362   -0.00067642    0.00280346
     atom  114 type  3   force =     0.00083131   -0.00196640   -0.00410880
     atom  115 type  4   force =     0.00855174    0.00511355    0.00766011
     atom  116 type  4   force =     0.00376231   -0.00086874   -0.01921949
     atom  117 type  4   force =    -0.00136190    0.00367461   -0.00984702
     atom  118 type  4   force =    -0.00135492   -0.00277108    0.00918545
     atom  119 type  4   force =    -0.00147328    0.00367927   -0.00675720
     atom  120 type  4   force =    -0.00418707   -0.00462977    0.01798740
     atom  121 type  4   force =     0.00774223    0.00339595    0.00769207
     atom  122 type  4   force =     0.01012235   -0.00539408   -0.00607238
     atom  123 type  4   force =     0.00284726    0.00475807    0.00048114
     atom  124 type  4   force =     0.00219657   -0.00014818   -0.00560952
     atom  125 type  4   force =    -0.01290816   -0.00014853   -0.00369456
     atom  126 type  4   force =    -0.01479228    0.00125308    0.00340916
     atom  127 type  4   force =     0.01363247    0.00244413    0.00454667
     atom  128 type  4   force =    -0.00290829   -0.00499336   -0.00049611
     atom  129 type  4   force =    -0.00535773    0.00154388    0.00048459
     atom  130 type  4   force =     0.01542045   -0.00412563   -0.00439455
     atom  131 type  1   force =    -0.00003946    0.00001665    0.00007426
     atom  132 type  2   force =     0.00033259   -0.00020783    0.00021270
     atom  133 type  1   force =    -0.00042687   -0.00045917    0.00022385
     atom  134 type  1   force =     0.00011947    0.00088172    0.00018962
     atom  135 type  1   force =     0.00039385   -0.00052508   -0.00037538
     atom  136 type  1   force =    -0.00042445   -0.00043230    0.00063570
     atom  137 type  3   force =     0.00008104    0.00017353   -0.00001176
     atom  138 type  3   force =    -0.00069136   -0.00028320    0.00019909
     atom  139 type  3   force =    -0.00010451    0.00014395    0.00049577
     atom  140 type  3   force =     0.00008517    0.00029114    0.00000363
     atom  141 type  4   force =     0.00043852   -0.00017889    0.00026452
     atom  142 type  4   force =    -0.00033561    0.00039740    0.00009139
     atom  143 type  4   force =    -0.00001164    0.00035339    0.00047417
     atom  144 type  4   force =    -0.00052910   -0.00050736    0.00021023
     atom  145 type  4   force =     0.00013833   -0.00035594   -0.00016907
     atom  146 type  4   force =     0.00079004    0.00045217    0.00020133
     atom  147 type  4   force =     0.00019495    0.00027712    0.00056233
     atom  148 type  4   force =     0.00003143    0.00007637   -0.00016175
     atom  149 type  4   force =    -0.00019433    0.00029710   -0.00022894
     atom  150 type  4   force =    -0.00019729   -0.00008466    0.00008024
     atom  151 type  4   force =    -0.00009961   -0.00072333   -0.00001621
     atom  152 type  4   force =    -0.00017834   -0.00034789   -0.00025512
     atom  153 type  4   force =    -0.00033620    0.00017619    0.00041138
     atom  154 type  4   force =     0.00030874   -0.00034322    0.00026419
     atom  155 type  4   force =    -0.00049324    0.00001350   -0.00015776
     atom  156 type  4   force =    -0.00006182   -0.00041699    0.00017968
     atom  157 type  4   force =     0.00348678    0.00126353    0.00085709
     atom  158 type  5   force =    -0.00330857   -0.00265811   -0.00235033

     Total force =     0.262732     Total SCF correction =     0.004192
 
     init_run     :      8.16s CPU      8.73s WALL (       1 calls)
     electrons    :   1727.58s CPU   1792.76s WALL (       1 calls)
     forces       :      3.86s CPU      4.17s WALL (       1 calls)
     force_london :      0.08s CPU      0.08s WALL (       1 calls)

     Called by init_run:
     wfcinit      :      4.94s CPU      5.07s WALL (       1 calls)
     potinit      :      0.56s CPU      0.75s WALL (       1 calls)
     hinit0       :      1.54s CPU      1.65s WALL (       1 calls)

     Called by electrons:
     c_bands      :   1326.02s CPU   1361.03s WALL (     127 calls)
     sum_band     :    248.82s CPU    264.92s WALL (     127 calls)
     v_of_rho     :     31.17s CPU     32.90s WALL (     128 calls)
     newd         :     83.18s CPU     95.55s WALL (     128 calls)
     mix_rho      :     35.88s CPU     36.02s WALL (     127 calls)
     energy_londo :      0.08s CPU      0.08s WALL (       1 calls)

     Called by c_bands:
     init_us_2    :      2.90s CPU      2.99s WALL (     512 calls)
     init_us_2:cp :      2.90s CPU      2.99s WALL (     512 calls)
     regterg      :   1300.08s CPU   1334.80s WALL (     255 calls)

     Called by *egterg:
     rdiaghg      :    319.31s CPU    337.00s WALL (     919 calls)
     h_psi        :    504.31s CPU    512.21s WALL (     921 calls)
     s_psi        :     68.70s CPU     68.73s WALL (     921 calls)
     g_psi        :      0.51s CPU      0.51s WALL (     664 calls)

     Called by h_psi:
     h_psi:calbec :    136.16s CPU    142.43s WALL (     921 calls)
     vloc_psi     :    293.32s CPU    294.17s WALL (     921 calls)
     add_vuspsi   :     73.93s CPU     74.70s WALL (     921 calls)

     General routines
     calbec       :    201.03s CPU    210.26s WALL (    1183 calls)
     fft          :     67.22s CPU     69.60s WALL (    2317 calls)
     ffts         :     21.08s CPU     21.11s WALL (   15881 calls)
     fftw         :    342.73s CPU    343.64s WALL (  425888 calls)
     interpolate  :      2.61s CPU      2.70s WALL (     256 calls)
 
     Parallel routines
 
     PWSCF        :  29m 1.59s CPU  30m 7.94s WALL

 
   This run was terminated on:   1:50:51  18Nov2025            

=------------------------------------------------------------------------------=
   JOB DONE.
=------------------------------------------------------------------------------=
