
     Program PWSCF v.7.2 starts on 17Nov2025 at 23:12:15 

     This program is part of the open-source Quantum ESPRESSO suite
     for quantum simulation of materials; please cite
         "P. Giannozzi et al., J. Phys.:Condens. Matter 21 395502 (2009);
         "P. Giannozzi et al., J. Phys.:Condens. Matter 29 465901 (2017);
         "P. Giannozzi et al., J. Chem. Phys. 152 154105 (2020);
          URL http://www.quantum-espresso.org", 
     in publications or presentations arising from this work. More details at
     http://www.quantum-espresso.org/quote

     Parallel version (MPI), running on    64 processors

     MPI processes distributed on     4 nodes
     342875 MiB available memory on the printing compute node when the environment starts
 
     Reading input from PWINPUT_atm157_zm

     Current dimensions of program PWSCF are:
     Max number of different atomic species (ntypx) = 10
     Max number of k-points (npk) =  40000
     Max angular momentum in pseudopotentials (lmaxx) =  4
     Presently no symmetry can be used with electric field

     file Ni.pbe-n-rrkjus_psl.1.0.0.UPF: wavefunction(s)  3D renormalized
     file Mn.pbe-spn-rrkjus_psl.0.3.1.UPF: wavefunction(s)  3D renormalized
     file O.pbe-rrkjus.UPF: wavefunction(s)  2S renormalized
     file H.pbe-rrkjus.UPF: wavefunction(s)  1S renormalized

     gamma-point specific algorithms are used
 
     R & G space division:  proc/nbgrp/npool/nimage =      64
     Subspace diagonalization in iterative solution of the eigenvalue problem:
     one sub-group per band group will be used
     custom distributed-memory algorithm (size of sub-group:  7*  7 procs)

 
     Parallelization info
     --------------------
     sticks:   dense  smooth     PW     G-vecs:    dense   smooth      PW
     Min         207      82     20                60552    15302    1896
     Max         210      84     22                60574    15336    1950
     Sum       13325    5345   1333              3876045   980655  122653
 
     Using Slab Decomposition
 


     bravais-lattice index     =            0
     lattice parameter (alat)  =      17.4067  a.u.
     unit-cell volume          =   20529.8182 (a.u.)^3
     number of atoms/cell      =          158
     number of atomic types    =            5
     number of electrons       =      1093.00
     number of Kohn-Sham states=          656
     kinetic-energy cutoff     =      50.0000  Ry
     charge density cutoff     =     500.0000  Ry
     scf convergence threshold =      1.0E-06
     mixing beta               =       0.1000
     number of iterations used =            8  local-TF  mixing
     Exchange-correlation=  SLA  PW   PBE  PBE
                           (   1   4   3   4   0   0   0)

     celldm(1)=  17.406729  celldm(2)=   0.000000  celldm(3)=   0.000000
     celldm(4)=   0.000000  celldm(5)=   0.000000  celldm(6)=   0.000000

     crystal axes: (cart. coord. in units of alat)
               a(1) = (   1.000000   0.000000   0.000000 )  
               a(2) = (  -0.001404   1.105696   0.000000 )  
               a(3) = (   0.000000   0.000000   3.520448 )  

     reciprocal axes: (cart. coord. in units 2 pi/alat)
               b(1) = (  1.000000  0.001270  0.000000 )  
               b(2) = (  0.000000  0.904408  0.000000 )  
               b(3) = (  0.000000  0.000000  0.284055 )  


     PseudoPot. # 1 for Ni read from file:
     ~/PSEUDO/Ni.pbe-n-rrkjus_psl.1.0.0.UPF
     MD5 check sum: Not computed, couldn't open file
     Pseudo is Ultrasoft + core correction, Zval = 10.0
     Generated using "atomic" code by A. Dal Corso  v.5.1.2
     Using radial grid of 1195 points,  6 beta functions with: 
                l(1) =   0
                l(2) =   0
                l(3) =   1
                l(4) =   1
                l(5) =   2
                l(6) =   2
     Q(r) pseudized with 0 coefficients 


     PseudoPot. # 2 for Mn read from file:
     ~/PSEUDO/Mn.pbe-spn-rrkjus_psl.0.3.1.UPF
     MD5 check sum: Not computed, couldn't open file
     Pseudo is Ultrasoft + core correction, Zval = 15.0
     Generated using &quot;atomic&quot; code by A. Dal Corso  v.6.2.2
     Using radial grid of 1187 points,  6 beta functions with: 
                l(1) =   0
                l(2) =   0
                l(3) =   1
                l(4) =   1
                l(5) =   2
                l(6) =   2
     Q(r) pseudized with 0 coefficients 


     PseudoPot. # 3 for P  read from file:
     ~/PSEUDO/P.pbe-n-rrkjus_psl.1.0.0.UPF
     MD5 check sum: Not computed, couldn't open file
     Pseudo is Ultrasoft + core correction, Zval =  5.0
     Generated using "atomic" code by A. Dal Corso  v.5.1
     Using radial grid of 1147 points,  6 beta functions with: 
                l(1) =   0
                l(2) =   0
                l(3) =   1
                l(4) =   1
                l(5) =   2
                l(6) =   2
     Q(r) pseudized with 0 coefficients 


     PseudoPot. # 4 for O  read from file:
     ~/PSEUDO/O.pbe-rrkjus.UPF
     MD5 check sum: Not computed, couldn't open file
     Pseudo is Ultrasoft, Zval =  6.0
     Generated by new atomic code, or converted to UPF format
     Using radial grid of 1269 points,  4 beta functions with: 
                l(1) =   0
                l(2) =   0
                l(3) =   1
                l(4) =   1
     Q(r) pseudized with 0 coefficients 


     PseudoPot. # 5 for H  read from file:
     ~/PSEUDO/H.pbe-rrkjus.UPF
     MD5 check sum: Not computed, couldn't open file
     Pseudo is Ultrasoft, Zval =  1.0
     Generated by new atomic code, or converted to UPF format
     Using radial grid of 1061 points,  2 beta functions with: 
                l(1) =   0
                l(2) =   0
     Q(r) pseudized with 0 coefficients 


     atomic species   valence    mass     pseudopotential
     Ni               10.00    58.69300     Ni( 1.00)
     Mn               15.00    54.93800     Mn( 1.00)
     P                 5.00    30.97300     P ( 1.00)
     O                 6.00    15.99900     O ( 1.00)
     H                 1.00     1.00790     H ( 1.00)

     Starting magnetic structure 
     atomic species   magnetization
     Ni              1.000
     Mn              1.000
     P               1.000
     O               1.000
     H               0.000

     No symmetry found



   Cartesian axes

     site n.     atom                  positions (alat units)
         1        Ni     tau(   1) = (   0.2421002   0.8609138   0.1302181  )
         2        Mn     tau(   2) = (   0.4924481   0.7886602   0.4655392  )
         3        Ni     tau(   3) = (   0.0052341   0.3031820   0.1284544  )
         4        Ni     tau(   4) = (   0.2570603   0.2374878   0.4617901  )
         5        Ni     tau(   5) = (   0.4976584   1.1048203   0.2964410  )
         6        Ni     tau(   6) = (   0.2495781   0.5440308   0.2953805  )
         7        P      tau(   7) = (   0.2083492   0.9982113   0.4588145  )
         8        P      tau(   8) = (   0.4584476   0.6559264   0.1347090  )
         9        P      tau(   9) = (   0.2889394   0.1031966   0.1319347  )
        10        P      tau(  10) = (   0.0400379   0.4338094   0.4586283  )
        11        O      tau(  11) = (   0.1314218   0.9248062   0.3189972  )
        12        O      tau(  12) = (   0.3797244   0.7272031   0.2742874  )
        13        O      tau(  13) = (   0.3662315   0.1762062   0.2720888  )
        14        O      tau(  14) = (   0.1171240   0.3646150   0.3169340  )
        15        O      tau(  15) = (   0.1510364   0.9068326   0.5881934  )
        16        O      tau(  16) = (   0.3981989   0.7453439   0.0053495  )
        17        O      tau(  17) = (   0.3490561   0.1888693   0.0010856  )
        18        O      tau(  18) = (   0.0982395   0.3475583   0.5894443  )
        19        O      tau(  19) = (   0.0992163   0.5918099   0.4542505  )
        20        O      tau(  20) = (   0.3467441   1.0504690   0.1405000  )
        21        O      tau(  21) = (   0.3739183   0.4303319   0.4477971  )
        22        O      tau(  22) = (   0.1230967   0.1088895   0.1422960  )
        23        O      tau(  23) = (   0.1242901   0.6635968   0.1442928  )
        24        O      tau(  24) = (   0.4011802   0.4971632   0.1376281  )
        25        O      tau(  25) = (   0.1484006   0.0497464   0.4550965  )
        26        O      tau(  26) = (   0.3736100   0.9942556   0.4492158  )
        27        Ni     tau(  27) = (   0.2413539   0.8509941   0.7820408  )
        28        Mn     tau(  28) = (   0.4917018   0.7787406   1.1173619  )
        29        Ni     tau(  29) = (   0.0044877   0.2932623   0.7802771  )
        30        Ni     tau(  30) = (   0.2563139   0.2275682   1.1136128  )
        31        Ni     tau(  31) = (   0.4969120   1.0949007   0.9482637  )
        32        Ni     tau(  32) = (   0.2488318   0.5341111   0.9472032  )
        33        P      tau(  33) = (   0.2076029   0.9882917   1.1106372  )
        34        P      tau(  34) = (   0.4577012   0.6460068   0.7865316  )
        35        P      tau(  35) = (   0.2881931   0.0932770   0.7837574  )
        36        P      tau(  36) = (   0.0392916   0.4238898   1.1104509  )
        37        O      tau(  37) = (   0.1306755   0.9148866   0.9708199  )
        38        O      tau(  38) = (   0.3789780   0.7172835   0.9261101  )
        39        O      tau(  39) = (   0.3654852   0.1662865   0.9239115  )
        40        O      tau(  40) = (   0.1163776   0.3546954   0.9687567  )
        41        O      tau(  41) = (   0.1502901   0.8969129   1.2400160  )
        42        O      tau(  42) = (   0.3974525   0.7354243   0.6571722  )
        43        O      tau(  43) = (   0.3483097   0.1789497   0.6529083  )
        44        O      tau(  44) = (   0.0974932   0.3376387   1.2412670  )
        45        O      tau(  45) = (   0.0984699   0.5818903   1.1060732  )
        46        O      tau(  46) = (   0.3459978   1.0405493   0.7923226  )
        47        O      tau(  47) = (   0.3731719   0.4204123   1.0996198  )
        48        O      tau(  48) = (   0.1223503   0.0989699   0.7941187  )
        49        O      tau(  49) = (   0.1235438   0.6536772   0.7961155  )
        50        O      tau(  50) = (   0.4004339   0.4872435   0.7894508  )
        51        O      tau(  51) = (   0.1476543   0.0398268   1.1069192  )
        52        O      tau(  52) = (   0.3728637   0.9843360   1.1010385  )
        53        Ni     tau(  53) = (   0.2405000   0.8314791   1.4310848  )
        54        Mn     tau(  54) = (   0.4953493   0.7643247   1.7724492  )
        55        Ni     tau(  55) = (   0.0038518   0.2756365   1.4285360  )
        56        Ni     tau(  56) = (   0.2471345   0.2153113   1.7400474  )
        57        Ni     tau(  57) = (   0.4995752   1.0720933   1.5947286  )
        58        Ni     tau(  58) = (   0.2421013   0.5219868   1.5980514  )
        59        P      tau(  59) = (   0.2104375   0.9681194   1.7574697  )
        60        P      tau(  60) = (   0.4534410   0.6275485   1.4348057  )
        61        P      tau(  61) = (   0.2894259   0.0743283   1.4290817  )
        62        P      tau(  62) = (   0.0298192   0.4013010   1.7598256  )
        63        O      tau(  63) = (   0.1358441   0.9005122   1.6129847  )
        64        O      tau(  64) = (   0.3771008   0.7024676   1.5717788  )
        65        O      tau(  65) = (   0.3674645   0.1471109   1.5680584  )
        66        O      tau(  66) = (   0.1092283   0.3457090   1.6100373  )
        67        O      tau(  67) = (   0.1496755   0.8741583   1.8808047  )
        68        O      tau(  68) = (   0.3923953   0.7169116   1.3059963  )
        69        O      tau(  69) = (   0.3499475   0.1644431   1.3009773  )
        70        O      tau(  70) = (   0.0894679   0.3000020   1.8751501  )
        71        O      tau(  71) = (   0.0835747   0.5628016   1.7646462  )
        72        O      tau(  72) = (   0.3492253   1.0223474   1.4345599  )
        73        O      tau(  73) = (   0.3642103   0.4027294   1.7423561  )
        74        O      tau(  74) = (   0.1229734   0.0811149   1.4416195  )
        75        O      tau(  75) = (   0.1204474   0.6369096   1.4465931  )
        76        O      tau(  76) = (   0.3946534   0.4694481   1.4371785  )
        77        O      tau(  77) = (   0.1552554   0.0214678   1.7549498  )
        78        O      tau(  78) = (   0.3781421   0.9602342   1.7485231  )
        79        Ni     tau(  79) = (   0.7421002   0.8609138   0.1302181  )
        80        Mn     tau(  80) = (   0.9924481   0.7886602   0.4655392  )
        81        Ni     tau(  81) = (   0.5052341   0.3031820   0.1284544  )
        82        Ni     tau(  82) = (   0.7570603   0.2374878   0.4617901  )
        83        Ni     tau(  83) = (   0.9976584   1.1048203   0.2964410  )
        84        Ni     tau(  84) = (   0.7495781   0.5440308   0.2953805  )
        85        P      tau(  85) = (   0.7083492   0.9982113   0.4588145  )
        86        P      tau(  86) = (   0.9584476   0.6559264   0.1347090  )
        87        P      tau(  87) = (   0.7889394   0.1031966   0.1319347  )
        88        P      tau(  88) = (   0.5400379   0.4338094   0.4586283  )
        89        O      tau(  89) = (   0.6314218   0.9248062   0.3189972  )
        90        O      tau(  90) = (   0.8797244   0.7272031   0.2742874  )
        91        O      tau(  91) = (   0.8662315   0.1762062   0.2720888  )
        92        O      tau(  92) = (   0.6171240   0.3646150   0.3169340  )
        93        O      tau(  93) = (   0.6510364   0.9068326   0.5881934  )
        94        O      tau(  94) = (   0.8981989   0.7453439   0.0053495  )
        95        O      tau(  95) = (   0.8490561   0.1888693   0.0010856  )
        96        O      tau(  96) = (   0.5982395   0.3475583   0.5894443  )
        97        O      tau(  97) = (   0.5992163   0.5918099   0.4542505  )
        98        O      tau(  98) = (   0.8467441   1.0504690   0.1405000  )
        99        O      tau(  99) = (   0.8739183   0.4303319   0.4477971  )
       100        O      tau( 100) = (   0.6230967   0.1088895   0.1422960  )
       101        O      tau( 101) = (   0.6242901   0.6635968   0.1442928  )
       102        O      tau( 102) = (   0.9011802   0.4971632   0.1376281  )
       103        O      tau( 103) = (   0.6484006   0.0497464   0.4550965  )
       104        O      tau( 104) = (   0.8736100   0.9942556   0.4492158  )
       105        Ni     tau( 105) = (   0.7413539   0.8509941   0.7820408  )
       106        Mn     tau( 106) = (   0.9917018   0.7787406   1.1173619  )
       107        Ni     tau( 107) = (   0.5044877   0.2932623   0.7802771  )
       108        Ni     tau( 108) = (   0.7563139   0.2275682   1.1136128  )
       109        Ni     tau( 109) = (   0.9969120   1.0949007   0.9482637  )
       110        Ni     tau( 110) = (   0.7488318   0.5341111   0.9472032  )
       111        P      tau( 111) = (   0.7076029   0.9882917   1.1106372  )
       112        P      tau( 112) = (   0.9577012   0.6460068   0.7865316  )
       113        P      tau( 113) = (   0.7881931   0.0932770   0.7837574  )
       114        P      tau( 114) = (   0.5392916   0.4238898   1.1104509  )
       115        O      tau( 115) = (   0.6306755   0.9148866   0.9708199  )
       116        O      tau( 116) = (   0.8789780   0.7172835   0.9261101  )
       117        O      tau( 117) = (   0.8654852   0.1662865   0.9239115  )
       118        O      tau( 118) = (   0.6163776   0.3546954   0.9687567  )
       119        O      tau( 119) = (   0.6502901   0.8969129   1.2400160  )
       120        O      tau( 120) = (   0.8974525   0.7354243   0.6571722  )
       121        O      tau( 121) = (   0.8483097   0.1789497   0.6529083  )
       122        O      tau( 122) = (   0.5974932   0.3376387   1.2412670  )
       123        O      tau( 123) = (   0.5984699   0.5818903   1.1060732  )
       124        O      tau( 124) = (   0.8459978   1.0405493   0.7923226  )
       125        O      tau( 125) = (   0.8731719   0.4204123   1.0996198  )
       126        O      tau( 126) = (   0.6223503   0.0989699   0.7941187  )
       127        O      tau( 127) = (   0.6235438   0.6536772   0.7961155  )
       128        O      tau( 128) = (   0.9004339   0.4872435   0.7894508  )
       129        O      tau( 129) = (   0.6476543   0.0398268   1.1069192  )
       130        O      tau( 130) = (   0.8728637   0.9843360   1.1010385  )
       131        Ni     tau( 131) = (   0.7369169   0.8303788   1.4329327  )
       132        Mn     tau( 132) = (   0.9924005   0.7622218   1.7630345  )
       133        Ni     tau( 133) = (   0.5034179   0.2756585   1.4286710  )
       134        Ni     tau( 134) = (   0.7445338   0.2135857   1.7404923  )
       135        Ni     tau( 135) = (   0.9992947   1.0745006   1.5940287  )
       136        Ni     tau( 136) = (   0.7415282   0.5178646   1.5926001  )
       137        P      tau( 137) = (   0.7110408   0.9653555   1.7633289  )
       138        P      tau( 138) = (   0.9541428   0.6272498   1.4343540  )
       139        P      tau( 139) = (   0.7882006   0.0737553   1.4295411  )
       140        P      tau( 140) = (   0.5313065   0.4052692   1.7579671  )
       141        O      tau( 141) = (   0.6299655   0.8889021   1.6239329  )
       142        O      tau( 142) = (   0.8763186   0.7000804   1.5722760  )
       143        O      tau( 143) = (   0.8661823   0.1476707   1.5678971  )
       144        O      tau( 144) = (   0.6092775   0.3424902   1.6091934  )
       145        O      tau( 145) = (   0.6577452   0.8727635   1.8894301  )
       146        O      tau( 146) = (   0.8931487   0.7181693   1.3070025  )
       147        O      tau( 147) = (   0.8501811   0.1623852   1.3009768  )
       148        O      tau( 148) = (   0.5909310   0.3060790   1.8752837  )
       149        O      tau( 149) = (   0.5915698   0.5653327   1.7515015  )
       150        O      tau( 150) = (   0.8456292   1.0209939   1.4372118  )
       151        O      tau( 151) = (   0.8624603   0.3999669   1.7434469  )
       152        O      tau( 152) = (   0.6217882   0.0804133   1.4417608  )
       153        O      tau( 153) = (   0.6203335   0.6358635   1.4429875  )
       154        O      tau( 154) = (   0.8954317   0.4691053   1.4351315  )
       155        O      tau( 155) = (   0.6536438   0.0182650   1.7541421  )
       156        O      tau( 156) = (   0.8777501   0.9608304   1.7456676  )
       157        O      tau( 157) = (   0.3827920   0.6908925   1.9078742  )
       158        H      tau( 158) = (   0.2940038   0.7492246   1.9272249  )

     -------------------------------------------------
     Parameters for Dispersion (Grimme-D2) Correction:
     -------------------------------------------------
       atom      VdW radius       C_6     

        Ni         2.952        374.666
        Mn         2.952        374.666
        P          3.222        271.980
        O          2.536         24.284
        H          1.892          4.857

     number of k points=     1  Gaussian smearing, width (Ry)=  0.0100
                       cart. coord. in units 2pi/alat
        k(    1) = (   0.0000000   0.0000000   0.0000000), wk =   1.0000000

     Dense  grid:  1938023 G-vectors     FFT dimensions: ( 125, 144, 450)

     Smooth grid:   490328 G-vectors     FFT dimensions: (  80,  90, 288)

     Estimated max dynamical RAM per process >     326.29 MB

     Estimated total dynamical RAM >      20.39 GB

     Check: negative core charge=   -0.000001
     Generating pointlists ...
     new r_m :   0.0887 (alat units)  1.5440 (a.u.) for type    1
     new r_m :   0.0787 (alat units)  1.3699 (a.u.) for type    2
     new r_m :   0.0679 (alat units)  1.1824 (a.u.) for type    3
     new r_m :   0.0445 (alat units)  0.7754 (a.u.) for type    4
     new r_m :   0.0445 (alat units)  0.7754 (a.u.) for type    5

     Initial potential from superposition of free atoms

     starting charge    1092.8893, renormalised to    1093.0000

     negative rho (up, down):  1.402E-03 4.519E-04
 
     Adding external electric field

     Computed dipole along edir(3) : 
        Dipole                1.6270 Ry au,          4.1353 Debye
        Dipole field          0.0010 Ry au, 
 
        Potential amp.       -0.1098 Ry
        Total length         55.1515 bohr
 
 
     Adding external electric field

     Computed dipole along edir(3) : 
        Dipole                1.6270 Ry au,          4.1353 Debye
        Dipole field          0.0010 Ry au, 
 
        Potential amp.       -0.1098 Ry
        Total length         55.1515 bohr
 
     Starting wfcs are  815 randomized atomic wfcs

     total cpu time spent up to now is       13.2 secs

     Self-consistent Calculation

     iteration #  1     ecut=    50.00 Ry     beta= 0.10
     Davidson diagonalization with overlap
     ethr =  1.00E-02,  avg # of iterations =  6.0

     negative rho (up, down):  3.981E-01 1.291E-06
 
     Adding external electric field

     Computed dipole along edir(3) : 
        Dipole               -3.0669 Ry au,         -7.7952 Debye
        Dipole field         -0.0019 Ry au, 
 
        Potential amp.        0.2071 Ry
        Total length         55.1515 bohr
 
 
     Adding external electric field

     Computed dipole along edir(3) : 
        Dipole               -3.0669 Ry au,         -7.7952 Debye
        Dipole field         -0.0019 Ry au, 
 
        Potential amp.        0.2071 Ry
        Total length         55.1515 bohr
 

     total cpu time spent up to now is       48.0 secs

     total energy              =   -7520.29108207 Ry
     estimated scf accuracy    <     739.20235102 Ry

     total magnetization       =   219.00 Bohr mag/cell
     absolute magnetization    =   307.70 Bohr mag/cell

     iteration #  2     ecut=    50.00 Ry     beta= 0.10
     Davidson diagonalization with overlap
     ethr =  1.00E-02,  avg # of iterations =  2.0

     negative rho (up, down):  3.635E-01 7.538E-07
 
     Adding external electric field

     Computed dipole along edir(3) : 
        Dipole               -2.2915 Ry au,         -5.8245 Debye
        Dipole field         -0.0014 Ry au, 
 
        Potential amp.        0.1547 Ry
        Total length         55.1515 bohr
 
 
     Adding external electric field

     Computed dipole along edir(3) : 
        Dipole               -2.2915 Ry au,         -5.8245 Debye
        Dipole field         -0.0014 Ry au, 
 
        Potential amp.        0.1547 Ry
        Total length         55.1515 bohr
 

     total cpu time spent up to now is       68.5 secs

     total energy              =   -7603.66922271 Ry
     estimated scf accuracy    <     152.76241895 Ry

     total magnetization       =   152.32 Bohr mag/cell
     absolute magnetization    =   202.79 Bohr mag/cell

     iteration #  3     ecut=    50.00 Ry     beta= 0.10
     Davidson diagonalization with overlap
     ethr =  1.00E-02,  avg # of iterations =  1.5

     negative rho (up, down):  3.158E-01 6.837E-07
 
     Adding external electric field

     Computed dipole along edir(3) : 
        Dipole               -1.9088 Ry au,         -4.8516 Debye
        Dipole field         -0.0012 Ry au, 
 
        Potential amp.        0.1289 Ry
        Total length         55.1515 bohr
 
 
     Adding external electric field

     Computed dipole along edir(3) : 
        Dipole               -1.9088 Ry au,         -4.8516 Debye
        Dipole field         -0.0012 Ry au, 
 
        Potential amp.        0.1289 Ry
        Total length         55.1515 bohr
 

     total cpu time spent up to now is       84.5 secs

     total energy              =   -7636.79664709 Ry
     estimated scf accuracy    <      98.95315842 Ry

     total magnetization       =   130.56 Bohr mag/cell
     absolute magnetization    =   182.14 Bohr mag/cell

     iteration #  4     ecut=    50.00 Ry     beta= 0.10
     Davidson diagonalization with overlap
     ethr =  9.05E-03,  avg # of iterations =  1.5

     negative rho (up, down):  2.379E-01 4.961E-07
 
     Adding external electric field

     Computed dipole along edir(3) : 
        Dipole               -1.8743 Ry au,         -4.7640 Debye
        Dipole field         -0.0011 Ry au, 
 
        Potential amp.        0.1265 Ry
        Total length         55.1515 bohr
 
 
     Adding external electric field

     Computed dipole along edir(3) : 
        Dipole               -1.8743 Ry au,         -4.7640 Debye
        Dipole field         -0.0011 Ry au, 
 
        Potential amp.        0.1265 Ry
        Total length         55.1515 bohr
 

     total cpu time spent up to now is      100.6 secs

     total energy              =   -7670.23673234 Ry
     estimated scf accuracy    <      79.26023448 Ry

     total magnetization       =   113.65 Bohr mag/cell
     absolute magnetization    =   167.24 Bohr mag/cell

     iteration #  5     ecut=    50.00 Ry     beta= 0.10
     Davidson diagonalization with overlap
     ethr =  7.25E-03,  avg # of iterations =  1.0

     negative rho (up, down):  2.432E-03 1.961E-06
 
     Adding external electric field

     Computed dipole along edir(3) : 
        Dipole               -1.2560 Ry au,         -3.1924 Debye
        Dipole field         -0.0008 Ry au, 
 
        Potential amp.        0.0848 Ry
        Total length         55.1515 bohr
 
 
     Adding external electric field

     Computed dipole along edir(3) : 
        Dipole               -1.2560 Ry au,         -3.1924 Debye
        Dipole field         -0.0008 Ry au, 
 
        Potential amp.        0.0848 Ry
        Total length         55.1515 bohr
 

     total cpu time spent up to now is      115.0 secs

     total energy              =   -7730.74987233 Ry
     estimated scf accuracy    <      60.70655708 Ry

     total magnetization       =    97.00 Bohr mag/cell
     absolute magnetization    =   149.82 Bohr mag/cell

     iteration #  6     ecut=    50.00 Ry     beta= 0.10
     Davidson diagonalization with overlap
     ethr =  5.55E-03,  avg # of iterations =  2.0

     negative rho (up, down):  1.260E-04 9.400E-05
 
     Adding external electric field

     Computed dipole along edir(3) : 
        Dipole               -0.8883 Ry au,         -2.2578 Debye
        Dipole field         -0.0005 Ry au, 
 
        Potential amp.        0.0600 Ry
        Total length         55.1515 bohr
 
 
     Adding external electric field

     Computed dipole along edir(3) : 
        Dipole               -0.8883 Ry au,         -2.2578 Debye
        Dipole field         -0.0005 Ry au, 
 
        Potential amp.        0.0600 Ry
        Total length         55.1515 bohr
 

     total cpu time spent up to now is      131.6 secs

     total energy              =   -7736.79212701 Ry
     estimated scf accuracy    <      14.37517718 Ry

     total magnetization       =    80.55 Bohr mag/cell
     absolute magnetization    =   108.22 Bohr mag/cell

     iteration #  7     ecut=    50.00 Ry     beta= 0.10
     Davidson diagonalization with overlap
     ethr =  1.32E-03,  avg # of iterations =  6.0

     negative rho (up, down):  9.304E-05 9.632E-05
 
     Adding external electric field

     Computed dipole along edir(3) : 
        Dipole               -0.9696 Ry au,         -2.4644 Debye
        Dipole field         -0.0006 Ry au, 
 
        Potential amp.        0.0655 Ry
        Total length         55.1515 bohr
 
 
     Adding external electric field

     Computed dipole along edir(3) : 
        Dipole               -0.9696 Ry au,         -2.4644 Debye
        Dipole field         -0.0006 Ry au, 
 
        Potential amp.        0.0655 Ry
        Total length         55.1515 bohr
 

     total cpu time spent up to now is      155.1 secs

     total energy              =   -7738.06876645 Ry
     estimated scf accuracy    <      16.97551647 Ry

     total magnetization       =    71.00 Bohr mag/cell
     absolute magnetization    =    90.72 Bohr mag/cell

     iteration #  8     ecut=    50.00 Ry     beta= 0.10
     Davidson diagonalization with overlap
     ethr =  1.32E-03,  avg # of iterations =  1.0

     negative rho (up, down):  1.353E-04 1.873E-04
 
     Adding external electric field

     Computed dipole along edir(3) : 
        Dipole               -0.9417 Ry au,         -2.3935 Debye
        Dipole field         -0.0006 Ry au, 
 
        Potential amp.        0.0636 Ry
        Total length         55.1515 bohr
 
 
     Adding external electric field

     Computed dipole along edir(3) : 
        Dipole               -0.9417 Ry au,         -2.3935 Debye
        Dipole field         -0.0006 Ry au, 
 
        Potential amp.        0.0636 Ry
        Total length         55.1515 bohr
 

     total cpu time spent up to now is      169.7 secs

     total energy              =   -7737.64851658 Ry
     estimated scf accuracy    <      24.72151018 Ry

     total magnetization       =    68.89 Bohr mag/cell
     absolute magnetization    =    88.08 Bohr mag/cell

     iteration #  9     ecut=    50.00 Ry     beta= 0.10
     Davidson diagonalization with overlap
     ethr =  1.32E-03,  avg # of iterations =  1.5

     negative rho (up, down):  2.263E-04 3.546E-04
 
     Adding external electric field

     Computed dipole along edir(3) : 
        Dipole               -0.7723 Ry au,         -1.9630 Debye
        Dipole field         -0.0005 Ry au, 
 
        Potential amp.        0.0521 Ry
        Total length         55.1515 bohr
 
 
     Adding external electric field

     Computed dipole along edir(3) : 
        Dipole               -0.7723 Ry au,         -1.9630 Debye
        Dipole field         -0.0005 Ry au, 
 
        Potential amp.        0.0521 Ry
        Total length         55.1515 bohr
 

     total cpu time spent up to now is      185.6 secs

     total energy              =   -7737.32880904 Ry
     estimated scf accuracy    <       9.45435745 Ry

     total magnetization       =    75.63 Bohr mag/cell
     absolute magnetization    =    91.63 Bohr mag/cell

     iteration # 10     ecut=    50.00 Ry     beta= 0.10
     Davidson diagonalization with overlap
     ethr =  8.65E-04,  avg # of iterations =  2.0

     negative rho (up, down):  1.269E-04 2.703E-04
 
     Adding external electric field

     Computed dipole along edir(3) : 
        Dipole               -0.7564 Ry au,         -1.9226 Debye
        Dipole field         -0.0005 Ry au, 
 
        Potential amp.        0.0511 Ry
        Total length         55.1515 bohr
 
 
     Adding external electric field

     Computed dipole along edir(3) : 
        Dipole               -0.7564 Ry au,         -1.9226 Debye
        Dipole field         -0.0005 Ry au, 
 
        Potential amp.        0.0511 Ry
        Total length         55.1515 bohr
 

     total cpu time spent up to now is      201.5 secs

     total energy              =   -7737.99052771 Ry
     estimated scf accuracy    <       2.49152640 Ry

     total magnetization       =    88.79 Bohr mag/cell
     absolute magnetization    =    99.97 Bohr mag/cell

     iteration # 11     ecut=    50.00 Ry     beta= 0.10
     Davidson diagonalization with overlap
     ethr =  2.28E-04,  avg # of iterations =  2.0

     negative rho (up, down):  7.007E-05 2.201E-04
 
     Adding external electric field

     Computed dipole along edir(3) : 
        Dipole               -0.6718 Ry au,         -1.7077 Debye
        Dipole field         -0.0004 Ry au, 
 
        Potential amp.        0.0454 Ry
        Total length         55.1515 bohr
 
 
     Adding external electric field

     Computed dipole along edir(3) : 
        Dipole               -0.6718 Ry au,         -1.7077 Debye
        Dipole field         -0.0004 Ry au, 
 
        Potential amp.        0.0454 Ry
        Total length         55.1515 bohr
 

     total cpu time spent up to now is      217.0 secs

     total energy              =   -7738.00982400 Ry
     estimated scf accuracy    <       1.55746017 Ry

     total magnetization       =    88.43 Bohr mag/cell
     absolute magnetization    =    99.01 Bohr mag/cell

     iteration # 12     ecut=    50.00 Ry     beta= 0.10
     Davidson diagonalization with overlap
     ethr =  1.42E-04,  avg # of iterations = 12.0

     negative rho (up, down):  7.979E-06 5.648E-05
 
     Adding external electric field

     Computed dipole along edir(3) : 
        Dipole               -0.4486 Ry au,         -1.1402 Debye
        Dipole field         -0.0003 Ry au, 
 
        Potential amp.        0.0303 Ry
        Total length         55.1515 bohr
 
 
     Adding external electric field

     Computed dipole along edir(3) : 
        Dipole               -0.4486 Ry au,         -1.1402 Debye
        Dipole field         -0.0003 Ry au, 
 
        Potential amp.        0.0303 Ry
        Total length         55.1515 bohr
 

     total cpu time spent up to now is      245.2 secs

     total energy              =   -7738.03110548 Ry
     estimated scf accuracy    <       1.24649703 Ry

     total magnetization       =    88.50 Bohr mag/cell
     absolute magnetization    =    97.94 Bohr mag/cell

     iteration # 13     ecut=    50.00 Ry     beta= 0.10
     Davidson diagonalization with overlap
     ethr =  1.14E-04,  avg # of iterations =  2.0

     negative rho (up, down):  3.005E-06 3.527E-05
 
     Adding external electric field

     Computed dipole along edir(3) : 
        Dipole               -0.4366 Ry au,         -1.1097 Debye
        Dipole field         -0.0003 Ry au, 
 
        Potential amp.        0.0295 Ry
        Total length         55.1515 bohr
 
 
     Adding external electric field

     Computed dipole along edir(3) : 
        Dipole               -0.4366 Ry au,         -1.1097 Debye
        Dipole field         -0.0003 Ry au, 
 
        Potential amp.        0.0295 Ry
        Total length         55.1515 bohr
 

     total cpu time spent up to now is      260.3 secs

     total energy              =   -7738.10996189 Ry
     estimated scf accuracy    <       1.92784584 Ry

     total magnetization       =    85.11 Bohr mag/cell
     absolute magnetization    =    93.43 Bohr mag/cell

     iteration # 14     ecut=    50.00 Ry     beta= 0.10
     Davidson diagonalization with overlap
     ethr =  1.14E-04,  avg # of iterations =  1.5

     negative rho (up, down):  2.536E-06 3.383E-05
 
     Adding external electric field

     Computed dipole along edir(3) : 
        Dipole               -0.4514 Ry au,         -1.1474 Debye
        Dipole field         -0.0003 Ry au, 
 
        Potential amp.        0.0305 Ry
        Total length         55.1515 bohr
 
 
     Adding external electric field

     Computed dipole along edir(3) : 
        Dipole               -0.4514 Ry au,         -1.1474 Debye
        Dipole field         -0.0003 Ry au, 
 
        Potential amp.        0.0305 Ry
        Total length         55.1515 bohr
 

     total cpu time spent up to now is      275.1 secs

     total energy              =   -7738.10999150 Ry
     estimated scf accuracy    <       3.18454759 Ry

     total magnetization       =    82.92 Bohr mag/cell
     absolute magnetization    =    90.95 Bohr mag/cell

     iteration # 15     ecut=    50.00 Ry     beta= 0.10
     Davidson diagonalization with overlap
     ethr =  1.14E-04,  avg # of iterations =  1.5

     negative rho (up, down):  5.185E-06 7.686E-05
 
     Adding external electric field

     Computed dipole along edir(3) : 
        Dipole               -0.7160 Ry au,         -1.8200 Debye
        Dipole field         -0.0004 Ry au, 
 
        Potential amp.        0.0483 Ry
        Total length         55.1515 bohr
 
 
     Adding external electric field

     Computed dipole along edir(3) : 
        Dipole               -0.7160 Ry au,         -1.8200 Debye
        Dipole field         -0.0004 Ry au, 
 
        Potential amp.        0.0483 Ry
        Total length         55.1515 bohr
 

     total cpu time spent up to now is      290.0 secs

     total energy              =   -7738.03745672 Ry
     estimated scf accuracy    <       2.26105388 Ry

     total magnetization       =    83.93 Bohr mag/cell
     absolute magnetization    =    91.68 Bohr mag/cell

     iteration # 16     ecut=    50.00 Ry     beta= 0.10
     Davidson diagonalization with overlap
     ethr =  1.14E-04,  avg # of iterations =  2.0

     negative rho (up, down):  8.586E-05 4.621E-04
 
     Adding external electric field

     Computed dipole along edir(3) : 
        Dipole               -0.8775 Ry au,         -2.2305 Debye
        Dipole field         -0.0005 Ry au, 
 
        Potential amp.        0.0592 Ry
        Total length         55.1515 bohr
 
 
     Adding external electric field

     Computed dipole along edir(3) : 
        Dipole               -0.8775 Ry au,         -2.2305 Debye
        Dipole field         -0.0005 Ry au, 
 
        Potential amp.        0.0592 Ry
        Total length         55.1515 bohr
 

     total cpu time spent up to now is      305.5 secs

     total energy              =   -7738.37967706 Ry
     estimated scf accuracy    <       0.97995263 Ry

     total magnetization       =    88.14 Bohr mag/cell
     absolute magnetization    =    94.13 Bohr mag/cell

     iteration # 17     ecut=    50.00 Ry     beta= 0.10
     Davidson diagonalization with overlap
     ethr =  8.97E-05,  avg # of iterations =  2.0

     negative rho (up, down):  4.012E-05 2.755E-04
 
     Adding external electric field

     Computed dipole along edir(3) : 
        Dipole               -0.8257 Ry au,         -2.0987 Debye
        Dipole field         -0.0005 Ry au, 
 
        Potential amp.        0.0557 Ry
        Total length         55.1515 bohr
 
 
     Adding external electric field

     Computed dipole along edir(3) : 
        Dipole               -0.8257 Ry au,         -2.0987 Debye
        Dipole field         -0.0005 Ry au, 
 
        Potential amp.        0.0557 Ry
        Total length         55.1515 bohr
 

     total cpu time spent up to now is      320.6 secs

     total energy              =   -7738.39356337 Ry
     estimated scf accuracy    <       5.35957408 Ry

     total magnetization       =    86.82 Bohr mag/cell
     absolute magnetization    =    90.41 Bohr mag/cell

     iteration # 18     ecut=    50.00 Ry     beta= 0.10
     Davidson diagonalization with overlap
     ethr =  8.97E-05,  avg # of iterations =  1.5

     negative rho (up, down):  5.259E-05 1.438E-04
 
     Adding external electric field

     Computed dipole along edir(3) : 
        Dipole               -0.7761 Ry au,         -1.9727 Debye
        Dipole field         -0.0005 Ry au, 
 
        Potential amp.        0.0524 Ry
        Total length         55.1515 bohr
 
 
     Adding external electric field

     Computed dipole along edir(3) : 
        Dipole               -0.7761 Ry au,         -1.9727 Debye
        Dipole field         -0.0005 Ry au, 
 
        Potential amp.        0.0524 Ry
        Total length         55.1515 bohr
 

     total cpu time spent up to now is      335.0 secs

     total energy              =   -7738.41395274 Ry
     estimated scf accuracy    <       2.49781303 Ry

     total magnetization       =    87.24 Bohr mag/cell
     absolute magnetization    =    90.82 Bohr mag/cell

     iteration # 19     ecut=    50.00 Ry     beta= 0.10
     Davidson diagonalization with overlap
     ethr =  8.97E-05,  avg # of iterations =  1.0

     negative rho (up, down):  1.453E-05 5.951E-05
 
     Adding external electric field

     Computed dipole along edir(3) : 
        Dipole               -0.6874 Ry au,         -1.7473 Debye
        Dipole field         -0.0004 Ry au, 
 
        Potential amp.        0.0464 Ry
        Total length         55.1515 bohr
 
 
     Adding external electric field

     Computed dipole along edir(3) : 
        Dipole               -0.6874 Ry au,         -1.7473 Debye
        Dipole field         -0.0004 Ry au, 
 
        Potential amp.        0.0464 Ry
        Total length         55.1515 bohr
 

     total cpu time spent up to now is      348.5 secs

     total energy              =   -7738.38126250 Ry
     estimated scf accuracy    <       1.19124922 Ry

     total magnetization       =    88.11 Bohr mag/cell
     absolute magnetization    =    91.17 Bohr mag/cell

     iteration # 20     ecut=    50.00 Ry     beta= 0.10
     Davidson diagonalization with overlap
     ethr =  8.97E-05,  avg # of iterations =  1.5

     negative rho (up, down):  1.419E-08 5.750E-09
 
     Adding external electric field

     Computed dipole along edir(3) : 
        Dipole               -0.4836 Ry au,         -1.2291 Debye
        Dipole field         -0.0003 Ry au, 
 
        Potential amp.        0.0327 Ry
        Total length         55.1515 bohr
 
 
     Adding external electric field

     Computed dipole along edir(3) : 
        Dipole               -0.4836 Ry au,         -1.2291 Debye
        Dipole field         -0.0003 Ry au, 
 
        Potential amp.        0.0327 Ry
        Total length         55.1515 bohr
 

     total cpu time spent up to now is      362.8 secs

     total energy              =   -7738.33136346 Ry
     estimated scf accuracy    <       0.65474030 Ry

     total magnetization       =    88.24 Bohr mag/cell
     absolute magnetization    =    91.00 Bohr mag/cell

     iteration # 21     ecut=    50.00 Ry     beta= 0.10
     Davidson diagonalization with overlap
     ethr =  5.99E-05,  avg # of iterations =  2.0

     negative rho (up, down):  1.080E-08 4.986E-09
 
     Adding external electric field

     Computed dipole along edir(3) : 
        Dipole               -0.4764 Ry au,         -1.2109 Debye
        Dipole field         -0.0003 Ry au, 
 
        Potential amp.        0.0322 Ry
        Total length         55.1515 bohr
 
 
     Adding external electric field

     Computed dipole along edir(3) : 
        Dipole               -0.4764 Ry au,         -1.2109 Debye
        Dipole field         -0.0003 Ry au, 
 
        Potential amp.        0.0322 Ry
        Total length         55.1515 bohr
 

     total cpu time spent up to now is      378.2 secs

     total energy              =   -7738.35684223 Ry
     estimated scf accuracy    <       0.24284359 Ry

     total magnetization       =    87.44 Bohr mag/cell
     absolute magnetization    =    89.83 Bohr mag/cell

     iteration # 22     ecut=    50.00 Ry     beta= 0.10
     Davidson diagonalization with overlap
     ethr =  2.22E-05,  avg # of iterations = 17.0
 
     Adding external electric field

     Computed dipole along edir(3) : 
        Dipole               -0.4015 Ry au,         -1.0204 Debye
        Dipole field         -0.0002 Ry au, 
 
        Potential amp.        0.0271 Ry
        Total length         55.1515 bohr
 
 
     Adding external electric field

     Computed dipole along edir(3) : 
        Dipole               -0.4015 Ry au,         -1.0204 Debye
        Dipole field         -0.0002 Ry au, 
 
        Potential amp.        0.0271 Ry
        Total length         55.1515 bohr
 

     total cpu time spent up to now is      410.1 secs

     total energy              =   -7738.35764611 Ry
     estimated scf accuracy    <       0.21059229 Ry

     total magnetization       =    87.58 Bohr mag/cell
     absolute magnetization    =    89.89 Bohr mag/cell

     iteration # 23     ecut=    50.00 Ry     beta= 0.10
     Davidson diagonalization with overlap
     ethr =  1.93E-05,  avg # of iterations =  2.0
 
     Adding external electric field

     Computed dipole along edir(3) : 
        Dipole               -0.1741 Ry au,         -0.4425 Debye
        Dipole field         -0.0001 Ry au, 
 
        Potential amp.        0.0118 Ry
        Total length         55.1515 bohr
 
 
     Adding external electric field

     Computed dipole along edir(3) : 
        Dipole               -0.1741 Ry au,         -0.4425 Debye
        Dipole field         -0.0001 Ry au, 
 
        Potential amp.        0.0118 Ry
        Total length         55.1515 bohr
 

     total cpu time spent up to now is      426.0 secs

     total energy              =   -7738.34139924 Ry
     estimated scf accuracy    <       0.14470121 Ry

     total magnetization       =    87.87 Bohr mag/cell
     absolute magnetization    =    89.80 Bohr mag/cell

     iteration # 24     ecut=    50.00 Ry     beta= 0.10
     Davidson diagonalization with overlap
     c_bands:  3 eigenvalues not converged
     ethr =  1.32E-05,  avg # of iterations = 11.0
 
     Adding external electric field

     Computed dipole along edir(3) : 
        Dipole               -0.1849 Ry au,         -0.4700 Debye
        Dipole field         -0.0001 Ry au, 
 
        Potential amp.        0.0125 Ry
        Total length         55.1515 bohr
 
 
     Adding external electric field

     Computed dipole along edir(3) : 
        Dipole               -0.1849 Ry au,         -0.4700 Debye
        Dipole field         -0.0001 Ry au, 
 
        Potential amp.        0.0125 Ry
        Total length         55.1515 bohr
 

     total cpu time spent up to now is      451.9 secs

     total energy              =   -7738.35970477 Ry
     estimated scf accuracy    <       0.88279843 Ry

     total magnetization       =    84.85 Bohr mag/cell
     absolute magnetization    =    86.63 Bohr mag/cell

     iteration # 25     ecut=    50.00 Ry     beta= 0.10
     Davidson diagonalization with overlap
     ethr =  1.32E-05,  avg # of iterations =  1.5
 
     Adding external electric field

     Computed dipole along edir(3) : 
        Dipole               -0.1771 Ry au,         -0.4502 Debye
        Dipole field         -0.0001 Ry au, 
 
        Potential amp.        0.0120 Ry
        Total length         55.1515 bohr
 
 
     Adding external electric field

     Computed dipole along edir(3) : 
        Dipole               -0.1771 Ry au,         -0.4502 Debye
        Dipole field         -0.0001 Ry au, 
 
        Potential amp.        0.0120 Ry
        Total length         55.1515 bohr
 

     total cpu time spent up to now is      465.8 secs

     total energy              =   -7738.35964122 Ry
     estimated scf accuracy    <       0.63127438 Ry

     total magnetization       =    85.32 Bohr mag/cell
     absolute magnetization    =    87.07 Bohr mag/cell

     iteration # 26     ecut=    50.00 Ry     beta= 0.10
     Davidson diagonalization with overlap
     ethr =  1.32E-05,  avg # of iterations =  1.5

     negative rho (up, down):  2.772E-09 1.369E-07
 
     Adding external electric field

     Computed dipole along edir(3) : 
        Dipole               -0.2234 Ry au,         -0.5678 Debye
        Dipole field         -0.0001 Ry au, 
 
        Potential amp.        0.0151 Ry
        Total length         55.1515 bohr
 
 
     Adding external electric field

     Computed dipole along edir(3) : 
        Dipole               -0.2234 Ry au,         -0.5678 Debye
        Dipole field         -0.0001 Ry au, 
 
        Potential amp.        0.0151 Ry
        Total length         55.1515 bohr
 

     total cpu time spent up to now is      480.4 secs

     total energy              =   -7738.34740256 Ry
     estimated scf accuracy    <       0.67438700 Ry

     total magnetization       =    85.20 Bohr mag/cell
     absolute magnetization    =    86.92 Bohr mag/cell

     iteration # 27     ecut=    50.00 Ry     beta= 0.10
     Davidson diagonalization with overlap
     ethr =  1.32E-05,  avg # of iterations =  2.0

     negative rho (up, down):  1.668E-07 6.166E-07
 
     Adding external electric field

     Computed dipole along edir(3) : 
        Dipole               -0.2557 Ry au,         -0.6500 Debye
        Dipole field         -0.0002 Ry au, 
 
        Potential amp.        0.0173 Ry
        Total length         55.1515 bohr
 
 
     Adding external electric field

     Computed dipole along edir(3) : 
        Dipole               -0.2557 Ry au,         -0.6500 Debye
        Dipole field         -0.0002 Ry au, 
 
        Potential amp.        0.0173 Ry
        Total length         55.1515 bohr
 

     total cpu time spent up to now is      496.2 secs

     total energy              =   -7738.35249421 Ry
     estimated scf accuracy    <       0.09943982 Ry

     total magnetization       =    86.63 Bohr mag/cell
     absolute magnetization    =    88.18 Bohr mag/cell

     iteration # 28     ecut=    50.00 Ry     beta= 0.10
     Davidson diagonalization with overlap
     ethr =  9.10E-06,  avg # of iterations =  2.0

     negative rho (up, down):  1.946E-07 2.382E-07
 
     Adding external electric field

     Computed dipole along edir(3) : 
        Dipole               -0.2503 Ry au,         -0.6363 Debye
        Dipole field         -0.0002 Ry au, 
 
        Potential amp.        0.0169 Ry
        Total length         55.1515 bohr
 
 
     Adding external electric field

     Computed dipole along edir(3) : 
        Dipole               -0.2503 Ry au,         -0.6363 Debye
        Dipole field         -0.0002 Ry au, 
 
        Potential amp.        0.0169 Ry
        Total length         55.1515 bohr
 

     total cpu time spent up to now is      511.8 secs

     total energy              =   -7738.35527420 Ry
     estimated scf accuracy    <       0.06013639 Ry

     total magnetization       =    87.76 Bohr mag/cell
     absolute magnetization    =    89.17 Bohr mag/cell

     iteration # 29     ecut=    50.00 Ry     beta= 0.10
     Davidson diagonalization with overlap
     ethr =  5.50E-06,  avg # of iterations =  2.0

     negative rho (up, down):  5.693E-07 2.626E-07
 
     Adding external electric field

     Computed dipole along edir(3) : 
        Dipole               -0.2499 Ry au,         -0.6353 Debye
        Dipole field         -0.0002 Ry au, 
 
        Potential amp.        0.0169 Ry
        Total length         55.1515 bohr
 
 
     Adding external electric field

     Computed dipole along edir(3) : 
        Dipole               -0.2499 Ry au,         -0.6353 Debye
        Dipole field         -0.0002 Ry au, 
 
        Potential amp.        0.0169 Ry
        Total length         55.1515 bohr
 

     total cpu time spent up to now is      526.7 secs

     total energy              =   -7738.35563252 Ry
     estimated scf accuracy    <       0.05250831 Ry

     total magnetization       =    87.52 Bohr mag/cell
     absolute magnetization    =    88.89 Bohr mag/cell

     iteration # 30     ecut=    50.00 Ry     beta= 0.10
     Davidson diagonalization with overlap
     ethr =  4.80E-06,  avg # of iterations =  1.5

     negative rho (up, down):  1.929E-06 3.528E-06
 
     Adding external electric field

     Computed dipole along edir(3) : 
        Dipole               -0.2442 Ry au,         -0.6207 Debye
        Dipole field         -0.0001 Ry au, 
 
        Potential amp.        0.0165 Ry
        Total length         55.1515 bohr
 
 
     Adding external electric field

     Computed dipole along edir(3) : 
        Dipole               -0.2442 Ry au,         -0.6207 Debye
        Dipole field         -0.0001 Ry au, 
 
        Potential amp.        0.0165 Ry
        Total length         55.1515 bohr
 

     total cpu time spent up to now is      541.3 secs

     total energy              =   -7738.35383042 Ry
     estimated scf accuracy    <       0.06010390 Ry

     total magnetization       =    87.63 Bohr mag/cell
     absolute magnetization    =    88.94 Bohr mag/cell

     iteration # 31     ecut=    50.00 Ry     beta= 0.10
     Davidson diagonalization with overlap
     ethr =  4.80E-06,  avg # of iterations =  2.0

     negative rho (up, down):  7.154E-07 6.918E-08
 
     Adding external electric field

     Computed dipole along edir(3) : 
        Dipole               -0.2482 Ry au,         -0.6308 Debye
        Dipole field         -0.0002 Ry au, 
 
        Potential amp.        0.0168 Ry
        Total length         55.1515 bohr
 
 
     Adding external electric field

     Computed dipole along edir(3) : 
        Dipole               -0.2482 Ry au,         -0.6308 Debye
        Dipole field         -0.0002 Ry au, 
 
        Potential amp.        0.0168 Ry
        Total length         55.1515 bohr
 

     total cpu time spent up to now is      556.7 secs

     total energy              =   -7738.35540346 Ry
     estimated scf accuracy    <       0.04847687 Ry

     total magnetization       =    87.28 Bohr mag/cell
     absolute magnetization    =    88.62 Bohr mag/cell

     iteration # 32     ecut=    50.00 Ry     beta= 0.10
     Davidson diagonalization with overlap
     ethr =  4.44E-06,  avg # of iterations =  2.0

     negative rho (up, down):  1.729E-07 6.755E-07
 
     Adding external electric field

     Computed dipole along edir(3) : 
        Dipole               -0.2277 Ry au,         -0.5786 Debye
        Dipole field         -0.0001 Ry au, 
 
        Potential amp.        0.0154 Ry
        Total length         55.1515 bohr
 
 
     Adding external electric field

     Computed dipole along edir(3) : 
        Dipole               -0.2277 Ry au,         -0.5786 Debye
        Dipole field         -0.0001 Ry au, 
 
        Potential amp.        0.0154 Ry
        Total length         55.1515 bohr
 

     total cpu time spent up to now is      572.2 secs

     total energy              =   -7738.35377743 Ry
     estimated scf accuracy    <       0.06075513 Ry

     total magnetization       =    87.67 Bohr mag/cell
     absolute magnetization    =    89.04 Bohr mag/cell

     iteration # 33     ecut=    50.00 Ry     beta= 0.10
     Davidson diagonalization with overlap
     ethr =  4.44E-06,  avg # of iterations =  1.5

     negative rho (up, down):  1.792E-06 2.758E-06
 
     Adding external electric field

     Computed dipole along edir(3) : 
        Dipole               -0.2577 Ry au,         -0.6549 Debye
        Dipole field         -0.0002 Ry au, 
 
        Potential amp.        0.0174 Ry
        Total length         55.1515 bohr
 
 
     Adding external electric field

     Computed dipole along edir(3) : 
        Dipole               -0.2577 Ry au,         -0.6549 Debye
        Dipole field         -0.0002 Ry au, 
 
        Potential amp.        0.0174 Ry
        Total length         55.1515 bohr
 

     total cpu time spent up to now is      587.2 secs

     total energy              =   -7738.35451610 Ry
     estimated scf accuracy    <       0.05798159 Ry

     total magnetization       =    87.46 Bohr mag/cell
     absolute magnetization    =    88.76 Bohr mag/cell

     iteration # 34     ecut=    50.00 Ry     beta= 0.10
     Davidson diagonalization with overlap
     ethr =  4.44E-06,  avg # of iterations =  1.5

     negative rho (up, down):  1.414E-04 1.872E-04
 
     Adding external electric field

     Computed dipole along edir(3) : 
        Dipole               -0.2576 Ry au,         -0.6548 Debye
        Dipole field         -0.0002 Ry au, 
 
        Potential amp.        0.0174 Ry
        Total length         55.1515 bohr
 
 
     Adding external electric field

     Computed dipole along edir(3) : 
        Dipole               -0.2576 Ry au,         -0.6548 Debye
        Dipole field         -0.0002 Ry au, 
 
        Potential amp.        0.0174 Ry
        Total length         55.1515 bohr
 

     total cpu time spent up to now is      602.3 secs

     total energy              =   -7738.35128132 Ry
     estimated scf accuracy    <       0.04325202 Ry

     total magnetization       =    87.48 Bohr mag/cell
     absolute magnetization    =    88.90 Bohr mag/cell

     iteration # 35     ecut=    50.00 Ry     beta= 0.10
     Davidson diagonalization with overlap
     ethr =  3.96E-06,  avg # of iterations =  2.0

     negative rho (up, down):  2.067E-04 2.455E-04
 
     Adding external electric field

     Computed dipole along edir(3) : 
        Dipole               -0.2601 Ry au,         -0.6611 Debye
        Dipole field         -0.0002 Ry au, 
 
        Potential amp.        0.0176 Ry
        Total length         55.1515 bohr
 
 
     Adding external electric field

     Computed dipole along edir(3) : 
        Dipole               -0.2601 Ry au,         -0.6611 Debye
        Dipole field         -0.0002 Ry au, 
 
        Potential amp.        0.0176 Ry
        Total length         55.1515 bohr
 

     total cpu time spent up to now is      618.2 secs

     total energy              =   -7738.35217113 Ry
     estimated scf accuracy    <       0.08557707 Ry

     total magnetization       =    86.50 Bohr mag/cell
     absolute magnetization    =    88.03 Bohr mag/cell

     iteration # 36     ecut=    50.00 Ry     beta= 0.10
     Davidson diagonalization with overlap
     ethr =  3.96E-06,  avg # of iterations =  1.5

     negative rho (up, down):  6.971E-04 6.528E-04
 
     Adding external electric field

     Computed dipole along edir(3) : 
        Dipole               -0.2573 Ry au,         -0.6539 Debye
        Dipole field         -0.0002 Ry au, 
 
        Potential amp.        0.0174 Ry
        Total length         55.1515 bohr
 
 
     Adding external electric field

     Computed dipole along edir(3) : 
        Dipole               -0.2573 Ry au,         -0.6539 Debye
        Dipole field         -0.0002 Ry au, 
 
        Potential amp.        0.0174 Ry
        Total length         55.1515 bohr
 

     total cpu time spent up to now is      633.0 secs

     total energy              =   -7738.35268183 Ry
     estimated scf accuracy    <       0.03734210 Ry

     total magnetization       =    87.14 Bohr mag/cell
     absolute magnetization    =    88.62 Bohr mag/cell

     iteration # 37     ecut=    50.00 Ry     beta= 0.10
     Davidson diagonalization with overlap
     ethr =  3.42E-06,  avg # of iterations =  2.0

     negative rho (up, down):  1.238E-03 1.134E-03
 
     Adding external electric field

     Computed dipole along edir(3) : 
        Dipole               -0.2091 Ry au,         -0.5314 Debye
        Dipole field         -0.0001 Ry au, 
 
        Potential amp.        0.0141 Ry
        Total length         55.1515 bohr
 
 
     Adding external electric field

     Computed dipole along edir(3) : 
        Dipole               -0.2091 Ry au,         -0.5314 Debye
        Dipole field         -0.0001 Ry au, 
 
        Potential amp.        0.0141 Ry
        Total length         55.1515 bohr
 

     total cpu time spent up to now is      649.2 secs

     total energy              =   -7738.35209438 Ry
     estimated scf accuracy    <       0.02639329 Ry

     total magnetization       =    87.13 Bohr mag/cell
     absolute magnetization    =    88.59 Bohr mag/cell

     iteration # 38     ecut=    50.00 Ry     beta= 0.10
     Davidson diagonalization with overlap
     ethr =  2.41E-06,  avg # of iterations = 18.0

     negative rho (up, down):  1.358E-03 1.395E-03
 
     Adding external electric field

     Computed dipole along edir(3) : 
        Dipole               -0.2226 Ry au,         -0.5657 Debye
        Dipole field         -0.0001 Ry au, 
 
        Potential amp.        0.0150 Ry
        Total length         55.1515 bohr
 
 
     Adding external electric field

     Computed dipole along edir(3) : 
        Dipole               -0.2226 Ry au,         -0.5657 Debye
        Dipole field         -0.0001 Ry au, 
 
        Potential amp.        0.0150 Ry
        Total length         55.1515 bohr
 

     total cpu time spent up to now is      682.4 secs

     total energy              =   -7738.35356921 Ry
     estimated scf accuracy    <       0.08015731 Ry

     total magnetization       =    86.68 Bohr mag/cell
     absolute magnetization    =    88.15 Bohr mag/cell

     iteration # 39     ecut=    50.00 Ry     beta= 0.10
     Davidson diagonalization with overlap
     ethr =  2.41E-06,  avg # of iterations =  2.0

     negative rho (up, down):  8.828E-04 8.241E-04
 
     Adding external electric field

     Computed dipole along edir(3) : 
        Dipole               -0.2455 Ry au,         -0.6240 Debye
        Dipole field         -0.0002 Ry au, 
 
        Potential amp.        0.0166 Ry
        Total length         55.1515 bohr
 
 
     Adding external electric field

     Computed dipole along edir(3) : 
        Dipole               -0.2455 Ry au,         -0.6240 Debye
        Dipole field         -0.0002 Ry au, 
 
        Potential amp.        0.0166 Ry
        Total length         55.1515 bohr
 

     total cpu time spent up to now is      698.4 secs

     total energy              =   -7738.35061408 Ry
     estimated scf accuracy    <       0.20339807 Ry

     total magnetization       =    86.12 Bohr mag/cell
     absolute magnetization    =    87.68 Bohr mag/cell

     iteration # 40     ecut=    50.00 Ry     beta= 0.10
     Davidson diagonalization with overlap
     ethr =  2.41E-06,  avg # of iterations =  1.0

     negative rho (up, down):  8.324E-04 8.040E-04
 
     Adding external electric field

     Computed dipole along edir(3) : 
        Dipole               -0.2701 Ry au,         -0.6864 Debye
        Dipole field         -0.0002 Ry au, 
 
        Potential amp.        0.0182 Ry
        Total length         55.1515 bohr
 
 
     Adding external electric field

     Computed dipole along edir(3) : 
        Dipole               -0.2701 Ry au,         -0.6864 Debye
        Dipole field         -0.0002 Ry au, 
 
        Potential amp.        0.0182 Ry
        Total length         55.1515 bohr
 

     total cpu time spent up to now is      711.4 secs

     total energy              =   -7738.35270729 Ry
     estimated scf accuracy    <       0.03572586 Ry

     total magnetization       =    87.02 Bohr mag/cell
     absolute magnetization    =    88.48 Bohr mag/cell

     iteration # 41     ecut=    50.00 Ry     beta= 0.10
     Davidson diagonalization with overlap
     ethr =  2.41E-06,  avg # of iterations =  2.0

     negative rho (up, down):  8.286E-04 6.645E-04
 
     Adding external electric field

     Computed dipole along edir(3) : 
        Dipole               -0.2593 Ry au,         -0.6591 Debye
        Dipole field         -0.0002 Ry au, 
 
        Potential amp.        0.0175 Ry
        Total length         55.1515 bohr
 
 
     Adding external electric field

     Computed dipole along edir(3) : 
        Dipole               -0.2593 Ry au,         -0.6591 Debye
        Dipole field         -0.0002 Ry au, 
 
        Potential amp.        0.0175 Ry
        Total length         55.1515 bohr
 

     total cpu time spent up to now is      727.2 secs

     total energy              =   -7738.35223837 Ry
     estimated scf accuracy    <       0.02886402 Ry

     total magnetization       =    87.17 Bohr mag/cell
     absolute magnetization    =    88.62 Bohr mag/cell

     iteration # 42     ecut=    50.00 Ry     beta= 0.10
     Davidson diagonalization with overlap
     ethr =  2.41E-06,  avg # of iterations =  2.0

     negative rho (up, down):  5.112E-04 5.240E-04
 
     Adding external electric field

     Computed dipole along edir(3) : 
        Dipole               -0.2433 Ry au,         -0.6183 Debye
        Dipole field         -0.0001 Ry au, 
 
        Potential amp.        0.0164 Ry
        Total length         55.1515 bohr
 
 
     Adding external electric field

     Computed dipole along edir(3) : 
        Dipole               -0.2433 Ry au,         -0.6183 Debye
        Dipole field         -0.0001 Ry au, 
 
        Potential amp.        0.0164 Ry
        Total length         55.1515 bohr
 

     total cpu time spent up to now is      742.2 secs

     total energy              =   -7738.35270800 Ry
     estimated scf accuracy    <       0.03271389 Ry

     total magnetization       =    87.17 Bohr mag/cell
     absolute magnetization    =    88.59 Bohr mag/cell

     iteration # 43     ecut=    50.00 Ry     beta= 0.10
     Davidson diagonalization with overlap
     ethr =  2.41E-06,  avg # of iterations =  1.0

     negative rho (up, down):  9.609E-04 8.564E-04
 
     Adding external electric field

     Computed dipole along edir(3) : 
        Dipole               -0.2444 Ry au,         -0.6212 Debye
        Dipole field         -0.0001 Ry au, 
 
        Potential amp.        0.0165 Ry
        Total length         55.1515 bohr
 
 
     Adding external electric field

     Computed dipole along edir(3) : 
        Dipole               -0.2444 Ry au,         -0.6212 Debye
        Dipole field         -0.0001 Ry au, 
 
        Potential amp.        0.0165 Ry
        Total length         55.1515 bohr
 

     total cpu time spent up to now is      755.6 secs

     total energy              =   -7738.35223263 Ry
     estimated scf accuracy    <       0.03543770 Ry

     total magnetization       =    87.11 Bohr mag/cell
     absolute magnetization    =    88.53 Bohr mag/cell

     iteration # 44     ecut=    50.00 Ry     beta= 0.10
     Davidson diagonalization with overlap
     ethr =  2.41E-06,  avg # of iterations =  2.0

     negative rho (up, down):  1.333E-03 1.284E-03
 
     Adding external electric field

     Computed dipole along edir(3) : 
        Dipole               -0.2488 Ry au,         -0.6325 Debye
        Dipole field         -0.0002 Ry au, 
 
        Potential amp.        0.0168 Ry
        Total length         55.1515 bohr
 
 
     Adding external electric field

     Computed dipole along edir(3) : 
        Dipole               -0.2488 Ry au,         -0.6325 Debye
        Dipole field         -0.0002 Ry au, 
 
        Potential amp.        0.0168 Ry
        Total length         55.1515 bohr
 

     total cpu time spent up to now is      771.0 secs

     total energy              =   -7738.35215474 Ry
     estimated scf accuracy    <       0.06272303 Ry

     total magnetization       =    86.74 Bohr mag/cell
     absolute magnetization    =    88.27 Bohr mag/cell

     iteration # 45     ecut=    50.00 Ry     beta= 0.10
     Davidson diagonalization with overlap
     ethr =  2.41E-06,  avg # of iterations =  1.0

     negative rho (up, down):  5.341E-04 4.911E-04
 
     Adding external electric field

     Computed dipole along edir(3) : 
        Dipole               -0.2605 Ry au,         -0.6621 Debye
        Dipole field         -0.0002 Ry au, 
 
        Potential amp.        0.0176 Ry
        Total length         55.1515 bohr
 
 
     Adding external electric field

     Computed dipole along edir(3) : 
        Dipole               -0.2605 Ry au,         -0.6621 Debye
        Dipole field         -0.0002 Ry au, 
 
        Potential amp.        0.0176 Ry
        Total length         55.1515 bohr
 

     total cpu time spent up to now is      784.6 secs

     total energy              =   -7738.35288111 Ry
     estimated scf accuracy    <       0.03702990 Ry

     total magnetization       =    86.99 Bohr mag/cell
     absolute magnetization    =    88.44 Bohr mag/cell

     iteration # 46     ecut=    50.00 Ry     beta= 0.10
     Davidson diagonalization with overlap
     ethr =  2.41E-06,  avg # of iterations =  1.5

     negative rho (up, down):  6.945E-04 6.295E-04
 
     Adding external electric field

     Computed dipole along edir(3) : 
        Dipole               -0.2355 Ry au,         -0.5986 Debye
        Dipole field         -0.0001 Ry au, 
 
        Potential amp.        0.0159 Ry
        Total length         55.1515 bohr
 
 
     Adding external electric field

     Computed dipole along edir(3) : 
        Dipole               -0.2355 Ry au,         -0.5986 Debye
        Dipole field         -0.0001 Ry au, 
 
        Potential amp.        0.0159 Ry
        Total length         55.1515 bohr
 

     total cpu time spent up to now is      799.1 secs

     total energy              =   -7738.35258439 Ry
     estimated scf accuracy    <       0.03874211 Ry

     total magnetization       =    87.02 Bohr mag/cell
     absolute magnetization    =    88.51 Bohr mag/cell

     iteration # 47     ecut=    50.00 Ry     beta= 0.10
     Davidson diagonalization with overlap
     ethr =  2.41E-06,  avg # of iterations =  1.0

     negative rho (up, down):  1.354E-03 1.079E-03
 
     Adding external electric field

     Computed dipole along edir(3) : 
        Dipole               -0.2099 Ry au,         -0.5336 Debye
        Dipole field         -0.0001 Ry au, 
 
        Potential amp.        0.0142 Ry
        Total length         55.1515 bohr
 
 
     Adding external electric field

     Computed dipole along edir(3) : 
        Dipole               -0.2099 Ry au,         -0.5336 Debye
        Dipole field         -0.0001 Ry au, 
 
        Potential amp.        0.0142 Ry
        Total length         55.1515 bohr
 

     total cpu time spent up to now is      812.6 secs

     total energy              =   -7738.35177778 Ry
     estimated scf accuracy    <       0.03146460 Ry

     total magnetization       =    87.06 Bohr mag/cell
     absolute magnetization    =    88.52 Bohr mag/cell

     iteration # 48     ecut=    50.00 Ry     beta= 0.10
     Davidson diagonalization with overlap
     ethr =  2.41E-06,  avg # of iterations =  1.5

     negative rho (up, down):  9.697E-04 7.981E-04
 
     Adding external electric field

     Computed dipole along edir(3) : 
        Dipole               -0.2144 Ry au,         -0.5450 Debye
        Dipole field         -0.0001 Ry au, 
 
        Potential amp.        0.0145 Ry
        Total length         55.1515 bohr
 
 
     Adding external electric field

     Computed dipole along edir(3) : 
        Dipole               -0.2144 Ry au,         -0.5450 Debye
        Dipole field         -0.0001 Ry au, 
 
        Potential amp.        0.0145 Ry
        Total length         55.1515 bohr
 

     total cpu time spent up to now is      827.3 secs

     total energy              =   -7738.35225524 Ry
     estimated scf accuracy    <       0.03401724 Ry

     total magnetization       =    87.04 Bohr mag/cell
     absolute magnetization    =    88.49 Bohr mag/cell

     iteration # 49     ecut=    50.00 Ry     beta= 0.10
     Davidson diagonalization with overlap
     ethr =  2.41E-06,  avg # of iterations =  1.0

     negative rho (up, down):  1.308E-03 1.118E-03
 
     Adding external electric field

     Computed dipole along edir(3) : 
        Dipole               -0.2444 Ry au,         -0.6213 Debye
        Dipole field         -0.0001 Ry au, 
 
        Potential amp.        0.0165 Ry
        Total length         55.1515 bohr
 
 
     Adding external electric field

     Computed dipole along edir(3) : 
        Dipole               -0.2444 Ry au,         -0.6213 Debye
        Dipole field         -0.0001 Ry au, 
 
        Potential amp.        0.0165 Ry
        Total length         55.1515 bohr
 

     total cpu time spent up to now is      841.0 secs

     total energy              =   -7738.35209940 Ry
     estimated scf accuracy    <       0.03413373 Ry

     total magnetization       =    87.01 Bohr mag/cell
     absolute magnetization    =    88.48 Bohr mag/cell

     iteration # 50     ecut=    50.00 Ry     beta= 0.10
     Davidson diagonalization with overlap
     ethr =  2.41E-06,  avg # of iterations =  1.5

     negative rho (up, down):  1.270E-03 1.065E-03
 
     Adding external electric field

     Computed dipole along edir(3) : 
        Dipole               -0.2367 Ry au,         -0.6016 Debye
        Dipole field         -0.0001 Ry au, 
 
        Potential amp.        0.0160 Ry
        Total length         55.1515 bohr
 
 
     Adding external electric field

     Computed dipole along edir(3) : 
        Dipole               -0.2367 Ry au,         -0.6016 Debye
        Dipole field         -0.0001 Ry au, 
 
        Potential amp.        0.0160 Ry
        Total length         55.1515 bohr
 

     total cpu time spent up to now is      855.7 secs

     total energy              =   -7738.35217968 Ry
     estimated scf accuracy    <       0.03436747 Ry

     total magnetization       =    86.97 Bohr mag/cell
     absolute magnetization    =    88.48 Bohr mag/cell

     iteration # 51     ecut=    50.00 Ry     beta= 0.10
     Davidson diagonalization with overlap
     ethr =  2.41E-06,  avg # of iterations =  1.0

     negative rho (up, down):  1.767E-03 1.374E-03
 
     Adding external electric field

     Computed dipole along edir(3) : 
        Dipole               -0.1938 Ry au,         -0.4927 Debye
        Dipole field         -0.0001 Ry au, 
 
        Potential amp.        0.0131 Ry
        Total length         55.1515 bohr
 
 
     Adding external electric field

     Computed dipole along edir(3) : 
        Dipole               -0.1938 Ry au,         -0.4927 Debye
        Dipole field         -0.0001 Ry au, 
 
        Potential amp.        0.0131 Ry
        Total length         55.1515 bohr
 

     total cpu time spent up to now is      869.3 secs

     total energy              =   -7738.35106688 Ry
     estimated scf accuracy    <       0.03214661 Ry

     total magnetization       =    87.01 Bohr mag/cell
     absolute magnetization    =    88.50 Bohr mag/cell

     iteration # 52     ecut=    50.00 Ry     beta= 0.10
     Davidson diagonalization with overlap
     ethr =  2.41E-06,  avg # of iterations =  1.5

     negative rho (up, down):  1.467E-03 1.060E-03
 
     Adding external electric field

     Computed dipole along edir(3) : 
        Dipole               -0.1811 Ry au,         -0.4603 Debye
        Dipole field         -0.0001 Ry au, 
 
        Potential amp.        0.0122 Ry
        Total length         55.1515 bohr
 
 
     Adding external electric field

     Computed dipole along edir(3) : 
        Dipole               -0.1811 Ry au,         -0.4603 Debye
        Dipole field         -0.0001 Ry au, 
 
        Potential amp.        0.0122 Ry
        Total length         55.1515 bohr
 

     total cpu time spent up to now is      884.1 secs

     total energy              =   -7738.35006179 Ry
     estimated scf accuracy    <       0.02881711 Ry

     total magnetization       =    87.04 Bohr mag/cell
     absolute magnetization    =    88.52 Bohr mag/cell

     iteration # 53     ecut=    50.00 Ry     beta= 0.10
     Davidson diagonalization with overlap
     ethr =  2.41E-06,  avg # of iterations =  1.5

     negative rho (up, down):  1.365E-03 1.005E-03
 
     Adding external electric field

     Computed dipole along edir(3) : 
        Dipole               -0.1840 Ry au,         -0.4677 Debye
        Dipole field         -0.0001 Ry au, 
 
        Potential amp.        0.0124 Ry
        Total length         55.1515 bohr
 
 
     Adding external electric field

     Computed dipole along edir(3) : 
        Dipole               -0.1840 Ry au,         -0.4677 Debye
        Dipole field         -0.0001 Ry au, 
 
        Potential amp.        0.0124 Ry
        Total length         55.1515 bohr
 

     total cpu time spent up to now is      898.5 secs

     total energy              =   -7738.35043286 Ry
     estimated scf accuracy    <       0.02701650 Ry

     total magnetization       =    87.06 Bohr mag/cell
     absolute magnetization    =    88.49 Bohr mag/cell

     iteration # 54     ecut=    50.00 Ry     beta= 0.10
     Davidson diagonalization with overlap
     ethr =  2.41E-06,  avg # of iterations =  1.0

     negative rho (up, down):  2.206E-03 1.733E-03
 
     Adding external electric field

     Computed dipole along edir(3) : 
        Dipole               -0.1080 Ry au,         -0.2745 Debye
        Dipole field         -0.0001 Ry au, 
 
        Potential amp.        0.0073 Ry
        Total length         55.1515 bohr
 
 
     Adding external electric field

     Computed dipole along edir(3) : 
        Dipole               -0.1080 Ry au,         -0.2745 Debye
        Dipole field         -0.0001 Ry au, 
 
        Potential amp.        0.0073 Ry
        Total length         55.1515 bohr
 

     total cpu time spent up to now is      911.7 secs

     total energy              =   -7738.34897878 Ry
     estimated scf accuracy    <       0.02865871 Ry

     total magnetization       =    87.04 Bohr mag/cell
     absolute magnetization    =    88.46 Bohr mag/cell

     iteration # 55     ecut=    50.00 Ry     beta= 0.10
     Davidson diagonalization with overlap
     ethr =  2.41E-06,  avg # of iterations =  2.0

     negative rho (up, down):  2.220E-03 1.754E-03
 
     Adding external electric field

     Computed dipole along edir(3) : 
        Dipole               -0.0805 Ry au,         -0.2045 Debye
        Dipole field         -0.0000 Ry au, 
 
        Potential amp.        0.0054 Ry
        Total length         55.1515 bohr
 
 
     Adding external electric field

     Computed dipole along edir(3) : 
        Dipole               -0.0805 Ry au,         -0.2045 Debye
        Dipole field         -0.0000 Ry au, 
 
        Potential amp.        0.0054 Ry
        Total length         55.1515 bohr
 

     total cpu time spent up to now is      926.3 secs

     total energy              =   -7738.34873036 Ry
     estimated scf accuracy    <       0.01932326 Ry

     total magnetization       =    87.08 Bohr mag/cell
     absolute magnetization    =    88.46 Bohr mag/cell

     iteration # 56     ecut=    50.00 Ry     beta= 0.10
     Davidson diagonalization with overlap
     ethr =  1.77E-06,  avg # of iterations =  1.5

     negative rho (up, down):  1.637E-03 1.273E-03
 
     Adding external electric field

     Computed dipole along edir(3) : 
        Dipole                0.0337 Ry au,          0.0857 Debye
        Dipole field          0.0000 Ry au, 
 
        Potential amp.       -0.0023 Ry
        Total length         55.1515 bohr
 
 
     Adding external electric field

     Computed dipole along edir(3) : 
        Dipole                0.0337 Ry au,          0.0857 Debye
        Dipole field          0.0000 Ry au, 
 
        Potential amp.       -0.0023 Ry
        Total length         55.1515 bohr
 

     total cpu time spent up to now is      940.2 secs

     total energy              =   -7738.34818579 Ry
     estimated scf accuracy    <       0.01733607 Ry

     total magnetization       =    87.08 Bohr mag/cell
     absolute magnetization    =    88.46 Bohr mag/cell

     iteration # 57     ecut=    50.00 Ry     beta= 0.10
     Davidson diagonalization with overlap
     c_bands:  1 eigenvalues not converged
     ethr =  1.59E-06,  avg # of iterations = 11.0

     negative rho (up, down):  1.849E-03 1.512E-03
 
     Adding external electric field

     Computed dipole along edir(3) : 
        Dipole                0.1425 Ry au,          0.3621 Debye
        Dipole field          0.0001 Ry au, 
 
        Potential amp.       -0.0096 Ry
        Total length         55.1515 bohr
 
 
     Adding external electric field

     Computed dipole along edir(3) : 
        Dipole                0.1425 Ry au,          0.3621 Debye
        Dipole field          0.0001 Ry au, 
 
        Potential amp.       -0.0096 Ry
        Total length         55.1515 bohr
 

     total cpu time spent up to now is      961.2 secs

     total energy              =   -7738.34881964 Ry
     estimated scf accuracy    <       0.01384594 Ry

     total magnetization       =    87.07 Bohr mag/cell
     absolute magnetization    =    88.52 Bohr mag/cell

     iteration # 58     ecut=    50.00 Ry     beta= 0.10
     Davidson diagonalization with overlap
     ethr =  1.27E-06,  avg # of iterations =  2.0

     negative rho (up, down):  1.529E-03 1.193E-03
 
     Adding external electric field

     Computed dipole along edir(3) : 
        Dipole                0.2641 Ry au,          0.6713 Debye
        Dipole field          0.0002 Ry au, 
 
        Potential amp.       -0.0178 Ry
        Total length         55.1515 bohr
 
 
     Adding external electric field

     Computed dipole along edir(3) : 
        Dipole                0.2641 Ry au,          0.6713 Debye
[...]
    -5.9665  -5.9426  -5.9204  -5.9153  -5.9002  -5.8768  -5.8732  -5.8426
    -5.8138  -5.8115  -5.7936  -5.7687  -5.7444  -5.7369  -5.6993  -5.6939
    -5.6855  -5.6522  -5.6093  -5.5872  -5.5778  -5.5433  -5.5255  -5.5056
    -5.4963  -5.4889  -5.4693  -5.4588  -5.4216  -5.4124  -5.3908  -5.3670
    -5.2991  -5.2383  -5.2285  -5.2040  -5.1935  -5.1806  -5.1602  -5.1032
    -5.0386  -5.0288  -5.0071  -4.9639  -4.9595  -4.9378  -4.9187  -4.8648
    -4.8204  -4.7739  -4.7648  -4.7534  -4.7490  -4.7025  -4.6718  -4.6624
    -4.5758  -4.5407  -4.4973  -4.4869  -4.4310  -4.4224  -4.3959  -4.3747
    -4.3652  -4.3384  -4.2218  -4.2130  -4.1880  -4.1635  -4.1347  -4.1072
    -4.0956  -4.0883  -4.0685  -3.9960  -3.9708  -3.9489  -3.9288  -3.9129
    -3.8666  -3.8289  -3.8226  -3.7987  -3.7926  -3.7644  -3.7341  -3.6960
    -3.6740  -3.6418  -3.6198  -3.6116  -3.6087  -3.5872  -3.5865  -3.5680
    -3.5365  -3.5179  -3.5070  -3.4848  -3.4803  -3.4636  -3.4510  -3.4201
    -3.4018  -3.3932  -3.3782  -3.3616  -3.3377  -3.3025  -3.2859  -3.2618
    -3.2351  -3.2329  -3.2145  -3.2039  -3.1923  -3.1452  -3.1248  -3.0993
    -3.0505  -3.0463  -3.0386  -3.0297  -3.0283  -3.0212  -3.0132  -2.9721
    -2.9419  -2.9360  -2.9280  -2.8775  -2.8668  -2.8631  -2.8082  -2.7920
    -2.7677  -2.7659  -2.7557  -2.7535  -2.7318  -2.7278  -2.7075  -2.7013
    -2.6859  -2.6630  -2.6548  -2.6264  -2.6222  -2.6084  -2.6027  -2.5933
    -2.5908  -2.5726  -2.5560  -2.5372  -2.5230  -2.5174  -2.4769  -2.4699
    -2.4481  -2.4394  -2.4184  -2.3910  -2.3574  -2.3500  -2.3302  -2.2985
    -2.2765  -2.2667  -2.2474  -2.2187  -2.2010  -2.1779  -2.1613  -2.1326
    -2.1250  -2.1169  -2.1097  -2.1003  -2.0735  -2.0618  -2.0197  -1.9926
    -1.9737  -1.9608  -1.9477  -1.9287  -1.9133  -1.9068  -1.8902  -1.8611
    -1.8508  -1.8346  -1.8140  -1.8064  -1.7998  -1.7858  -1.7697  -1.7624
    -1.7444  -1.7165  -1.6989  -1.6393  -1.6363  -1.6273  -1.5774  -1.5652
    -1.5604  -1.5322  -1.5089  -1.4988  -1.4872  -1.4790  -1.4462  -1.4325
    -1.4178  -1.4061  -1.3961  -1.3776  -1.3519  -1.3331  -1.3239  -1.3139
    -1.2707  -1.2583  -1.2404  -1.2081  -1.1854  -1.1569  -1.1169  -1.0763
    -1.0082  -0.9036  -0.8884  -0.8691  -0.8462  -0.7231  -0.7125  -0.5658
    -0.4776  -0.3137  -0.2671  -0.1351   0.1844   0.2149   0.2320   0.2491
     0.2550   0.2707   0.2973   0.3098   0.3315   0.3346   0.3546   0.3659
     0.3718   0.3774   0.3941   0.4080   0.4172   0.4187   0.4208   0.4267
     0.4317   0.4351   0.4508   0.4579   0.4605   0.4664   0.4789   0.4940
     0.4967   0.5051   0.5093   0.5170   0.5258   0.5370   0.5372   0.5441
     0.5646   0.5706   0.5791   0.5798   0.5866   0.5993   0.6023   0.6166
     0.6256   0.6275   0.6443   0.6467   0.6508   0.6547   0.6781   0.6820
     0.6857   0.6939   0.6995   0.7088   0.7153   0.7358   0.7402   0.7525
     0.7603   0.7638   0.7656   0.7759   0.7967   0.8001   0.8082   0.8138
     0.8226   0.8241   0.8328   0.8433   0.8545   0.8622   0.8728   0.8728
     0.8824   0.8949   0.9300   0.9407   0.9556   0.9577   0.9615   0.9872
     1.0015   1.0167   1.1010   1.1033   1.2019   1.2240   1.7506   1.7553
     1.7625   1.7755   1.7821   1.7907   1.8087   1.8231   1.8287   1.9074
     1.9233   1.9393   1.9687   1.9860   2.0256   2.0338   2.0486   2.1045
     2.1245   2.1367   2.1489   2.1515   2.1915   2.1974   2.2226   2.2335
     2.2478   2.2603   2.2884   2.2959   2.3056   2.3445   2.3584   2.3643
     2.3774   2.3921   2.4002   2.4182   2.4352   2.4509   2.4595   2.4798
     2.4899   2.5095   2.5123   2.5305   2.5396   2.5594   2.5903   2.6147
     2.6246   2.6384   2.6419   2.6980   2.7792   2.7973   2.8444   2.8649
     2.8939   2.9121   3.3108   3.5084   3.6353   3.6978   3.7749   3.8625
     3.9051   3.9288   3.9338   3.9574   4.0024   4.0720   4.0800   4.0921
     4.1147   4.1450   4.1527   4.1708   4.1873   4.4179   4.4973   4.6421
     4.8355   4.8835   4.9157   4.9397   4.9715   5.0350   5.0515   5.1082
     5.1298   5.1682   5.3968   6.2692   6.3626   6.4994   6.6031   6.6861
     6.7552   6.8352   6.8584   6.9098   6.9632   7.0475   7.0912   7.1849
     7.2451   7.3249   7.3550   7.3988   7.4728   7.5169   7.6181   7.6651
     7.6963   7.7047   7.7454   7.7785   7.8540   7.8642   7.9002   7.9503
     7.9855   8.0102   8.0589   8.0819   8.1182   8.1738   8.2068   8.2222
     8.2241   8.2770   8.3158   8.3370   8.3908   8.4138   8.4242   8.4410
     8.4553   8.4789   8.5099   8.5214   8.5468   8.5682   8.6089   8.6320
     8.6618   8.6942   8.6990   8.7335   8.7525   8.7926   8.8350   8.8714

     the Fermi energy is     1.6644 ev

!    total energy              =   -7738.34983188 Ry
     estimated scf accuracy    <       0.00000065 Ry
     smearing contrib. (-TS)   =      -0.02174548 Ry
     internal energy E=F+TS    =   -7738.32808640 Ry

     The total energy is F=E-TS. E is the sum of the following terms:
     one-electron contribution =  -95253.22261612 Ry
     hartree contribution      =   48242.77519523 Ry
     xc contribution           =   -2218.74181519 Ry
     ewald contribution        =   41492.67129510 Ry
     Dispersion Correction     =      -1.81025397 Ry
     electric field correction =       0.00010855 Ry

     total magnetization       =    86.97 Bohr mag/cell
     absolute magnetization    =    88.48 Bohr mag/cell

     convergence has been achieved in  79 iterations

     negative rho (up, down):  1.049E-03 5.973E-04

     Forces acting on atoms (cartesian axes, Ry/au):

     atom    1 type  1   force =     0.02527751   -0.03101458    0.01843028
     atom    2 type  2   force =    -0.01379046   -0.00164443   -0.01007979
     atom    3 type  1   force =    -0.02332543   -0.01856656    0.01995137
     atom    4 type  1   force =     0.00569744    0.00422080   -0.00637181
     atom    5 type  1   force =    -0.00190042    0.00122139   -0.00523774
     atom    6 type  1   force =     0.00208644    0.00768835   -0.00893948
     atom    7 type  3   force =    -0.00768865    0.00122685   -0.01051042
     atom    8 type  3   force =    -0.03501191    0.05415579   -0.08328670
     atom    9 type  3   force =     0.03414504    0.03817414   -0.06430346
     atom   10 type  3   force =    -0.00305094   -0.00244847   -0.01166458
     atom   11 type  4   force =     0.00669937    0.00555104    0.01394361
     atom   12 type  4   force =    -0.00024996   -0.00294947    0.01479233
     atom   13 type  4   force =     0.00194785    0.00169964    0.01737491
     atom   14 type  4   force =    -0.00050773   -0.00126963    0.01276947
     atom   15 type  4   force =    -0.00068889    0.00454738   -0.00193578
     atom   16 type  4   force =    -0.00042653    0.00263438    0.04032246
     atom   17 type  4   force =     0.00171039    0.00810533    0.03780406
     atom   18 type  4   force =     0.00796914   -0.00447000   -0.00047928
     atom   19 type  4   force =     0.00043983    0.01186428    0.00426387
     atom   20 type  4   force =    -0.00965499   -0.02678677   -0.00368463
     atom   21 type  4   force =    -0.01109743   -0.00044129    0.00065755
     atom   22 type  4   force =    -0.03207816    0.00311090    0.00787080
     atom   23 type  4   force =     0.03206084    0.00059086    0.01410066
     atom   24 type  4   force =     0.00702364   -0.03695512    0.00380001
     atom   25 type  4   force =    -0.00314282    0.00172329    0.00395713
     atom   26 type  4   force =     0.01781502   -0.00686558    0.00079918
     atom   27 type  1   force =    -0.00510583   -0.00889405    0.00279109
     atom   28 type  2   force =    -0.01323471   -0.00029575    0.00439879
     atom   29 type  1   force =     0.00296361   -0.00505458   -0.00149098
     atom   30 type  1   force =     0.00252551    0.00460758   -0.00207534
     atom   31 type  1   force =     0.00154510   -0.00470738    0.00019317
     atom   32 type  1   force =    -0.00067826    0.00129450   -0.00171302
     atom   33 type  3   force =    -0.00672449   -0.00317935   -0.00164505
     atom   34 type  3   force =    -0.00787402    0.00257398   -0.00002990
     atom   35 type  3   force =     0.00442782   -0.00059656    0.00264757
     atom   36 type  3   force =     0.00062781   -0.00043686   -0.00559390
     atom   37 type  4   force =     0.00850357    0.00532619    0.00721730
     atom   38 type  4   force =     0.00375667   -0.00084544   -0.01938567
     atom   39 type  4   force =    -0.00154071    0.00365791   -0.00977388
     atom   40 type  4   force =    -0.00148667   -0.00251928    0.00954855
     atom   41 type  4   force =    -0.00228077    0.00490410   -0.00759191
     atom   42 type  4   force =    -0.00444022   -0.00438790    0.01789719
     atom   43 type  4   force =     0.00767430    0.00335998    0.00780719
     atom   44 type  4   force =     0.01035581   -0.00589573   -0.00646280
     atom   45 type  4   force =     0.00283480    0.00386328    0.00062639
     atom   46 type  4   force =     0.00240287   -0.00017344   -0.00558540
     atom   47 type  4   force =    -0.01280068   -0.00077323   -0.00344536
     atom   48 type  4   force =    -0.01466089    0.00126232    0.00342372
     atom   49 type  4   force =     0.01364457    0.00252975    0.00439168
     atom   50 type  4   force =    -0.00271884   -0.00497510   -0.00049703
     atom   51 type  4   force =    -0.00536116    0.00200288    0.00026898
     atom   52 type  4   force =     0.01554998   -0.00343652   -0.00467242
     atom   53 type  1   force =     0.00045842    0.00017414   -0.00000695
     atom   54 type  2   force =     0.00299622    0.00155717   -0.00416709
     atom   55 type  1   force =    -0.00005689    0.00026782    0.00008654
     atom   56 type  1   force =     0.00003858    0.00007947    0.00018659
     atom   57 type  1   force =     0.00045098   -0.00034881    0.00049822
     atom   58 type  1   force =     0.00042557    0.00032506    0.00040027
     atom   59 type  3   force =     0.00067192   -0.00012427   -0.00012208
     atom   60 type  3   force =     0.00001893   -0.00060060    0.00033690
     atom   61 type  3   force =    -0.00003283    0.00005839    0.00026100
     atom   62 type  3   force =    -0.00003951   -0.00014699   -0.00014888
     atom   63 type  4   force =    -0.00020693   -0.00021006    0.00027704
     atom   64 type  4   force =     0.00018998   -0.00058143    0.00010684
     atom   65 type  4   force =     0.00007555    0.00040334    0.00025629
     atom   66 type  4   force =    -0.00016375    0.00008139    0.00003307
     atom   67 type  4   force =    -0.00001685    0.00006021    0.00094447
     atom   68 type  4   force =    -0.00013855    0.00053465   -0.00016978
     atom   69 type  4   force =     0.00030267   -0.00077470   -0.00083738
     atom   70 type  4   force =     0.00032428   -0.00019946    0.00062960
     atom   71 type  4   force =    -0.00003532   -0.00021176    0.00031080
     atom   72 type  4   force =     0.00002220    0.00018556   -0.00038341
     atom   73 type  4   force =     0.00000453    0.00006153   -0.00039909
     atom   74 type  4   force =     0.00028421    0.00006997    0.00019936
     atom   75 type  4   force =     0.00001819    0.00017480    0.00024991
     atom   76 type  4   force =    -0.00011862    0.00024809    0.00053774
     atom   77 type  4   force =    -0.00017916   -0.00006161    0.00046707
     atom   78 type  4   force =    -0.00005902   -0.00052204   -0.00038001
     atom   79 type  1   force =     0.02527879   -0.03100852    0.01843356
     atom   80 type  2   force =    -0.01379231   -0.00168934   -0.01005379
     atom   81 type  1   force =    -0.02330745   -0.01856018    0.01995708
     atom   82 type  1   force =     0.00569394    0.00422281   -0.00636638
     atom   83 type  1   force =    -0.00192297    0.00122083   -0.00524047
     atom   84 type  1   force =     0.00208316    0.00769557   -0.00893663
     atom   85 type  3   force =    -0.00769722    0.00119213   -0.01045383
     atom   86 type  3   force =    -0.03501069    0.05415456   -0.08328479
     atom   87 type  3   force =     0.03414824    0.03817240   -0.06430211
     atom   88 type  3   force =    -0.00303801   -0.00245123   -0.01166540
     atom   89 type  4   force =     0.00681203    0.00555689    0.01393273
     atom   90 type  4   force =    -0.00015284   -0.00286487    0.01478348
     atom   91 type  4   force =     0.00203712    0.00169113    0.01734664
     atom   92 type  4   force =    -0.00034442   -0.00126493    0.01277142
     atom   93 type  4   force =    -0.00068641    0.00475774   -0.00184319
     atom   94 type  4   force =    -0.00049004    0.00259256    0.04011880
     atom   95 type  4   force =     0.00184158    0.00810678    0.03780787
     atom   96 type  4   force =     0.00776348   -0.00448684   -0.00050044
     atom   97 type  4   force =     0.00052434    0.01192183    0.00416583
     atom   98 type  4   force =    -0.00955042   -0.02661568   -0.00365254
     atom   99 type  4   force =    -0.01110941   -0.00040798    0.00085205
     atom  100 type  4   force =    -0.03210716    0.00300614    0.00774479
     atom  101 type  4   force =     0.03208806    0.00059384    0.01410807
     atom  102 type  4   force =     0.00684530   -0.03695569    0.00380367
     atom  103 type  4   force =    -0.00305072    0.00167699    0.00392084
     atom  104 type  4   force =     0.01794268   -0.00686449    0.00078388
     atom  105 type  1   force =    -0.00526869   -0.00879098    0.00274196
     atom  106 type  2   force =    -0.01342905    0.00019959    0.00446643
     atom  107 type  1   force =     0.00301077   -0.00506369   -0.00146528
     atom  108 type  1   force =     0.00270384    0.00370947   -0.00122983
     atom  109 type  1   force =     0.00140613   -0.00467101    0.00012311
     atom  110 type  1   force =    -0.00097196    0.00131060   -0.00166527
     atom  111 type  3   force =    -0.00682796   -0.00341788   -0.00085963
     atom  112 type  3   force =    -0.00811041    0.00270788   -0.00021373
     atom  113 type  3   force =     0.00442453   -0.00068309    0.00265753
     atom  114 type  3   force =     0.00061352    0.00040440   -0.00511421
     atom  115 type  4   force =     0.00877032    0.00534887    0.00711990
     atom  116 type  4   force =     0.00382989   -0.00094947   -0.01942499
     atom  117 type  4   force =    -0.00132214    0.00370239   -0.00974164
     atom  118 type  4   force =    -0.00126458   -0.00286260    0.00955079
     atom  119 type  4   force =    -0.00313752    0.00392606   -0.00709886
     atom  120 type  4   force =    -0.00413984   -0.00462289    0.01786803
     atom  121 type  4   force =     0.00770938    0.00336358    0.00782805
     atom  122 type  4   force =     0.01026390   -0.00590309   -0.00586661
     atom  123 type  4   force =     0.00305484    0.00356861   -0.00029669
     atom  124 type  4   force =     0.00228657   -0.00006962   -0.00556778
     atom  125 type  4   force =    -0.01272090   -0.00086424   -0.00334491
     atom  126 type  4   force =    -0.01473340    0.00128031    0.00341836
     atom  127 type  4   force =     0.01356011    0.00242048    0.00448213
     atom  128 type  4   force =    -0.00284977   -0.00501552   -0.00046009
     atom  129 type  4   force =    -0.00563949    0.00213224   -0.00000321
     atom  130 type  4   force =     0.01575531   -0.00363651   -0.00444179
     atom  131 type  1   force =     0.00035155    0.00005653    0.00041881
     atom  132 type  2   force =    -0.00068530    0.00002274    0.00026277
     atom  133 type  1   force =    -0.00013414    0.00012351    0.00025878
     atom  134 type  1   force =    -0.00049352   -0.00031652   -0.00047789
     atom  135 type  1   force =     0.00030547   -0.00071384    0.00036964
     atom  136 type  1   force =     0.00052370    0.00007378    0.00034278
     atom  137 type  3   force =    -0.00024304    0.00049340   -0.00030772
     atom  138 type  3   force =    -0.00009271   -0.00027139    0.00039703
     atom  139 type  3   force =     0.00034263   -0.00010230    0.00006134
     atom  140 type  3   force =    -0.00006793   -0.00017288   -0.00047077
     atom  141 type  4   force =     0.00026193    0.00048964    0.00012067
     atom  142 type  4   force =    -0.00009731    0.00007709    0.00028812
     atom  143 type  4   force =     0.00053270   -0.00009560    0.00009581
     atom  144 type  4   force =    -0.00007391    0.00005347   -0.00034396
     atom  145 type  4   force =     0.00041368   -0.00001812    0.00058201
     atom  146 type  4   force =     0.00002427    0.00025140    0.00035680
     atom  147 type  4   force =    -0.00043314   -0.00041812   -0.00028924
     atom  148 type  4   force =     0.00046390   -0.00002001    0.00048644
     atom  149 type  4   force =    -0.00010492   -0.00057639    0.00023450
     atom  150 type  4   force =     0.00008823   -0.00041241    0.00011745
     atom  151 type  4   force =    -0.00002922   -0.00011596   -0.00003217
     atom  152 type  4   force =     0.00039979   -0.00010478   -0.00009823
     atom  153 type  4   force =     0.00002010    0.00026278   -0.00021942
     atom  154 type  4   force =     0.00045023   -0.00004817   -0.00005895
     atom  155 type  4   force =    -0.00003315    0.00012479   -0.00011545
     atom  156 type  4   force =     0.00002705    0.00010777    0.00002831
     atom  157 type  4   force =    -0.00539011   -0.00166965    0.00577808
     atom  158 type  5   force =     0.00250297   -0.00081075   -0.00023846

     Total force =     0.263040     Total SCF correction =     0.002890
 
     init_run     :      8.96s CPU      9.77s WALL (       1 calls)
     electrons    :   1247.95s CPU   1314.99s WALL (       1 calls)
     forces       :      4.41s CPU      4.93s WALL (       1 calls)
     force_london :      0.12s CPU      0.12s WALL (       1 calls)

     Called by init_run:
     wfcinit      :      5.31s CPU      5.55s WALL (       1 calls)
     potinit      :      0.53s CPU      0.73s WALL (       1 calls)
     hinit0       :      1.52s CPU      1.63s WALL (       1 calls)

     Called by electrons:
     c_bands      :    979.99s CPU   1015.04s WALL (      79 calls)
     sum_band     :    168.17s CPU    184.98s WALL (      79 calls)
     v_of_rho     :     22.91s CPU     24.37s WALL (      80 calls)
     newd         :     51.06s CPU     64.73s WALL (      80 calls)
     mix_rho      :     24.60s CPU     24.80s WALL (      79 calls)
     energy_londo :      0.11s CPU      0.11s WALL (       1 calls)

     Called by c_bands:
     init_us_2    :      3.67s CPU      3.77s WALL (     320 calls)
     init_us_2:cp :      3.67s CPU      3.77s WALL (     320 calls)
     regterg      :    957.65s CPU    992.34s WALL (     161 calls)

     Called by *egterg:
     rdiaghg      :    262.81s CPU    278.98s WALL (     641 calls)
     h_psi        :    385.55s CPU    393.90s WALL (     643 calls)
     s_psi        :     74.86s CPU     74.94s WALL (     643 calls)
     g_psi        :      0.55s CPU      0.56s WALL (     480 calls)

     Called by h_psi:
     h_psi:calbec :     91.60s CPU     97.82s WALL (     643 calls)
     vloc_psi     :    217.90s CPU    219.10s WALL (     643 calls)
     add_vuspsi   :     74.82s CPU     75.73s WALL (     643 calls)

     General routines
     calbec       :    135.31s CPU    144.60s WALL (     809 calls)
     fft          :     17.96s CPU     20.01s WALL (    1453 calls)
     ffts         :     14.07s CPU     14.14s WALL (    9833 calls)
     fftw         :    230.13s CPU    231.33s WALL (  270162 calls)
     interpolate  :      1.69s CPU      1.85s WALL (     160 calls)
 
     Parallel routines
 
     PWSCF        :  21m 4.40s CPU  22m13.27s WALL

 
   This run was terminated on:  23:34:28  17Nov2025            

=------------------------------------------------------------------------------=
   JOB DONE.
=------------------------------------------------------------------------------=
