
     Program PWSCF v.7.2 starts on 18Nov2025 at  0: 4:35 

     This program is part of the open-source Quantum ESPRESSO suite
     for quantum simulation of materials; please cite
         "P. Giannozzi et al., J. Phys.:Condens. Matter 21 395502 (2009);
         "P. Giannozzi et al., J. Phys.:Condens. Matter 29 465901 (2017);
         "P. Giannozzi et al., J. Chem. Phys. 152 154105 (2020);
          URL http://www.quantum-espresso.org", 
     in publications or presentations arising from this work. More details at
     http://www.quantum-espresso.org/quote

     Parallel version (MPI), running on    64 processors

     MPI processes distributed on     4 nodes
     342832 MiB available memory on the printing compute node when the environment starts
 
     Reading input from PWINPUT_atm158_xm

     Current dimensions of program PWSCF are:
     Max number of different atomic species (ntypx) = 10
     Max number of k-points (npk) =  40000
     Max angular momentum in pseudopotentials (lmaxx) =  4
     Presently no symmetry can be used with electric field

     file Ni.pbe-n-rrkjus_psl.1.0.0.UPF: wavefunction(s)  3D renormalized
     file Mn.pbe-spn-rrkjus_psl.0.3.1.UPF: wavefunction(s)  3D renormalized
     file O.pbe-rrkjus.UPF: wavefunction(s)  2S renormalized
     file H.pbe-rrkjus.UPF: wavefunction(s)  1S renormalized

     gamma-point specific algorithms are used
 
     R & G space division:  proc/nbgrp/npool/nimage =      64
     Subspace diagonalization in iterative solution of the eigenvalue problem:
     one sub-group per band group will be used
     custom distributed-memory algorithm (size of sub-group:  7*  7 procs)

 
     Parallelization info
     --------------------
     sticks:   dense  smooth     PW     G-vecs:    dense   smooth      PW
     Min         207      82     20                60552    15302    1896
     Max         210      84     22                60574    15336    1950
     Sum       13325    5345   1333              3876045   980655  122653
 
     Using Slab Decomposition
 


     bravais-lattice index     =            0
     lattice parameter (alat)  =      17.4067  a.u.
     unit-cell volume          =   20529.8182 (a.u.)^3
     number of atoms/cell      =          158
     number of atomic types    =            5
     number of electrons       =      1093.00
     number of Kohn-Sham states=          656
     kinetic-energy cutoff     =      50.0000  Ry
     charge density cutoff     =     500.0000  Ry
     scf convergence threshold =      1.0E-06
     mixing beta               =       0.1000
     number of iterations used =            8  local-TF  mixing
     Exchange-correlation=  SLA  PW   PBE  PBE
                           (   1   4   3   4   0   0   0)

     celldm(1)=  17.406729  celldm(2)=   0.000000  celldm(3)=   0.000000
     celldm(4)=   0.000000  celldm(5)=   0.000000  celldm(6)=   0.000000

     crystal axes: (cart. coord. in units of alat)
               a(1) = (   1.000000   0.000000   0.000000 )  
               a(2) = (  -0.001404   1.105696   0.000000 )  
               a(3) = (   0.000000   0.000000   3.520448 )  

     reciprocal axes: (cart. coord. in units 2 pi/alat)
               b(1) = (  1.000000  0.001270  0.000000 )  
               b(2) = (  0.000000  0.904408  0.000000 )  
               b(3) = (  0.000000  0.000000  0.284055 )  


     PseudoPot. # 1 for Ni read from file:
     ~/PSEUDO/Ni.pbe-n-rrkjus_psl.1.0.0.UPF
     MD5 check sum: Not computed, couldn't open file
     Pseudo is Ultrasoft + core correction, Zval = 10.0
     Generated using "atomic" code by A. Dal Corso  v.5.1.2
     Using radial grid of 1195 points,  6 beta functions with: 
                l(1) =   0
                l(2) =   0
                l(3) =   1
                l(4) =   1
                l(5) =   2
                l(6) =   2
     Q(r) pseudized with 0 coefficients 


     PseudoPot. # 2 for Mn read from file:
     ~/PSEUDO/Mn.pbe-spn-rrkjus_psl.0.3.1.UPF
     MD5 check sum: Not computed, couldn't open file
     Pseudo is Ultrasoft + core correction, Zval = 15.0
     Generated using &quot;atomic&quot; code by A. Dal Corso  v.6.2.2
     Using radial grid of 1187 points,  6 beta functions with: 
                l(1) =   0
                l(2) =   0
                l(3) =   1
                l(4) =   1
                l(5) =   2
                l(6) =   2
     Q(r) pseudized with 0 coefficients 


     PseudoPot. # 3 for P  read from file:
     ~/PSEUDO/P.pbe-n-rrkjus_psl.1.0.0.UPF
     MD5 check sum: Not computed, couldn't open file
     Pseudo is Ultrasoft + core correction, Zval =  5.0
     Generated using "atomic" code by A. Dal Corso  v.5.1
     Using radial grid of 1147 points,  6 beta functions with: 
                l(1) =   0
                l(2) =   0
                l(3) =   1
                l(4) =   1
                l(5) =   2
                l(6) =   2
     Q(r) pseudized with 0 coefficients 


     PseudoPot. # 4 for O  read from file:
     ~/PSEUDO/O.pbe-rrkjus.UPF
     MD5 check sum: Not computed, couldn't open file
     Pseudo is Ultrasoft, Zval =  6.0
     Generated by new atomic code, or converted to UPF format
     Using radial grid of 1269 points,  4 beta functions with: 
                l(1) =   0
                l(2) =   0
                l(3) =   1
                l(4) =   1
     Q(r) pseudized with 0 coefficients 


     PseudoPot. # 5 for H  read from file:
     ~/PSEUDO/H.pbe-rrkjus.UPF
     MD5 check sum: Not computed, couldn't open file
     Pseudo is Ultrasoft, Zval =  1.0
     Generated by new atomic code, or converted to UPF format
     Using radial grid of 1061 points,  2 beta functions with: 
                l(1) =   0
                l(2) =   0
     Q(r) pseudized with 0 coefficients 


     atomic species   valence    mass     pseudopotential
     Ni               10.00    58.69300     Ni( 1.00)
     Mn               15.00    54.93800     Mn( 1.00)
     P                 5.00    30.97300     P ( 1.00)
     O                 6.00    15.99900     O ( 1.00)
     H                 1.00     1.00790     H ( 1.00)

     Starting magnetic structure 
     atomic species   magnetization
     Ni              1.000
     Mn              1.000
     P               1.000
     O               1.000
     H               0.000

     No symmetry found



   Cartesian axes

     site n.     atom                  positions (alat units)
         1        Ni     tau(   1) = (   0.2421002   0.8609138   0.1302181  )
         2        Mn     tau(   2) = (   0.4924481   0.7886602   0.4655392  )
         3        Ni     tau(   3) = (   0.0052341   0.3031820   0.1284544  )
         4        Ni     tau(   4) = (   0.2570603   0.2374878   0.4617901  )
         5        Ni     tau(   5) = (   0.4976584   1.1048203   0.2964410  )
         6        Ni     tau(   6) = (   0.2495781   0.5440308   0.2953805  )
         7        P      tau(   7) = (   0.2083492   0.9982113   0.4588145  )
         8        P      tau(   8) = (   0.4584476   0.6559264   0.1347090  )
         9        P      tau(   9) = (   0.2889394   0.1031966   0.1319347  )
        10        P      tau(  10) = (   0.0400379   0.4338094   0.4586283  )
        11        O      tau(  11) = (   0.1314218   0.9248062   0.3189972  )
        12        O      tau(  12) = (   0.3797244   0.7272031   0.2742874  )
        13        O      tau(  13) = (   0.3662315   0.1762062   0.2720888  )
        14        O      tau(  14) = (   0.1171240   0.3646150   0.3169340  )
        15        O      tau(  15) = (   0.1510364   0.9068326   0.5881934  )
        16        O      tau(  16) = (   0.3981989   0.7453439   0.0053495  )
        17        O      tau(  17) = (   0.3490561   0.1888693   0.0010856  )
        18        O      tau(  18) = (   0.0982395   0.3475583   0.5894443  )
        19        O      tau(  19) = (   0.0992163   0.5918099   0.4542505  )
        20        O      tau(  20) = (   0.3467441   1.0504690   0.1405000  )
        21        O      tau(  21) = (   0.3739183   0.4303319   0.4477971  )
        22        O      tau(  22) = (   0.1230967   0.1088895   0.1422960  )
        23        O      tau(  23) = (   0.1242901   0.6635968   0.1442928  )
        24        O      tau(  24) = (   0.4011802   0.4971632   0.1376281  )
        25        O      tau(  25) = (   0.1484006   0.0497464   0.4550965  )
        26        O      tau(  26) = (   0.3736100   0.9942556   0.4492158  )
        27        Ni     tau(  27) = (   0.2413539   0.8509941   0.7820408  )
        28        Mn     tau(  28) = (   0.4917018   0.7787406   1.1173619  )
        29        Ni     tau(  29) = (   0.0044877   0.2932623   0.7802771  )
        30        Ni     tau(  30) = (   0.2563139   0.2275682   1.1136128  )
        31        Ni     tau(  31) = (   0.4969120   1.0949007   0.9482637  )
        32        Ni     tau(  32) = (   0.2488318   0.5341111   0.9472032  )
        33        P      tau(  33) = (   0.2076029   0.9882917   1.1106372  )
        34        P      tau(  34) = (   0.4577012   0.6460068   0.7865316  )
        35        P      tau(  35) = (   0.2881931   0.0932770   0.7837574  )
        36        P      tau(  36) = (   0.0392916   0.4238898   1.1104509  )
        37        O      tau(  37) = (   0.1306755   0.9148866   0.9708199  )
        38        O      tau(  38) = (   0.3789780   0.7172835   0.9261101  )
        39        O      tau(  39) = (   0.3654852   0.1662865   0.9239115  )
        40        O      tau(  40) = (   0.1163776   0.3546954   0.9687567  )
        41        O      tau(  41) = (   0.1502901   0.8969129   1.2400160  )
        42        O      tau(  42) = (   0.3974525   0.7354243   0.6571722  )
        43        O      tau(  43) = (   0.3483097   0.1789497   0.6529083  )
        44        O      tau(  44) = (   0.0974932   0.3376387   1.2412670  )
        45        O      tau(  45) = (   0.0984699   0.5818903   1.1060732  )
        46        O      tau(  46) = (   0.3459978   1.0405493   0.7923226  )
        47        O      tau(  47) = (   0.3731719   0.4204123   1.0996198  )
        48        O      tau(  48) = (   0.1223503   0.0989699   0.7941187  )
        49        O      tau(  49) = (   0.1235438   0.6536772   0.7961155  )
        50        O      tau(  50) = (   0.4004339   0.4872435   0.7894508  )
        51        O      tau(  51) = (   0.1476543   0.0398268   1.1069192  )
        52        O      tau(  52) = (   0.3728637   0.9843360   1.1010385  )
        53        Ni     tau(  53) = (   0.2405000   0.8314791   1.4310848  )
        54        Mn     tau(  54) = (   0.4953493   0.7643247   1.7724492  )
        55        Ni     tau(  55) = (   0.0038518   0.2756365   1.4285360  )
        56        Ni     tau(  56) = (   0.2471345   0.2153113   1.7400474  )
        57        Ni     tau(  57) = (   0.4995752   1.0720933   1.5947286  )
        58        Ni     tau(  58) = (   0.2421013   0.5219868   1.5980514  )
        59        P      tau(  59) = (   0.2104375   0.9681194   1.7574697  )
        60        P      tau(  60) = (   0.4534410   0.6275485   1.4348057  )
        61        P      tau(  61) = (   0.2894259   0.0743283   1.4290817  )
        62        P      tau(  62) = (   0.0298192   0.4013010   1.7598256  )
        63        O      tau(  63) = (   0.1358441   0.9005122   1.6129847  )
        64        O      tau(  64) = (   0.3771008   0.7024676   1.5717788  )
        65        O      tau(  65) = (   0.3674645   0.1471109   1.5680584  )
        66        O      tau(  66) = (   0.1092283   0.3457090   1.6100373  )
        67        O      tau(  67) = (   0.1496755   0.8741583   1.8808047  )
        68        O      tau(  68) = (   0.3923953   0.7169116   1.3059963  )
        69        O      tau(  69) = (   0.3499475   0.1644431   1.3009773  )
        70        O      tau(  70) = (   0.0894679   0.3000020   1.8751501  )
        71        O      tau(  71) = (   0.0835747   0.5628016   1.7646462  )
        72        O      tau(  72) = (   0.3492253   1.0223474   1.4345599  )
        73        O      tau(  73) = (   0.3642103   0.4027294   1.7423561  )
        74        O      tau(  74) = (   0.1229734   0.0811149   1.4416195  )
        75        O      tau(  75) = (   0.1204474   0.6369096   1.4465931  )
        76        O      tau(  76) = (   0.3946534   0.4694481   1.4371785  )
        77        O      tau(  77) = (   0.1552554   0.0214678   1.7549498  )
        78        O      tau(  78) = (   0.3781421   0.9602342   1.7485231  )
        79        Ni     tau(  79) = (   0.7421002   0.8609138   0.1302181  )
        80        Mn     tau(  80) = (   0.9924481   0.7886602   0.4655392  )
        81        Ni     tau(  81) = (   0.5052341   0.3031820   0.1284544  )
        82        Ni     tau(  82) = (   0.7570603   0.2374878   0.4617901  )
        83        Ni     tau(  83) = (   0.9976584   1.1048203   0.2964410  )
        84        Ni     tau(  84) = (   0.7495781   0.5440308   0.2953805  )
        85        P      tau(  85) = (   0.7083492   0.9982113   0.4588145  )
        86        P      tau(  86) = (   0.9584476   0.6559264   0.1347090  )
        87        P      tau(  87) = (   0.7889394   0.1031966   0.1319347  )
        88        P      tau(  88) = (   0.5400379   0.4338094   0.4586283  )
        89        O      tau(  89) = (   0.6314218   0.9248062   0.3189972  )
        90        O      tau(  90) = (   0.8797244   0.7272031   0.2742874  )
        91        O      tau(  91) = (   0.8662315   0.1762062   0.2720888  )
        92        O      tau(  92) = (   0.6171240   0.3646150   0.3169340  )
        93        O      tau(  93) = (   0.6510364   0.9068326   0.5881934  )
        94        O      tau(  94) = (   0.8981989   0.7453439   0.0053495  )
        95        O      tau(  95) = (   0.8490561   0.1888693   0.0010856  )
        96        O      tau(  96) = (   0.5982395   0.3475583   0.5894443  )
        97        O      tau(  97) = (   0.5992163   0.5918099   0.4542505  )
        98        O      tau(  98) = (   0.8467441   1.0504690   0.1405000  )
        99        O      tau(  99) = (   0.8739183   0.4303319   0.4477971  )
       100        O      tau( 100) = (   0.6230967   0.1088895   0.1422960  )
       101        O      tau( 101) = (   0.6242901   0.6635968   0.1442928  )
       102        O      tau( 102) = (   0.9011802   0.4971632   0.1376281  )
       103        O      tau( 103) = (   0.6484006   0.0497464   0.4550965  )
       104        O      tau( 104) = (   0.8736100   0.9942556   0.4492158  )
       105        Ni     tau( 105) = (   0.7413539   0.8509941   0.7820408  )
       106        Mn     tau( 106) = (   0.9917018   0.7787406   1.1173619  )
       107        Ni     tau( 107) = (   0.5044877   0.2932623   0.7802771  )
       108        Ni     tau( 108) = (   0.7563139   0.2275682   1.1136128  )
       109        Ni     tau( 109) = (   0.9969120   1.0949007   0.9482637  )
       110        Ni     tau( 110) = (   0.7488318   0.5341111   0.9472032  )
       111        P      tau( 111) = (   0.7076029   0.9882917   1.1106372  )
       112        P      tau( 112) = (   0.9577012   0.6460068   0.7865316  )
       113        P      tau( 113) = (   0.7881931   0.0932770   0.7837574  )
       114        P      tau( 114) = (   0.5392916   0.4238898   1.1104509  )
       115        O      tau( 115) = (   0.6306755   0.9148866   0.9708199  )
       116        O      tau( 116) = (   0.8789780   0.7172835   0.9261101  )
       117        O      tau( 117) = (   0.8654852   0.1662865   0.9239115  )
       118        O      tau( 118) = (   0.6163776   0.3546954   0.9687567  )
       119        O      tau( 119) = (   0.6502901   0.8969129   1.2400160  )
       120        O      tau( 120) = (   0.8974525   0.7354243   0.6571722  )
       121        O      tau( 121) = (   0.8483097   0.1789497   0.6529083  )
       122        O      tau( 122) = (   0.5974932   0.3376387   1.2412670  )
       123        O      tau( 123) = (   0.5984699   0.5818903   1.1060732  )
       124        O      tau( 124) = (   0.8459978   1.0405493   0.7923226  )
       125        O      tau( 125) = (   0.8731719   0.4204123   1.0996198  )
       126        O      tau( 126) = (   0.6223503   0.0989699   0.7941187  )
       127        O      tau( 127) = (   0.6235438   0.6536772   0.7961155  )
       128        O      tau( 128) = (   0.9004339   0.4872435   0.7894508  )
       129        O      tau( 129) = (   0.6476543   0.0398268   1.1069192  )
       130        O      tau( 130) = (   0.8728637   0.9843360   1.1010385  )
       131        Ni     tau( 131) = (   0.7369169   0.8303788   1.4329327  )
       132        Mn     tau( 132) = (   0.9924005   0.7622218   1.7630345  )
       133        Ni     tau( 133) = (   0.5034179   0.2756585   1.4286710  )
       134        Ni     tau( 134) = (   0.7445338   0.2135857   1.7404923  )
       135        Ni     tau( 135) = (   0.9992947   1.0745006   1.5940287  )
       136        Ni     tau( 136) = (   0.7415282   0.5178646   1.5926001  )
       137        P      tau( 137) = (   0.7110408   0.9653555   1.7633289  )
       138        P      tau( 138) = (   0.9541428   0.6272498   1.4343540  )
       139        P      tau( 139) = (   0.7882006   0.0737553   1.4295411  )
       140        P      tau( 140) = (   0.5313065   0.4052692   1.7579671  )
       141        O      tau( 141) = (   0.6299655   0.8889021   1.6239329  )
       142        O      tau( 142) = (   0.8763186   0.7000804   1.5722760  )
       143        O      tau( 143) = (   0.8661823   0.1476707   1.5678971  )
       144        O      tau( 144) = (   0.6092775   0.3424902   1.6091934  )
       145        O      tau( 145) = (   0.6577452   0.8727635   1.8894301  )
       146        O      tau( 146) = (   0.8931487   0.7181693   1.3070025  )
       147        O      tau( 147) = (   0.8501811   0.1623852   1.3009768  )
       148        O      tau( 148) = (   0.5909310   0.3060790   1.8752837  )
       149        O      tau( 149) = (   0.5915698   0.5653327   1.7515015  )
       150        O      tau( 150) = (   0.8456292   1.0209939   1.4372118  )
       151        O      tau( 151) = (   0.8624603   0.3999669   1.7434469  )
       152        O      tau( 152) = (   0.6217882   0.0804133   1.4417608  )
       153        O      tau( 153) = (   0.6203335   0.6358635   1.4429875  )
       154        O      tau( 154) = (   0.8954317   0.4691053   1.4351315  )
       155        O      tau( 155) = (   0.6536438   0.0182650   1.7541421  )
       156        O      tau( 156) = (   0.8777501   0.9608304   1.7456676  )
       157        O      tau( 157) = (   0.3827920   0.6908925   1.9089598  )
       158        H      tau( 158) = (   0.2929182   0.7492246   1.9272249  )

     -------------------------------------------------
     Parameters for Dispersion (Grimme-D2) Correction:
     -------------------------------------------------
       atom      VdW radius       C_6     

        Ni         2.952        374.666
        Mn         2.952        374.666
        P          3.222        271.980
        O          2.536         24.284
        H          1.892          4.857

     number of k points=     1  Gaussian smearing, width (Ry)=  0.0100
                       cart. coord. in units 2pi/alat
        k(    1) = (   0.0000000   0.0000000   0.0000000), wk =   1.0000000

     Dense  grid:  1938023 G-vectors     FFT dimensions: ( 125, 144, 450)

     Smooth grid:   490328 G-vectors     FFT dimensions: (  80,  90, 288)

     Estimated max dynamical RAM per process >     326.29 MB

     Estimated total dynamical RAM >      20.39 GB

     Check: negative core charge=   -0.000001
     Generating pointlists ...
     new r_m :   0.0887 (alat units)  1.5440 (a.u.) for type    1
     new r_m :   0.0790 (alat units)  1.3755 (a.u.) for type    2
     new r_m :   0.0679 (alat units)  1.1824 (a.u.) for type    3
     new r_m :   0.0448 (alat units)  0.7804 (a.u.) for type    4
     new r_m :   0.0448 (alat units)  0.7804 (a.u.) for type    5

     Initial potential from superposition of free atoms

     starting charge    1092.8893, renormalised to    1093.0000

     negative rho (up, down):  1.403E-03 4.526E-04
 
     Adding external electric field

     Computed dipole along edir(3) : 
        Dipole                1.6270 Ry au,          4.1353 Debye
        Dipole field          0.0010 Ry au, 
 
        Potential amp.       -0.1098 Ry
        Total length         55.1515 bohr
 
 
     Adding external electric field

     Computed dipole along edir(3) : 
        Dipole                1.6270 Ry au,          4.1353 Debye
        Dipole field          0.0010 Ry au, 
 
        Potential amp.       -0.1098 Ry
        Total length         55.1515 bohr
 
     Starting wfcs are  815 randomized atomic wfcs

     total cpu time spent up to now is       12.9 secs

     Self-consistent Calculation

     iteration #  1     ecut=    50.00 Ry     beta= 0.10
     Davidson diagonalization with overlap
     ethr =  1.00E-02,  avg # of iterations =  6.0

     negative rho (up, down):  3.815E-01 1.911E-07
 
     Adding external electric field

     Computed dipole along edir(3) : 
        Dipole               -3.2747 Ry au,         -8.3235 Debye
        Dipole field         -0.0020 Ry au, 
 
        Potential amp.        0.2211 Ry
        Total length         55.1515 bohr
 
 
     Adding external electric field

     Computed dipole along edir(3) : 
        Dipole               -3.2747 Ry au,         -8.3235 Debye
        Dipole field         -0.0020 Ry au, 
 
        Potential amp.        0.2211 Ry
        Total length         55.1515 bohr
 

     total cpu time spent up to now is       47.8 secs

     total energy              =   -7516.48125723 Ry
     estimated scf accuracy    <     739.24349797 Ry

     total magnetization       =   219.00 Bohr mag/cell
     absolute magnetization    =   307.70 Bohr mag/cell

     iteration #  2     ecut=    50.00 Ry     beta= 0.10
     Davidson diagonalization with overlap
     ethr =  1.00E-02,  avg # of iterations =  2.0

     negative rho (up, down):  3.589E-01 1.107E-07
 
     Adding external electric field

     Computed dipole along edir(3) : 
        Dipole               -2.2392 Ry au,         -5.6916 Debye
        Dipole field         -0.0014 Ry au, 
 
        Potential amp.        0.1512 Ry
        Total length         55.1515 bohr
 
 
     Adding external electric field

     Computed dipole along edir(3) : 
        Dipole               -2.2392 Ry au,         -5.6916 Debye
        Dipole field         -0.0014 Ry au, 
 
        Potential amp.        0.1512 Ry
        Total length         55.1515 bohr
 

     total cpu time spent up to now is       68.2 secs

     total energy              =   -7601.06386893 Ry
     estimated scf accuracy    <     192.65314287 Ry

     total magnetization       =   160.65 Bohr mag/cell
     absolute magnetization    =   208.64 Bohr mag/cell

     iteration #  3     ecut=    50.00 Ry     beta= 0.10
     Davidson diagonalization with overlap
     ethr =  1.00E-02,  avg # of iterations =  1.5

     negative rho (up, down):  3.197E-01 8.823E-08
 
     Adding external electric field

     Computed dipole along edir(3) : 
        Dipole               -1.9992 Ry au,         -5.0815 Debye
        Dipole field         -0.0012 Ry au, 
 
        Potential amp.        0.1350 Ry
        Total length         55.1515 bohr
 
 
     Adding external electric field

     Computed dipole along edir(3) : 
        Dipole               -1.9992 Ry au,         -5.0815 Debye
        Dipole field         -0.0012 Ry au, 
 
        Potential amp.        0.1350 Ry
        Total length         55.1515 bohr
 

     total cpu time spent up to now is       84.2 secs

     total energy              =   -7630.01744334 Ry
     estimated scf accuracy    <      98.69374032 Ry

     total magnetization       =   136.35 Bohr mag/cell
     absolute magnetization    =   186.89 Bohr mag/cell

     iteration #  4     ecut=    50.00 Ry     beta= 0.10
     Davidson diagonalization with overlap
     ethr =  9.03E-03,  avg # of iterations =  1.0

     negative rho (up, down):  2.438E-01 2.148E-08
 
     Adding external electric field

     Computed dipole along edir(3) : 
        Dipole               -1.8848 Ry au,         -4.7907 Debye
        Dipole field         -0.0012 Ry au, 
 
        Potential amp.        0.1273 Ry
        Total length         55.1515 bohr
 
 
     Adding external electric field

     Computed dipole along edir(3) : 
        Dipole               -1.8848 Ry au,         -4.7907 Debye
        Dipole field         -0.0012 Ry au, 
 
        Potential amp.        0.1273 Ry
        Total length         55.1515 bohr
 

     total cpu time spent up to now is       98.8 secs

     total energy              =   -7665.03237104 Ry
     estimated scf accuracy    <      82.67156256 Ry

     total magnetization       =   120.50 Bohr mag/cell
     absolute magnetization    =   172.77 Bohr mag/cell

     iteration #  5     ecut=    50.00 Ry     beta= 0.10
     Davidson diagonalization with overlap
     ethr =  7.56E-03,  avg # of iterations =  1.5

     negative rho (up, down):  2.411E-02 1.313E-07
 
     Adding external electric field

     Computed dipole along edir(3) : 
        Dipole               -1.5139 Ry au,         -3.8480 Debye
        Dipole field         -0.0009 Ry au, 
 
        Potential amp.        0.1022 Ry
        Total length         55.1515 bohr
 
 
     Adding external electric field

     Computed dipole along edir(3) : 
        Dipole               -1.5139 Ry au,         -3.8480 Debye
        Dipole field         -0.0009 Ry au, 
 
        Potential amp.        0.1022 Ry
        Total length         55.1515 bohr
 

     total cpu time spent up to now is      114.9 secs

     total energy              =   -7723.74695670 Ry
     estimated scf accuracy    <      64.60315789 Ry

     total magnetization       =    97.09 Bohr mag/cell
     absolute magnetization    =   152.84 Bohr mag/cell

     iteration #  6     ecut=    50.00 Ry     beta= 0.10
     Davidson diagonalization with overlap
     ethr =  5.91E-03,  avg # of iterations =  1.5

     negative rho (up, down):  5.185E-04 1.101E-03
 
     Adding external electric field

     Computed dipole along edir(3) : 
        Dipole               -1.2205 Ry au,         -3.1023 Debye
        Dipole field         -0.0007 Ry au, 
 
        Potential amp.        0.0824 Ry
        Total length         55.1515 bohr
 
 
     Adding external electric field

     Computed dipole along edir(3) : 
        Dipole               -1.2205 Ry au,         -3.1023 Debye
        Dipole field         -0.0007 Ry au, 
 
        Potential amp.        0.0824 Ry
        Total length         55.1515 bohr
 

     total cpu time spent up to now is      130.4 secs

     total energy              =   -7735.61300148 Ry
     estimated scf accuracy    <      13.25553115 Ry

     total magnetization       =    91.00 Bohr mag/cell
     absolute magnetization    =   124.85 Bohr mag/cell

     iteration #  7     ecut=    50.00 Ry     beta= 0.10
     Davidson diagonalization with overlap
     ethr =  1.21E-03,  avg # of iterations =  8.5

     negative rho (up, down):  4.970E-04 1.025E-03
 
     Adding external electric field

     Computed dipole along edir(3) : 
        Dipole               -1.2053 Ry au,         -3.0637 Debye
        Dipole field         -0.0007 Ry au, 
 
        Potential amp.        0.0814 Ry
        Total length         55.1515 bohr
 
 
     Adding external electric field

     Computed dipole along edir(3) : 
        Dipole               -1.2053 Ry au,         -3.0637 Debye
        Dipole field         -0.0007 Ry au, 
 
        Potential amp.        0.0814 Ry
        Total length         55.1515 bohr
 

     total cpu time spent up to now is      160.3 secs

     total energy              =   -7738.53796139 Ry
     estimated scf accuracy    <      38.71385488 Ry

     total magnetization       =    63.89 Bohr mag/cell
     absolute magnetization    =    81.66 Bohr mag/cell

     iteration #  8     ecut=    50.00 Ry     beta= 0.10
     Davidson diagonalization with overlap
     ethr =  1.21E-03,  avg # of iterations =  1.0

     negative rho (up, down):  4.284E-04 8.001E-04
 
     Adding external electric field

     Computed dipole along edir(3) : 
        Dipole               -1.1484 Ry au,         -2.9189 Debye
        Dipole field         -0.0007 Ry au, 
 
        Potential amp.        0.0775 Ry
        Total length         55.1515 bohr
 
 
     Adding external electric field

     Computed dipole along edir(3) : 
        Dipole               -1.1484 Ry au,         -2.9189 Debye
        Dipole field         -0.0007 Ry au, 
 
        Potential amp.        0.0775 Ry
        Total length         55.1515 bohr
 

     total cpu time spent up to now is      174.4 secs

     total energy              =   -7738.44997554 Ry
     estimated scf accuracy    <      35.47456353 Ry

     total magnetization       =    65.11 Bohr mag/cell
     absolute magnetization    =    82.46 Bohr mag/cell

     iteration #  9     ecut=    50.00 Ry     beta= 0.10
     Davidson diagonalization with overlap
     ethr =  1.21E-03,  avg # of iterations =  1.0

     negative rho (up, down):  2.824E-04 5.533E-04
 
     Adding external electric field

     Computed dipole along edir(3) : 
        Dipole               -1.0362 Ry au,         -2.6337 Debye
        Dipole field         -0.0006 Ry au, 
 
        Potential amp.        0.0700 Ry
        Total length         55.1515 bohr
 
 
     Adding external electric field

     Computed dipole along edir(3) : 
        Dipole               -1.0362 Ry au,         -2.6337 Debye
        Dipole field         -0.0006 Ry au, 
 
        Potential amp.        0.0700 Ry
        Total length         55.1515 bohr
 

     total cpu time spent up to now is      187.5 secs

     total energy              =   -7738.29745288 Ry
     estimated scf accuracy    <      28.74096633 Ry

     total magnetization       =    67.11 Bohr mag/cell
     absolute magnetization    =    83.74 Bohr mag/cell

     iteration # 10     ecut=    50.00 Ry     beta= 0.10
     Davidson diagonalization with overlap
     ethr =  1.21E-03,  avg # of iterations =  1.0

     negative rho (up, down):  3.179E-04 6.091E-04
 
     Adding external electric field

     Computed dipole along edir(3) : 
        Dipole               -1.0568 Ry au,         -2.6861 Debye
        Dipole field         -0.0006 Ry au, 
 
        Potential amp.        0.0714 Ry
        Total length         55.1515 bohr
 
 
     Adding external electric field

     Computed dipole along edir(3) : 
        Dipole               -1.0568 Ry au,         -2.6861 Debye
        Dipole field         -0.0006 Ry au, 
 
        Potential amp.        0.0714 Ry
        Total length         55.1515 bohr
 

     total cpu time spent up to now is      199.4 secs

     total energy              =   -7738.41559978 Ry
     estimated scf accuracy    <      20.85405065 Ry

     total magnetization       =    69.06 Bohr mag/cell
     absolute magnetization    =    84.24 Bohr mag/cell

     iteration # 11     ecut=    50.00 Ry     beta= 0.10
     Davidson diagonalization with overlap
     ethr =  1.21E-03,  avg # of iterations =  1.0

     negative rho (up, down):  2.129E-04 6.027E-04
 
     Adding external electric field

     Computed dipole along edir(3) : 
        Dipole               -0.9791 Ry au,         -2.4886 Debye
        Dipole field         -0.0006 Ry au, 
 
        Potential amp.        0.0661 Ry
        Total length         55.1515 bohr
 
 
     Adding external electric field

     Computed dipole along edir(3) : 
        Dipole               -0.9791 Ry au,         -2.4886 Debye
        Dipole field         -0.0006 Ry au, 
 
        Potential amp.        0.0661 Ry
        Total length         55.1515 bohr
 

     total cpu time spent up to now is      211.2 secs

     total energy              =   -7737.99444961 Ry
     estimated scf accuracy    <      22.73277615 Ry

     total magnetization       =    68.63 Bohr mag/cell
     absolute magnetization    =    83.94 Bohr mag/cell

     iteration # 12     ecut=    50.00 Ry     beta= 0.10
     Davidson diagonalization with overlap
     ethr =  1.21E-03,  avg # of iterations =  1.0

     negative rho (up, down):  1.780E-04 6.343E-04
 
     Adding external electric field

     Computed dipole along edir(3) : 
        Dipole               -0.8819 Ry au,         -2.2415 Debye
        Dipole field         -0.0005 Ry au, 
 
        Potential amp.        0.0595 Ry
        Total length         55.1515 bohr
 
 
     Adding external electric field

     Computed dipole along edir(3) : 
        Dipole               -0.8819 Ry au,         -2.2415 Debye
        Dipole field         -0.0005 Ry au, 
 
        Potential amp.        0.0595 Ry
        Total length         55.1515 bohr
 

     total cpu time spent up to now is      223.1 secs

     total energy              =   -7737.98803374 Ry
     estimated scf accuracy    <      10.33658683 Ry

     total magnetization       =    75.09 Bohr mag/cell
     absolute magnetization    =    87.57 Bohr mag/cell

     iteration # 13     ecut=    50.00 Ry     beta= 0.10
     Davidson diagonalization with overlap
     ethr =  9.46E-04,  avg # of iterations =  1.0

     negative rho (up, down):  3.356E-04 9.918E-04
 
     Adding external electric field

     Computed dipole along edir(3) : 
        Dipole               -0.7773 Ry au,         -1.9757 Debye
        Dipole field         -0.0005 Ry au, 
 
        Potential amp.        0.0525 Ry
        Total length         55.1515 bohr
 
 
     Adding external electric field

     Computed dipole along edir(3) : 
        Dipole               -0.7773 Ry au,         -1.9757 Debye
        Dipole field         -0.0005 Ry au, 
 
        Potential amp.        0.0525 Ry
        Total length         55.1515 bohr
 

     total cpu time spent up to now is      235.1 secs

     total energy              =   -7738.03115433 Ry
     estimated scf accuracy    <       4.69719573 Ry

     total magnetization       =    80.63 Bohr mag/cell
     absolute magnetization    =    90.98 Bohr mag/cell

     iteration # 14     ecut=    50.00 Ry     beta= 0.10
     Davidson diagonalization with overlap
     ethr =  4.30E-04,  avg # of iterations =  1.0

     negative rho (up, down):  5.730E-04 8.583E-04
 
     Adding external electric field

     Computed dipole along edir(3) : 
        Dipole               -0.6907 Ry au,         -1.7557 Debye
        Dipole field         -0.0004 Ry au, 
 
        Potential amp.        0.0466 Ry
        Total length         55.1515 bohr
 
 
     Adding external electric field

     Computed dipole along edir(3) : 
        Dipole               -0.6907 Ry au,         -1.7557 Debye
        Dipole field         -0.0004 Ry au, 
 
        Potential amp.        0.0466 Ry
        Total length         55.1515 bohr
 

     total cpu time spent up to now is      247.9 secs

     total energy              =   -7738.11279469 Ry
     estimated scf accuracy    <       1.84771737 Ry

     total magnetization       =    84.38 Bohr mag/cell
     absolute magnetization    =    93.06 Bohr mag/cell

     iteration # 15     ecut=    50.00 Ry     beta= 0.10
     Davidson diagonalization with overlap
     ethr =  1.69E-04,  avg # of iterations =  2.5

     negative rho (up, down):  3.604E-04 4.265E-04
 
     Adding external electric field

     Computed dipole along edir(3) : 
        Dipole               -0.6759 Ry au,         -1.7179 Debye
        Dipole field         -0.0004 Ry au, 
 
        Potential amp.        0.0456 Ry
        Total length         55.1515 bohr
 
 
     Adding external electric field

     Computed dipole along edir(3) : 
        Dipole               -0.6759 Ry au,         -1.7179 Debye
        Dipole field         -0.0004 Ry au, 
 
        Potential amp.        0.0456 Ry
        Total length         55.1515 bohr
 

     total cpu time spent up to now is      263.0 secs

     total energy              =   -7738.13581535 Ry
     estimated scf accuracy    <       0.95967245 Ry

     total magnetization       =    87.94 Bohr mag/cell
     absolute magnetization    =    95.42 Bohr mag/cell

     iteration # 16     ecut=    50.00 Ry     beta= 0.10
     Davidson diagonalization with overlap
     ethr =  8.78E-05,  avg # of iterations =  2.0

     negative rho (up, down):  2.946E-04 2.737E-04
 
     Adding external electric field

     Computed dipole along edir(3) : 
        Dipole               -0.6779 Ry au,         -1.7231 Debye
        Dipole field         -0.0004 Ry au, 
 
        Potential amp.        0.0458 Ry
        Total length         55.1515 bohr
 
 
     Adding external electric field

     Computed dipole along edir(3) : 
        Dipole               -0.6779 Ry au,         -1.7231 Debye
        Dipole field         -0.0004 Ry au, 
 
        Potential amp.        0.0458 Ry
        Total length         55.1515 bohr
 

     total cpu time spent up to now is      277.6 secs

     total energy              =   -7738.13725931 Ry
     estimated scf accuracy    <       0.98481143 Ry

     total magnetization       =    87.06 Bohr mag/cell
     absolute magnetization    =    94.66 Bohr mag/cell

     iteration # 17     ecut=    50.00 Ry     beta= 0.10
     Davidson diagonalization with overlap
     ethr =  8.78E-05,  avg # of iterations =  1.5

     negative rho (up, down):  4.087E-04 4.081E-04
 
     Adding external electric field

     Computed dipole along edir(3) : 
        Dipole               -0.6602 Ry au,         -1.6780 Debye
        Dipole field         -0.0004 Ry au, 
 
        Potential amp.        0.0446 Ry
        Total length         55.1515 bohr
 
 
     Adding external electric field

     Computed dipole along edir(3) : 
        Dipole               -0.6602 Ry au,         -1.6780 Debye
        Dipole field         -0.0004 Ry au, 
 
        Potential amp.        0.0446 Ry
        Total length         55.1515 bohr
 

     total cpu time spent up to now is      291.5 secs

     total energy              =   -7738.18180418 Ry
     estimated scf accuracy    <       0.95245888 Ry

     total magnetization       =    86.96 Bohr mag/cell
     absolute magnetization    =    94.69 Bohr mag/cell

     iteration # 18     ecut=    50.00 Ry     beta= 0.10
     Davidson diagonalization with overlap
     ethr =  8.71E-05,  avg # of iterations =  7.0

     negative rho (up, down):  4.726E-05 4.044E-05
 
     Adding external electric field

     Computed dipole along edir(3) : 
        Dipole               -0.4538 Ry au,         -1.1533 Debye
        Dipole field         -0.0003 Ry au, 
 
        Potential amp.        0.0306 Ry
        Total length         55.1515 bohr
 
 
     Adding external electric field

     Computed dipole along edir(3) : 
        Dipole               -0.4538 Ry au,         -1.1533 Debye
        Dipole field         -0.0003 Ry au, 
 
        Potential amp.        0.0306 Ry
        Total length         55.1515 bohr
 

     total cpu time spent up to now is      309.5 secs

     total energy              =   -7738.29204995 Ry
     estimated scf accuracy    <       0.85955694 Ry

     total magnetization       =    88.32 Bohr mag/cell
     absolute magnetization    =    95.48 Bohr mag/cell

     iteration # 19     ecut=    50.00 Ry     beta= 0.10
     Davidson diagonalization with overlap
     ethr =  7.86E-05,  avg # of iterations =  2.0

     negative rho (up, down):  4.085E-05 3.641E-05
 
     Adding external electric field

     Computed dipole along edir(3) : 
        Dipole               -0.4590 Ry au,         -1.1667 Debye
        Dipole field         -0.0003 Ry au, 
 
        Potential amp.        0.0310 Ry
        Total length         55.1515 bohr
 
 
     Adding external electric field

     Computed dipole along edir(3) : 
        Dipole               -0.4590 Ry au,         -1.1667 Debye
        Dipole field         -0.0003 Ry au, 
 
        Potential amp.        0.0310 Ry
        Total length         55.1515 bohr
 

     total cpu time spent up to now is      324.2 secs

     total energy              =   -7738.33223369 Ry
     estimated scf accuracy    <       1.77920938 Ry

     total magnetization       =    86.49 Bohr mag/cell
     absolute magnetization    =    91.06 Bohr mag/cell

     iteration # 20     ecut=    50.00 Ry     beta= 0.10
     Davidson diagonalization with overlap
     ethr =  7.86E-05,  avg # of iterations =  1.5

     negative rho (up, down):  4.573E-05 3.461E-05
 
     Adding external electric field

     Computed dipole along edir(3) : 
        Dipole               -0.6401 Ry au,         -1.6269 Debye
        Dipole field         -0.0004 Ry au, 
 
        Potential amp.        0.0432 Ry
        Total length         55.1515 bohr
 
 
     Adding external electric field

     Computed dipole along edir(3) : 
        Dipole               -0.6401 Ry au,         -1.6269 Debye
        Dipole field         -0.0004 Ry au, 
 
        Potential amp.        0.0432 Ry
        Total length         55.1515 bohr
 

     total cpu time spent up to now is      337.3 secs

     total energy              =   -7738.29625263 Ry
     estimated scf accuracy    <       1.79945927 Ry

     total magnetization       =    86.43 Bohr mag/cell
     absolute magnetization    =    90.86 Bohr mag/cell

     iteration # 21     ecut=    50.00 Ry     beta= 0.10
     Davidson diagonalization with overlap
     ethr =  7.86E-05,  avg # of iterations =  1.5

     negative rho (up, down):  8.854E-04 5.630E-04
 
     Adding external electric field

     Computed dipole along edir(3) : 
        Dipole               -0.7691 Ry au,         -1.9549 Debye
        Dipole field         -0.0005 Ry au, 
 
        Potential amp.        0.0519 Ry
        Total length         55.1515 bohr
 
 
     Adding external electric field

     Computed dipole along edir(3) : 
        Dipole               -0.7691 Ry au,         -1.9549 Debye
        Dipole field         -0.0005 Ry au, 
 
        Potential amp.        0.0519 Ry
        Total length         55.1515 bohr
 

     total cpu time spent up to now is      351.8 secs

     total energy              =   -7738.33916042 Ry
     estimated scf accuracy    <       0.70181159 Ry

     total magnetization       =    86.02 Bohr mag/cell
     absolute magnetization    =    90.44 Bohr mag/cell

     iteration # 22     ecut=    50.00 Ry     beta= 0.10
     Davidson diagonalization with overlap
     ethr =  6.42E-05,  avg # of iterations =  2.0

     negative rho (up, down):  1.474E-04 7.481E-05
 
     Adding external electric field

     Computed dipole along edir(3) : 
        Dipole               -0.6543 Ry au,         -1.6631 Debye
        Dipole field         -0.0004 Ry au, 
 
        Potential amp.        0.0442 Ry
        Total length         55.1515 bohr
 
 
     Adding external electric field

     Computed dipole along edir(3) : 
        Dipole               -0.6543 Ry au,         -1.6631 Debye
        Dipole field         -0.0004 Ry au, 
 
        Potential amp.        0.0442 Ry
        Total length         55.1515 bohr
 

     total cpu time spent up to now is      366.9 secs

     total energy              =   -7738.32567555 Ry
     estimated scf accuracy    <       2.43251619 Ry

     total magnetization       =    84.95 Bohr mag/cell
     absolute magnetization    =    88.39 Bohr mag/cell

     iteration # 23     ecut=    50.00 Ry     beta= 0.10
     Davidson diagonalization with overlap
     ethr =  6.42E-05,  avg # of iterations =  1.5

     negative rho (up, down):  4.180E-04 2.008E-04
 
     Adding external electric field

     Computed dipole along edir(3) : 
        Dipole               -0.7734 Ry au,         -1.9659 Debye
        Dipole field         -0.0005 Ry au, 
 
        Potential amp.        0.0522 Ry
        Total length         55.1515 bohr
 
 
     Adding external electric field

     Computed dipole along edir(3) : 
        Dipole               -0.7734 Ry au,         -1.9659 Debye
        Dipole field         -0.0005 Ry au, 
 
        Potential amp.        0.0522 Ry
        Total length         55.1515 bohr
 

     total cpu time spent up to now is      380.6 secs

     total energy              =   -7738.30203611 Ry
     estimated scf accuracy    <       0.57636240 Ry

     total magnetization       =    86.63 Bohr mag/cell
     absolute magnetization    =    89.97 Bohr mag/cell

     iteration # 24     ecut=    50.00 Ry     beta= 0.10
     Davidson diagonalization with overlap
     ethr =  5.27E-05,  avg # of iterations =  2.5

     negative rho (up, down):  5.215E-04 6.278E-04
 
     Adding external electric field

     Computed dipole along edir(3) : 
        Dipole               -0.7253 Ry au,         -1.8434 Debye
        Dipole field         -0.0004 Ry au, 
 
        Potential amp.        0.0490 Ry
        Total length         55.1515 bohr
 
 
     Adding external electric field

     Computed dipole along edir(3) : 
        Dipole               -0.7253 Ry au,         -1.8434 Debye
        Dipole field         -0.0004 Ry au, 
 
        Potential amp.        0.0490 Ry
        Total length         55.1515 bohr
 

     total cpu time spent up to now is      395.8 secs

     total energy              =   -7738.30864527 Ry
     estimated scf accuracy    <       1.06330884 Ry

     total magnetization       =    85.54 Bohr mag/cell
     absolute magnetization    =    89.34 Bohr mag/cell

     iteration # 25     ecut=    50.00 Ry     beta= 0.10
     Davidson diagonalization with overlap
     ethr =  5.27E-05,  avg # of iterations =  2.0

     negative rho (up, down):  3.001E-04 3.263E-04
 
     Adding external electric field

     Computed dipole along edir(3) : 
        Dipole               -0.6955 Ry au,         -1.7679 Debye
        Dipole field         -0.0004 Ry au, 
 
        Potential amp.        0.0470 Ry
        Total length         55.1515 bohr
 
 
     Adding external electric field

     Computed dipole along edir(3) : 
        Dipole               -0.6955 Ry au,         -1.7679 Debye
        Dipole field         -0.0004 Ry au, 
 
        Potential amp.        0.0470 Ry
        Total length         55.1515 bohr
 

     total cpu time spent up to now is      410.4 secs

     total energy              =   -7738.32066716 Ry
     estimated scf accuracy    <       0.54772819 Ry

     total magnetization       =    85.59 Bohr mag/cell
     absolute magnetization    =    88.61 Bohr mag/cell

     iteration # 26     ecut=    50.00 Ry     beta= 0.10
     Davidson diagonalization with overlap
     ethr =  5.01E-05,  avg # of iterations =  2.0

     negative rho (up, down):  4.432E-04 7.978E-04
 
     Adding external electric field

     Computed dipole along edir(3) : 
        Dipole               -0.6500 Ry au,         -1.6522 Debye
        Dipole field         -0.0004 Ry au, 
 
        Potential amp.        0.0439 Ry
        Total length         55.1515 bohr
 
 
     Adding external electric field

     Computed dipole along edir(3) : 
        Dipole               -0.6500 Ry au,         -1.6522 Debye
        Dipole field         -0.0004 Ry au, 
 
        Potential amp.        0.0439 Ry
        Total length         55.1515 bohr
 

     total cpu time spent up to now is      424.5 secs

     total energy              =   -7738.33565728 Ry
     estimated scf accuracy    <       0.17885047 Ry

     total magnetization       =    86.79 Bohr mag/cell
     absolute magnetization    =    89.70 Bohr mag/cell

     iteration # 27     ecut=    50.00 Ry     beta= 0.10
     Davidson diagonalization with overlap
     c_bands:  3 eigenvalues not converged
     ethr =  1.64E-05,  avg # of iterations = 19.5

     negative rho (up, down):  2.279E-04 5.984E-04
 
     Adding external electric field

     Computed dipole along edir(3) : 
        Dipole               -0.6311 Ry au,         -1.6041 Debye
        Dipole field         -0.0004 Ry au, 
 
        Potential amp.        0.0426 Ry
        Total length         55.1515 bohr
 
 
     Adding external electric field

     Computed dipole along edir(3) : 
        Dipole               -0.6311 Ry au,         -1.6041 Debye
        Dipole field         -0.0004 Ry au, 
 
        Potential amp.        0.0426 Ry
        Total length         55.1515 bohr
 

     total cpu time spent up to now is      454.1 secs

     total energy              =   -7738.33891958 Ry
     estimated scf accuracy    <       0.20355991 Ry

     total magnetization       =    85.68 Bohr mag/cell
     absolute magnetization    =    87.74 Bohr mag/cell

     iteration # 28     ecut=    50.00 Ry     beta= 0.10
     Davidson diagonalization with overlap
     ethr =  1.64E-05,  avg # of iterations = 11.5

     negative rho (up, down):  1.263E-04 4.788E-04
 
     Adding external electric field

     Computed dipole along edir(3) : 
        Dipole               -0.6125 Ry au,         -1.5568 Debye
        Dipole field         -0.0004 Ry au, 
 
        Potential amp.        0.0414 Ry
        Total length         55.1515 bohr
 
 
     Adding external electric field

     Computed dipole along edir(3) : 
        Dipole               -0.6125 Ry au,         -1.5568 Debye
        Dipole field         -0.0004 Ry au, 
 
        Potential amp.        0.0414 Ry
        Total length         55.1515 bohr
 

     total cpu time spent up to now is      480.6 secs

     total energy              =   -7738.33592057 Ry
     estimated scf accuracy    <       0.13405946 Ry

     total magnetization       =    85.88 Bohr mag/cell
     absolute magnetization    =    87.93 Bohr mag/cell

     iteration # 29     ecut=    50.00 Ry     beta= 0.10
     Davidson diagonalization with overlap
     ethr =  1.23E-05,  avg # of iterations =  1.5

     negative rho (up, down):  8.478E-05 3.859E-04
 
     Adding external electric field

     Computed dipole along edir(3) : 
        Dipole               -0.5559 Ry au,         -1.4130 Debye
        Dipole field         -0.0003 Ry au, 
 
        Potential amp.        0.0375 Ry
        Total length         55.1515 bohr
 
 
     Adding external electric field

     Computed dipole along edir(3) : 
        Dipole               -0.5559 Ry au,         -1.4130 Debye
        Dipole field         -0.0003 Ry au, 
 
        Potential amp.        0.0375 Ry
        Total length         55.1515 bohr
 

     total cpu time spent up to now is      494.8 secs

     total energy              =   -7738.33915037 Ry
     estimated scf accuracy    <       0.09155534 Ry

     total magnetization       =    86.22 Bohr mag/cell
     absolute magnetization    =    88.29 Bohr mag/cell

     iteration # 30     ecut=    50.00 Ry     beta= 0.10
     Davidson diagonalization with overlap
     c_bands:  1 eigenvalues not converged
     ethr =  8.38E-06,  avg # of iterations = 10.5

     negative rho (up, down):  1.087E-04 3.125E-04
 
     Adding external electric field

     Computed dipole along edir(3) : 
        Dipole               -0.5308 Ry au,         -1.3492 Debye
        Dipole field         -0.0003 Ry au, 
 
        Potential amp.        0.0358 Ry
        Total length         55.1515 bohr
 
 
     Adding external electric field

     Computed dipole along edir(3) : 
        Dipole               -0.5308 Ry au,         -1.3492 Debye
        Dipole field         -0.0003 Ry au, 
 
        Potential amp.        0.0358 Ry
        Total length         55.1515 bohr
 

     total cpu time spent up to now is      514.0 secs

     total energy              =   -7738.34526746 Ry
     estimated scf accuracy    <       0.09285622 Ry

     total magnetization       =    86.29 Bohr mag/cell
     absolute magnetization    =    88.30 Bohr mag/cell

     iteration # 31     ecut=    50.00 Ry     beta= 0.10
     Davidson diagonalization with overlap
     ethr =  8.38E-06,  avg # of iterations =  8.0

     negative rho (up, down):  6.759E-05 1.137E-04
 
     Adding external electric field

     Computed dipole along edir(3) : 
        Dipole               -0.3492 Ry au,         -0.8876 Debye
        Dipole field         -0.0002 Ry au, 
 
        Potential amp.        0.0236 Ry
        Total length         55.1515 bohr
 
 
     Adding external electric field

     Computed dipole along edir(3) : 
        Dipole               -0.3492 Ry au,         -0.8876 Debye
        Dipole field         -0.0002 Ry au, 
 
        Potential amp.        0.0236 Ry
        Total length         55.1515 bohr
 

     total cpu time spent up to now is      531.8 secs

     total energy              =   -7738.34949687 Ry
     estimated scf accuracy    <       0.03799615 Ry

     total magnetization       =    86.90 Bohr mag/cell
     absolute magnetization    =    88.80 Bohr mag/cell

     iteration # 32     ecut=    50.00 Ry     beta= 0.10
     Davidson diagonalization with overlap
     c_bands:  3 eigenvalues not converged
     ethr =  3.48E-06,  avg # of iterations = 11.5

     negative rho (up, down):  5.679E-05 5.630E-05
 
     Adding external electric field

     Computed dipole along edir(3) : 
        Dipole               -0.3046 Ry au,         -0.7743 Debye
        Dipole field         -0.0002 Ry au, 
 
        Potential amp.        0.0206 Ry
        Total length         55.1515 bohr
 
 
     Adding external electric field

     Computed dipole along edir(3) : 
        Dipole               -0.3046 Ry au,         -0.7743 Debye
        Dipole field         -0.0002 Ry au, 
 
        Potential amp.        0.0206 Ry
        Total length         55.1515 bohr
 

     total cpu time spent up to now is      556.7 secs

     total energy              =   -7738.35274160 Ry
     estimated scf accuracy    <       0.03147638 Ry

     total magnetization       =    87.20 Bohr mag/cell
     absolute magnetization    =    88.73 Bohr mag/cell

     iteration # 33     ecut=    50.00 Ry     beta= 0.10
     Davidson diagonalization with overlap
     ethr =  2.88E-06,  avg # of iterations =  7.0

     negative rho (up, down):  5.581E-05 6.346E-05
 
     Adding external electric field

     Computed dipole along edir(3) : 
        Dipole               -0.3101 Ry au,         -0.7883 Debye
        Dipole field         -0.0002 Ry au, 
 
        Potential amp.        0.0209 Ry
        Total length         55.1515 bohr
 
 
     Adding external electric field

     Computed dipole along edir(3) : 
        Dipole               -0.3101 Ry au,         -0.7883 Debye
        Dipole field         -0.0002 Ry au, 
 
        Potential amp.        0.0209 Ry
        Total length         55.1515 bohr
 

     total cpu time spent up to now is      573.7 secs

     total energy              =   -7738.35293362 Ry
     estimated scf accuracy    <       0.03531321 Ry

     total magnetization       =    87.20 Bohr mag/cell
     absolute magnetization    =    88.73 Bohr mag/cell

     iteration # 34     ecut=    50.00 Ry     beta= 0.10
     Davidson diagonalization with overlap
     ethr =  2.88E-06,  avg # of iterations =  1.5

     negative rho (up, down):  6.066E-05 6.089E-05
 
     Adding external electric field

     Computed dipole along edir(3) : 
        Dipole               -0.2852 Ry au,         -0.7248 Debye
        Dipole field         -0.0002 Ry au, 
 
        Potential amp.        0.0193 Ry
        Total length         55.1515 bohr
 
 
     Adding external electric field

     Computed dipole along edir(3) : 
        Dipole               -0.2852 Ry au,         -0.7248 Debye
        Dipole field         -0.0002 Ry au, 
 
        Potential amp.        0.0193 Ry
        Total length         55.1515 bohr
 

     total cpu time spent up to now is      587.7 secs

     total energy              =   -7738.35298562 Ry
     estimated scf accuracy    <       0.03843021 Ry

     total magnetization       =    87.23 Bohr mag/cell
     absolute magnetization    =    88.72 Bohr mag/cell

     iteration # 35     ecut=    50.00 Ry     beta= 0.10
     Davidson diagonalization with overlap
     ethr =  2.88E-06,  avg # of iterations =  2.0

     negative rho (up, down):  1.307E-04 1.678E-04
 
     Adding external electric field

     Computed dipole along edir(3) : 
        Dipole               -0.2280 Ry au,         -0.5795 Debye
        Dipole field         -0.0001 Ry au, 
 
        Potential amp.        0.0154 Ry
        Total length         55.1515 bohr
 
 
     Adding external electric field

     Computed dipole along edir(3) : 
        Dipole               -0.2280 Ry au,         -0.5795 Debye
        Dipole field         -0.0001 Ry au, 
 
        Potential amp.        0.0154 Ry
        Total length         55.1515 bohr
 

     total cpu time spent up to now is      602.5 secs

     total energy              =   -7738.35155214 Ry
     estimated scf accuracy    <       0.03650669 Ry

     total magnetization       =    87.23 Bohr mag/cell
     absolute magnetization    =    88.72 Bohr mag/cell

     iteration # 36     ecut=    50.00 Ry     beta= 0.10
     Davidson diagonalization with overlap
     ethr =  2.88E-06,  avg # of iterations =  1.5

     negative rho (up, down):  1.076E-04 1.481E-04
 
     Adding external electric field

     Computed dipole along edir(3) : 
        Dipole               -0.2497 Ry au,         -0.6347 Debye
        Dipole field         -0.0002 Ry au, 
 
        Potential amp.        0.0169 Ry
        Total length         55.1515 bohr
 
 
     Adding external electric field

     Computed dipole along edir(3) : 
        Dipole               -0.2497 Ry au,         -0.6347 Debye
        Dipole field         -0.0002 Ry au, 
 
        Potential amp.        0.0169 Ry
        Total length         55.1515 bohr
 

     total cpu time spent up to now is      616.5 secs

     total energy              =   -7738.35165051 Ry
     estimated scf accuracy    <       0.03633410 Ry

     total magnetization       =    87.05 Bohr mag/cell
     absolute magnetization    =    88.58 Bohr mag/cell

     iteration # 37     ecut=    50.00 Ry     beta= 0.10
     Davidson diagonalization with overlap
     ethr =  2.88E-06,  avg # of iterations =  1.0

     negative rho (up, down):  9.250E-05 9.799E-05
 
     Adding external electric field

     Computed dipole along edir(3) : 
        Dipole               -0.3383 Ry au,         -0.8598 Debye
        Dipole field         -0.0002 Ry au, 
 
        Potential amp.        0.0228 Ry
        Total length         55.1515 bohr
 
 
     Adding external electric field

     Computed dipole along edir(3) : 
        Dipole               -0.3383 Ry au,         -0.8598 Debye
        Dipole field         -0.0002 Ry au, 
 
        Potential amp.        0.0228 Ry
        Total length         55.1515 bohr
 

     total cpu time spent up to now is      630.0 secs

     total energy              =   -7738.35270798 Ry
     estimated scf accuracy    <       0.03716395 Ry

     total magnetization       =    87.07 Bohr mag/cell
     absolute magnetization    =    88.61 Bohr mag/cell

     iteration # 38     ecut=    50.00 Ry     beta= 0.10
     Davidson diagonalization with overlap
     ethr =  2.88E-06,  avg # of iterations =  1.0

     negative rho (up, down):  1.462E-04 1.740E-04
 
     Adding external electric field

     Computed dipole along edir(3) : 
        Dipole               -0.1956 Ry au,         -0.4972 Debye
        Dipole field         -0.0001 Ry au, 
 
        Potential amp.        0.0132 Ry
        Total length         55.1515 bohr
 
 
     Adding external electric field

     Computed dipole along edir(3) : 
        Dipole               -0.1956 Ry au,         -0.4972 Debye
        Dipole field         -0.0001 Ry au, 
 
        Potential amp.        0.0132 Ry
        Total length         55.1515 bohr
 

     total cpu time spent up to now is      643.1 secs

     total energy              =   -7738.35020042 Ry
     estimated scf accuracy    <       0.03279854 Ry

     total magnetization       =    87.14 Bohr mag/cell
     absolute magnetization    =    88.71 Bohr mag/cell

     iteration # 39     ecut=    50.00 Ry     beta= 0.10
     Davidson diagonalization with overlap
     ethr =  2.88E-06,  avg # of iterations =  2.0

     negative rho (up, down):  1.051E-04 1.482E-04
 
     Adding external electric field

     Computed dipole along edir(3) : 
        Dipole               -0.2131 Ry au,         -0.5415 Debye
        Dipole field         -0.0001 Ry au, 
 
        Potential amp.        0.0144 Ry
        Total length         55.1515 bohr
 
 
     Adding external electric field

     Computed dipole along edir(3) : 
        Dipole               -0.2131 Ry au,         -0.5415 Debye
        Dipole field         -0.0001 Ry au, 
 
        Potential amp.        0.0144 Ry
        Total length         55.1515 bohr
 

     total cpu time spent up to now is      658.0 secs

     total energy              =   -7738.35004542 Ry
     estimated scf accuracy    <       0.03451609 Ry

     total magnetization       =    87.12 Bohr mag/cell
     absolute magnetization    =    88.81 Bohr mag/cell

     iteration # 40     ecut=    50.00 Ry     beta= 0.10
     Davidson diagonalization with overlap
     ethr =  2.88E-06,  avg # of iterations =  1.0

     negative rho (up, down):  1.399E-04 1.430E-04
 
     Adding external electric field

     Computed dipole along edir(3) : 
        Dipole               -0.2634 Ry au,         -0.6695 Debye
        Dipole field         -0.0002 Ry au, 
 
        Potential amp.        0.0178 Ry
        Total length         55.1515 bohr
 
 
     Adding external electric field

     Computed dipole along edir(3) : 
        Dipole               -0.2634 Ry au,         -0.6695 Debye
        Dipole field         -0.0002 Ry au, 
 
        Potential amp.        0.0178 Ry
        Total length         55.1515 bohr
 

     total cpu time spent up to now is      671.7 secs

     total energy              =   -7738.35138286 Ry
     estimated scf accuracy    <       0.03335256 Ry

     total magnetization       =    87.09 Bohr mag/cell
     absolute magnetization    =    88.83 Bohr mag/cell

     iteration # 41     ecut=    50.00 Ry     beta= 0.10
     Davidson diagonalization with overlap
     ethr =  2.88E-06,  avg # of iterations =  1.0

     negative rho (up, down):  2.404E-04 2.067E-04
 
     Adding external electric field

     Computed dipole along edir(3) : 
        Dipole               -0.2771 Ry au,         -0.7044 Debye
        Dipole field         -0.0002 Ry au, 
 
        Potential amp.        0.0187 Ry
        Total length         55.1515 bohr
 
 
     Adding external electric field

     Computed dipole along edir(3) : 
        Dipole               -0.2771 Ry au,         -0.7044 Debye
        Dipole field         -0.0002 Ry au, 
 
        Potential amp.        0.0187 Ry
        Total length         55.1515 bohr
 

     total cpu time spent up to now is      684.7 secs

     total energy              =   -7738.35115494 Ry
     estimated scf accuracy    <       0.02999191 Ry

     total magnetization       =    87.16 Bohr mag/cell
     absolute magnetization    =    88.82 Bohr mag/cell

     iteration # 42     ecut=    50.00 Ry     beta= 0.10
     Davidson diagonalization with overlap
     ethr =  2.74E-06,  avg # of iterations =  1.0

     negative rho (up, down):  1.273E-04 1.297E-04
 
     Adding external electric field

     Computed dipole along edir(3) : 
        Dipole               -0.2717 Ry au,         -0.6905 Debye
        Dipole field         -0.0002 Ry au, 
 
        Potential amp.        0.0183 Ry
        Total length         55.1515 bohr
 
 
     Adding external electric field

     Computed dipole along edir(3) : 
        Dipole               -0.2717 Ry au,         -0.6905 Debye
        Dipole field         -0.0002 Ry au, 
 
        Potential amp.        0.0183 Ry
        Total length         55.1515 bohr
 

     total cpu time spent up to now is      698.3 secs

     total energy              =   -7738.35166529 Ry
     estimated scf accuracy    <       0.03551171 Ry

     total magnetization       =    87.15 Bohr mag/cell
     absolute magnetization    =    88.76 Bohr mag/cell

     iteration # 43     ecut=    50.00 Ry     beta= 0.10
     Davidson diagonalization with overlap
     ethr =  2.74E-06,  avg # of iterations =  1.0

     negative rho (up, down):  9.249E-05 9.658E-05
 
     Adding external electric field

     Computed dipole along edir(3) : 
        Dipole               -0.2179 Ry au,         -0.5540 Debye
        Dipole field         -0.0001 Ry au, 
 
        Potential amp.        0.0147 Ry
        Total length         55.1515 bohr
 
 
     Adding external electric field

     Computed dipole along edir(3) : 
        Dipole               -0.2179 Ry au,         -0.5540 Debye
        Dipole field         -0.0001 Ry au, 
 
        Potential amp.        0.0147 Ry
        Total length         55.1515 bohr
 

     total cpu time spent up to now is      711.4 secs

     total energy              =   -7738.35175250 Ry
     estimated scf accuracy    <       0.03065675 Ry

     total magnetization       =    87.10 Bohr mag/cell
     absolute magnetization    =    88.72 Bohr mag/cell

     iteration # 44     ecut=    50.00 Ry     beta= 0.10
     Davidson diagonalization with overlap
     ethr =  2.74E-06,  avg # of iterations =  1.0

     negative rho (up, down):  8.589E-05 8.747E-05
 
     Adding external electric field

     Computed dipole along edir(3) : 
        Dipole               -0.2164 Ry au,         -0.5502 Debye
        Dipole field         -0.0001 Ry au, 
 
        Potential amp.        0.0146 Ry
        Total length         55.1515 bohr
 
 
     Adding external electric field

     Computed dipole along edir(3) : 
        Dipole               -0.2164 Ry au,         -0.5502 Debye
        Dipole field         -0.0001 Ry au, 
 
        Potential amp.        0.0146 Ry
        Total length         55.1515 bohr
 

     total cpu time spent up to now is      724.4 secs

     total energy              =   -7738.35174576 Ry
     estimated scf accuracy    <       0.03039623 Ry

     total magnetization       =    87.06 Bohr mag/cell
     absolute magnetization    =    88.67 Bohr mag/cell

     iteration # 45     ecut=    50.00 Ry     beta= 0.10
     Davidson diagonalization with overlap
     ethr =  2.74E-06,  avg # of iterations =  1.0

     negative rho (up, down):  1.231E-04 1.192E-04
 
     Adding external electric field

     Computed dipole along edir(3) : 
        Dipole               -0.1247 Ry au,         -0.3170 Debye
        Dipole field         -0.0001 Ry au, 
 
        Potential amp.        0.0084 Ry
        Total length         55.1515 bohr
 
 
     Adding external electric field

     Computed dipole along edir(3) : 
        Dipole               -0.1247 Ry au,         -0.3170 Debye
        Dipole field         -0.0001 Ry au, 
 
        Potential amp.        0.0084 Ry
        Total length         55.1515 bohr
 

     total cpu time spent up to now is      737.4 secs

     total energy              =   -7738.35111198 Ry
     estimated scf accuracy    <       0.02969225 Ry

     total magnetization       =    87.05 Bohr mag/cell
     absolute magnetization    =    88.67 Bohr mag/cell

     iteration # 46     ecut=    50.00 Ry     beta= 0.10
     Davidson diagonalization with overlap
     ethr =  2.72E-06,  avg # of iterations =  2.0

     negative rho (up, down):  2.734E-04 2.782E-04
 
     Adding external electric field

     Computed dipole along edir(3) : 
        Dipole                0.0945 Ry au,          0.2401 Debye
        Dipole field          0.0001 Ry au, 
 
        Potential amp.       -0.0064 Ry
        Total length         55.1515 bohr
 
 
     Adding external electric field

     Computed dipole along edir(3) : 
        Dipole                0.0945 Ry au,          0.2401 Debye
        Dipole field          0.0001 Ry au, 
 
        Potential amp.       -0.0064 Ry
        Total length         55.1515 bohr
 

     total cpu time spent up to now is      751.8 secs

     total energy              =   -7738.35012735 Ry
     estimated scf accuracy    <       0.02577238 Ry

     total magnetization       =    87.05 Bohr mag/cell
     absolute magnetization    =    88.71 Bohr mag/cell

     iteration # 47     ecut=    50.00 Ry     beta= 0.10
     Davidson diagonalization with overlap
     ethr =  2.36E-06,  avg # of iterations =  2.5

     negative rho (up, down):  2.106E-04 1.683E-04
 
     Adding external electric field

     Computed dipole along edir(3) : 
        Dipole                0.2213 Ry au,          0.5626 Debye
        Dipole field          0.0001 Ry au, 
 
        Potential amp.       -0.0149 Ry
        Total length         55.1515 bohr
 
 
     Adding external electric field

     Computed dipole along edir(3) : 
        Dipole                0.2213 Ry au,          0.5626 Debye
        Dipole field          0.0001 Ry au, 
 
        Potential amp.       -0.0149 Ry
        Total length         55.1515 bohr
 

     total cpu time spent up to now is      771.8 secs

     total energy              =   -7738.34926197 Ry
     estimated scf accuracy    <       0.02081121 Ry

     total magnetization       =    87.01 Bohr mag/cell
     absolute magnetization    =    88.67 Bohr mag/cell

     iteration # 48     ecut=    50.00 Ry     beta= 0.10
     Davidson diagonalization with overlap
     ethr =  1.90E-06,  avg # of iterations =  2.0

     negative rho (up, down):  2.616E-04 1.549E-04
 
     Adding external electric field

     Computed dipole along edir(3) : 
        Dipole                0.3735 Ry au,          0.9495 Debye
        Dipole field          0.0002 Ry au, 
 
        Potential amp.       -0.0252 Ry
        Total length         55.1515 bohr
 
 
     Adding external electric field

     Computed dipole along edir(3) : 
        Dipole                0.3735 Ry au,          0.9495 Debye
        Dipole field          0.0002 Ry au, 
 
        Potential amp.       -0.0252 Ry
        Total length         55.1515 bohr
 

     total cpu time spent up to now is      786.8 secs

     total energy              =   -7738.34882902 Ry
     estimated scf accuracy    <       0.01453122 Ry

     total magnetization       =    87.04 Bohr mag/cell
     absolute magnetization    =    88.67 Bohr mag/cell

     iteration # 49     ecut=    50.00 Ry     beta= 0.10
     Davidson diagonalization with overlap
     ethr =  1.33E-06,  avg # of iterations =  9.5

     negative rho (up, down):  8.570E-05 6.499E-05
 
     Adding external electric field

     Computed dipole along edir(3) : 
        Dipole                0.3680 Ry au,          0.9353 Debye
        Dipole field          0.0002 Ry au, 
 
        Potential amp.       -0.0248 Ry
        Total length         55.1515 bohr
 
 
     Adding external electric field

     Computed dipole along edir(3) : 
        Dipole                0.3680 Ry au,          0.9353 Debye
        Dipole field          0.0002 Ry au, 
 
        Potential amp.       -0.0248 Ry
        Total length         55.1515 bohr
 

     total cpu time spent up to now is      806.1 secs

     total energy              =   -7738.34928800 Ry
     estimated scf accuracy    <       0.00720878 Ry

     total magnetization       =    87.04 Bohr mag/cell
     absolute magnetization    =    88.66 Bohr mag/cell

     iteration # 50     ecut=    50.00 Ry     beta= 0.10
     Davidson diagonalization with overlap
     ethr =  6.60E-07,  avg # of iterations =  2.0

     negative rho (up, down):  3.516E-04 2.855E-04
 
     Adding external electric field

     Computed dipole along edir(3) : 
        Dipole                0.4072 Ry au,          1.0350 Debye
        Dipole field          0.0002 Ry au, 
 
        Potential amp.       -0.0275 Ry
        Total length         55.1515 bohr
 
 
     Adding external electric field

     Computed dipole along edir(3) : 
        Dipole                0.4072 Ry au,          1.0350 Debye
        Dipole field          0.0002 Ry au, 
 
        Potential amp.       -0.0275 Ry
        Total length         55.1515 bohr
 

     total cpu time spent up to now is      820.5 secs

     total energy              =   -7738.34932087 Ry
     estimated scf accuracy    <       0.00438910 Ry

     total magnetization       =    87.04 Bohr mag/cell
     absolute magnetization    =    88.67 Bohr mag/cell

     iteration # 51     ecut=    50.00 Ry     beta= 0.10
     Davidson diagonalization with overlap
     ethr =  4.02E-07,  avg # of iterations =  2.0

     negative rho (up, down):  2.528E-04 2.295E-04
 
     Adding external electric field

     Computed dipole along edir(3) : 
        Dipole                0.3782 Ry au,          0.9613 Debye
        Dipole field          0.0002 Ry au, 
 
        Potential amp.       -0.0255 Ry
        Total length         55.1515 bohr
 
 
     Adding external electric field

     Computed dipole along edir(3) : 
        Dipole                0.3782 Ry au,          0.9613 Debye
        Dipole field          0.0002 Ry au, 
 
        Potential amp.       -0.0255 Ry
        Total length         55.1515 bohr
 

     total cpu time spent up to now is      834.9 secs

     total energy              =   -7738.34934189 Ry
     estimated scf accuracy    <       0.00195520 Ry

     total magnetization       =    87.03 Bohr mag/cell
     absolute magnetization    =    88.58 Bohr mag/cell

     iteration # 52     ecut=    50.00 Ry     beta= 0.10
     Davidson diagonalization with overlap
     ethr =  1.79E-07,  avg # of iterations =  2.0

     negative rho (up, down):  9.073E-05 8.810E-05
 
     Adding external electric field

     Computed dipole along edir(3) : 
        Dipole                0.3496 Ry au,          0.8885 Debye
        Dipole field          0.0002 Ry au, 
 
        Potential amp.       -0.0236 Ry
        Total length         55.1515 bohr
 
 
     Adding external electric field

     Computed dipole along edir(3) : 
        Dipole                0.3496 Ry au,          0.8885 Debye
        Dipole field          0.0002 Ry au, 
 
        Potential amp.       -0.0236 Ry
        Total length         55.1515 bohr
 

     total cpu time spent up to now is      849.0 secs

     total energy              =   -7738.34945697 Ry
     estimated scf accuracy    <       0.00100834 Ry

     total magnetization       =    86.99 Bohr mag/cell
     absolute magnetization    =    88.48 Bohr mag/cell

     iteration # 53     ecut=    50.00 Ry     beta= 0.10
     Davidson diagonalization with overlap
     ethr =  9.23E-08,  avg # of iterations =  2.0

     negative rho (up, down):  4.994E-05 4.834E-05
 
     Adding external electric field

     Computed dipole along edir(3) : 
        Dipole                0.3789 Ry au,          0.9631 Debye
        Dipole field          0.0002 Ry au, 
 
        Potential amp.       -0.0256 Ry
        Total length         55.1515 bohr
 
 
     Adding external electric field

     Computed dipole along edir(3) : 
        Dipole                0.3789 Ry au,          0.9631 Debye
        Dipole field          0.0002 Ry au, 
 
        Potential amp.       -0.0256 Ry
        Total length         55.1515 bohr
 

     total cpu time spent up to now is      863.4 secs

     total energy              =   -7738.34948357 Ry
     estimated scf accuracy    <       0.00074525 Ry

     total magnetization       =    86.98 Bohr mag/cell
     absolute magnetization    =    88.48 Bohr mag/cell

     iteration # 54     ecut=    50.00 Ry     beta= 0.10
     Davidson diagonalization with overlap
     ethr =  6.82E-08,  avg # of iterations =  2.0

     negative rho (up, down):  2.059E-05 1.873E-05
 
     Adding external electric field

     Computed dipole along edir(3) : 
        Dipole                0.3712 Ry au,          0.9435 Debye
        Dipole field          0.0002 Ry au, 
 
        Potential amp.       -0.0251 Ry
        Total length         55.1515 bohr
 
 
     Adding external electric field

     Computed dipole along edir(3) : 
        Dipole                0.3712 Ry au,          0.9435 Debye
        Dipole field          0.0002 Ry au, 
 
        Potential amp.       -0.0251 Ry
        Total length         55.1515 bohr
 

     total cpu time spent up to now is      877.7 secs

     total energy              =   -7738.34951228 Ry
     estimated scf accuracy    <       0.00054687 Ry

     total magnetization       =    86.95 Bohr mag/cell
     absolute magnetization    =    88.47 Bohr mag/cell

     iteration # 55     ecut=    50.00 Ry     beta= 0.10
     Davidson diagonalization with overlap
     ethr =  5.00E-08,  avg # of iterations =  1.5

     negative rho (up, down):  1.101E-05 7.780E-06
 
     Adding external electric field

     Computed dipole along edir(3) : 
        Dipole                0.3623 Ry au,          0.9208 Debye
        Dipole field          0.0002 Ry au, 
 
        Potential amp.       -0.0245 Ry
        Total length         55.1515 bohr
 
 
     Adding external electric field

     Computed dipole along edir(3) : 
        Dipole                0.3623 Ry au,          0.9208 Debye
        Dipole field          0.0002 Ry au, 
 
        Potential amp.       -0.0245 Ry
        Total length         55.1515 bohr
 

     total cpu time spent up to now is      891.4 secs

     total energy              =   -7738.34956350 Ry
     estimated scf accuracy    <       0.00047253 Ry

     total magnetization       =    86.97 Bohr mag/cell
     absolute magnetization    =    88.48 Bohr mag/cell

     iteration # 56     ecut=    50.00 Ry     beta= 0.10
     Davidson diagonalization with overlap
     ethr =  4.32E-08,  avg # of iterations =  2.0

     negative rho (up, down):  2.808E-06 7.884E-07
 
     Adding external electric field

     Computed dipole along edir(3) : 
        Dipole                0.3521 Ry au,          0.8950 Debye
        Dipole field          0.0002 Ry au, 
 
        Potential amp.       -0.0238 Ry
        Total length         55.1515 bohr
 
 
     Adding external electric field

     Computed dipole along edir(3) : 
        Dipole                0.3521 Ry au,          0.8950 Debye
        Dipole field          0.0002 Ry au, 
 
        Potential amp.       -0.0238 Ry
        Total length         55.1515 bohr
 

     total cpu time spent up to now is      906.1 secs

     total energy              =   -7738.34958472 Ry
     estimated scf accuracy    <       0.00037535 Ry

     total magnetization       =    86.99 Bohr mag/cell
     absolute magnetization    =    88.50 Bohr mag/cell

     iteration # 57     ecut=    50.00 Ry     beta= 0.10
     Davidson diagonalization with overlap
     ethr =  3.43E-08,  avg # of iterations =  1.5

     negative rho (up, down):  4.142E-05 9.455E-06
 
     Adding external electric field

     Computed dipole along edir(3) : 
        Dipole                0.3808 Ry au,          0.9679 Debye
        Dipole field          0.0002 Ry au, 
 
        Potential amp.       -0.0257 Ry
        Total length         55.1515 bohr
 
 
     Adding external electric field

     Computed dipole along edir(3) : 
        Dipole                0.3808 Ry au,          0.9679 Debye
        Dipole field          0.0002 Ry au, 
 
        Potential amp.       -0.0257 Ry
        Total length         55.1515 bohr
 

     total cpu time spent up to now is      919.4 secs

     total energy              =   -7738.34967888 Ry
     estimated scf accuracy    <       0.00030108 Ry

     total magnetization       =    87.00 Bohr mag/cell
     absolute magnetization    =    88.51 Bohr mag/cell

     iteration # 58     ecut=    50.00 Ry     beta= 0.10
     Davidson diagonalization with overlap
     ethr =  2.75E-08,  avg # of iterations =  2.0

     negative rho (up, down):  8.675E-05 2.620E-05
 
     Adding external electric field

     Computed dipole along edir(3) : 
        Dipole                0.3887 Ry au,          0.9881 Debye
        Dipole field          0.0002 Ry au, 
 
[...]
    -5.9693  -5.9456  -5.9234  -5.9182  -5.9032  -5.8797  -5.8762  -5.8455
    -5.8167  -5.8138  -5.7963  -5.7717  -5.7475  -5.7396  -5.7021  -5.6969
    -5.6885  -5.6552  -5.6123  -5.5901  -5.5807  -5.5458  -5.5284  -5.5084
    -5.4994  -5.4914  -5.4718  -5.4617  -5.4241  -5.4154  -5.3938  -5.3700
    -5.3006  -5.2402  -5.2311  -5.2071  -5.1958  -5.1837  -5.1543  -5.1061
    -5.0417  -5.0313  -5.0038  -4.9665  -4.9544  -4.9397  -4.9215  -4.8681
    -4.8233  -4.7717  -4.7657  -4.7562  -4.7446  -4.7054  -4.6745  -4.6646
    -4.5789  -4.5435  -4.4987  -4.4898  -4.4339  -4.4250  -4.3989  -4.3774
    -4.3678  -4.3413  -4.2248  -4.2158  -4.1905  -4.1665  -4.1377  -4.1099
    -4.0985  -4.0911  -4.0713  -3.9989  -3.9735  -3.9515  -3.9317  -3.9154
    -3.8696  -3.8310  -3.8254  -3.8017  -3.7956  -3.7672  -3.7365  -3.6987
    -3.6769  -3.6440  -3.6227  -3.6142  -3.6114  -3.5902  -3.5894  -3.5709
    -3.5391  -3.5208  -3.5099  -3.4876  -3.4832  -3.4666  -3.4540  -3.4231
    -3.4042  -3.3961  -3.3811  -3.3633  -3.3405  -3.3054  -3.2888  -3.2646
    -3.2381  -3.2359  -3.2174  -3.2067  -3.1949  -3.1481  -3.1277  -3.1012
    -3.0532  -3.0491  -3.0411  -3.0326  -3.0312  -3.0239  -3.0161  -2.9750
    -2.9440  -2.9387  -2.9296  -2.8802  -2.8696  -2.8661  -2.8110  -2.7949
    -2.7703  -2.7679  -2.7587  -2.7554  -2.7348  -2.7305  -2.7098  -2.7042
    -2.6886  -2.6659  -2.6577  -2.6292  -2.6251  -2.6113  -2.6056  -2.5959
    -2.5937  -2.5756  -2.5588  -2.5402  -2.5257  -2.5203  -2.4797  -2.4728
    -2.4511  -2.4423  -2.4209  -2.3938  -2.3602  -2.3526  -2.3331  -2.3007
    -2.2796  -2.2697  -2.2501  -2.2210  -2.2040  -2.1807  -2.1642  -2.1353
    -2.1280  -2.1200  -2.1122  -2.1032  -2.0758  -2.0644  -2.0226  -1.9943
    -1.9766  -1.9631  -1.9508  -1.9317  -1.9163  -1.9097  -1.8933  -1.8632
    -1.8536  -1.8373  -1.8169  -1.8093  -1.8026  -1.7886  -1.7725  -1.7650
    -1.7470  -1.7189  -1.7016  -1.6418  -1.6390  -1.6303  -1.5801  -1.5679
    -1.5632  -1.5333  -1.5116  -1.5011  -1.4902  -1.4818  -1.4491  -1.4350
    -1.4209  -1.4092  -1.3990  -1.3805  -1.3544  -1.3358  -1.3250  -1.3148
    -1.2726  -1.2612  -1.2424  -1.2106  -1.1883  -1.1445  -1.1197  -1.0790
    -1.0114  -0.9069  -0.8887  -0.8706  -0.8493  -0.7244  -0.7158  -0.5280
    -0.4809  -0.3169  -0.2704  -0.1383   0.1815   0.2120   0.2289   0.2461
     0.2520   0.2676   0.2944   0.3067   0.3285   0.3318   0.3515   0.3628
     0.3688   0.3744   0.3912   0.4051   0.4142   0.4157   0.4178   0.4238
     0.4287   0.4321   0.4478   0.4549   0.4574   0.4634   0.4759   0.4910
     0.4937   0.5021   0.5063   0.5140   0.5228   0.5339   0.5341   0.5411
     0.5616   0.5676   0.5761   0.5769   0.5835   0.5963   0.5993   0.6135
     0.6226   0.6244   0.6412   0.6437   0.6478   0.6517   0.6750   0.6789
     0.6827   0.6909   0.6965   0.7058   0.7122   0.7327   0.7373   0.7495
     0.7572   0.7607   0.7625   0.7727   0.7937   0.7971   0.8052   0.8107
     0.8195   0.8209   0.8297   0.8402   0.8514   0.8592   0.8697   0.8698
     0.8793   0.8918   0.9270   0.9377   0.9525   0.9546   0.9584   0.9841
     0.9987   1.0139   1.0979   1.1002   1.1989   1.2210   1.7477   1.7525
     1.7597   1.7727   1.7793   1.7877   1.8059   1.8203   1.8258   1.9046
     1.9204   1.9364   1.9659   1.9831   2.0226   2.0308   2.0457   2.1016
     2.1215   2.1337   2.1460   2.1485   2.1886   2.1944   2.2196   2.2305
     2.2449   2.2574   2.2854   2.2929   2.3027   2.3416   2.3553   2.3613
     2.3743   2.3892   2.3971   2.4152   2.4321   2.4478   2.4565   2.4767
     2.4869   2.5065   2.5094   2.5274   2.5366   2.5564   2.5873   2.6116
     2.6216   2.6353   2.6388   2.6950   2.7763   2.7943   2.8417   2.8619
     2.8913   2.9091   3.3080   3.5092   3.6321   3.6942   3.7665   3.8594
     3.9018   3.9253   3.9306   3.9538   3.9991   4.0688   4.0769   4.0889
     4.1115   4.1418   4.1493   4.1675   4.1840   4.4120   4.4924   4.6383
     4.8320   4.8801   4.9123   4.9363   4.9683   5.0319   5.0481   5.1050
     5.1265   5.1650   5.3938   6.2666   6.3595   6.4962   6.6001   6.6833
     6.7525   6.8324   6.8554   6.9074   6.9602   7.0446   7.0886   7.1819
     7.2421   7.3221   7.3521   7.3961   7.4700   7.5188   7.6164   7.6624
     7.6932   7.7018   7.7423   7.7754   7.8512   7.8613   7.8972   7.9473
     7.9825   8.0074   8.0557   8.0789   8.1154   8.1711   8.2038   8.2187
     8.2213   8.2741   8.3129   8.3341   8.3878   8.4106   8.4214   8.4387
     8.4522   8.4768   8.5068   8.5184   8.5437   8.5660   8.6057   8.6288
     8.6588   8.6910   8.6968   8.7286   8.7474   8.7892   8.8309   8.8651

     the Fermi energy is     1.6615 ev

!    total energy              =   -7738.34978089 Ry
     estimated scf accuracy    <       0.00000080 Ry
     smearing contrib. (-TS)   =      -0.02173911 Ry
     internal energy E=F+TS    =   -7738.32804177 Ry

     The total energy is F=E-TS. E is the sum of the following terms:
     one-electron contribution =  -95248.91454900 Ry
     hartree contribution      =   48240.53302646 Ry
     xc contribution           =   -2218.73165094 Ry
     ewald contribution        =   41490.59526124 Ry
     Dispersion Correction     =      -1.81023315 Ry
     electric field correction =       0.00010363 Ry

     total magnetization       =    86.97 Bohr mag/cell
     absolute magnetization    =    88.48 Bohr mag/cell

     convergence has been achieved in  72 iterations

     negative rho (up, down):  1.049E-03 5.970E-04

     Forces acting on atoms (cartesian axes, Ry/au):

     atom    1 type  1   force =     0.02502472   -0.03087072    0.01855287
     atom    2 type  2   force =    -0.01378179   -0.00159177   -0.00978979
     atom    3 type  1   force =    -0.02305998   -0.01834050    0.01983799
     atom    4 type  1   force =     0.00575017    0.00416006   -0.00638052
     atom    5 type  1   force =    -0.00193912    0.00113399   -0.00509135
     atom    6 type  1   force =     0.00210974    0.00771007   -0.00886002
     atom    7 type  3   force =    -0.00769209    0.00123334   -0.01050192
     atom    8 type  3   force =    -0.03502079    0.05415213   -0.08329249
     atom    9 type  3   force =     0.03414249    0.03817503   -0.06430508
     atom   10 type  3   force =    -0.00305596   -0.00245342   -0.01166235
     atom   11 type  4   force =     0.00671116    0.00556180    0.01400414
     atom   12 type  4   force =    -0.00024696   -0.00295976    0.01480432
     atom   13 type  4   force =     0.00193548    0.00170574    0.01738841
     atom   14 type  4   force =    -0.00051825   -0.00127693    0.01279168
     atom   15 type  4   force =    -0.00064890    0.00457902   -0.00199344
     atom   16 type  4   force =    -0.00043162    0.00264561    0.04028567
     atom   17 type  4   force =     0.00170771    0.00811852    0.03778453
     atom   18 type  4   force =     0.00795320   -0.00445948   -0.00048366
     atom   19 type  4   force =     0.00041814    0.01182109    0.00428831
     atom   20 type  4   force =    -0.00966440   -0.02678784   -0.00366310
     atom   21 type  4   force =    -0.01106969   -0.00044043    0.00067374
     atom   22 type  4   force =    -0.03208853    0.00311125    0.00788375
     atom   23 type  4   force =     0.03205670    0.00058266    0.01411713
     atom   24 type  4   force =     0.00703503   -0.03696042    0.00381112
     atom   25 type  4   force =    -0.00311953    0.00167254    0.00396972
     atom   26 type  4   force =     0.01772915   -0.00687918    0.00081325
     atom   27 type  1   force =    -0.00516863   -0.00896217    0.00264799
     atom   28 type  2   force =    -0.01321454   -0.00034509    0.00418133
     atom   29 type  1   force =     0.00297466   -0.00497416   -0.00141683
     atom   30 type  1   force =     0.00256198    0.00464533   -0.00223805
     atom   31 type  1   force =     0.00153553   -0.00474203   -0.00002595
     atom   32 type  1   force =    -0.00068565    0.00134764   -0.00194899
     atom   33 type  3   force =    -0.00673304   -0.00318114   -0.00164717
     atom   34 type  3   force =    -0.00786966    0.00256223   -0.00001735
     atom   35 type  3   force =     0.00442438   -0.00060314    0.00265592
     atom   36 type  3   force =     0.00062244   -0.00043830   -0.00559053
     atom   37 type  4   force =     0.00851887    0.00532766    0.00718913
     atom   38 type  4   force =     0.00375362   -0.00086175   -0.01945555
     atom   39 type  4   force =    -0.00155580    0.00365367   -0.00979236
     atom   40 type  4   force =    -0.00150081   -0.00251481    0.00955125
     atom   41 type  4   force =    -0.00229491    0.00487797   -0.00753261
     atom   42 type  4   force =    -0.00440887   -0.00442433    0.01798208
     atom   43 type  4   force =     0.00765172    0.00333987    0.00783150
     atom   44 type  4   force =     0.01036638   -0.00591443   -0.00644464
     atom   45 type  4   force =     0.00284256    0.00385814    0.00061473
     atom   46 type  4   force =     0.00236777   -0.00014139   -0.00559617
     atom   47 type  4   force =    -0.01280979   -0.00078073   -0.00345697
     atom   48 type  4   force =    -0.01463615    0.00125444    0.00342018
     atom   49 type  4   force =     0.01355489    0.00254379    0.00438736
     atom   50 type  4   force =    -0.00269867   -0.00491463   -0.00049142
     atom   51 type  4   force =    -0.00537082    0.00202653    0.00026410
     atom   52 type  4   force =     0.01555601   -0.00342965   -0.00468346
     atom   53 type  1   force =     0.00048453    0.00017445    0.00009839
     atom   54 type  2   force =    -0.00032883   -0.00055171    0.00052287
     atom   55 type  1   force =    -0.00000417    0.00026817    0.00015429
     atom   56 type  1   force =     0.00032628   -0.00014103    0.00034507
     atom   57 type  1   force =     0.00047242   -0.00037951    0.00058147
     atom   58 type  1   force =     0.00048853    0.00025218    0.00028907
     atom   59 type  3   force =     0.00102073    0.00015128   -0.00039741
     atom   60 type  3   force =     0.00003735   -0.00064253    0.00032387
     atom   61 type  3   force =    -0.00003460    0.00005570    0.00027238
     atom   62 type  3   force =    -0.00004943   -0.00019469   -0.00005818
     atom   63 type  4   force =    -0.00022142   -0.00023229    0.00031102
     atom   64 type  4   force =     0.00018525   -0.00054358    0.00020188
     atom   65 type  4   force =     0.00006761    0.00038635    0.00025134
     atom   66 type  4   force =    -0.00015193    0.00005357   -0.00002972
     atom   67 type  4   force =    -0.00012706   -0.00021448    0.00126146
     atom   68 type  4   force =    -0.00016700    0.00054410   -0.00016090
     atom   69 type  4   force =     0.00030560   -0.00076287   -0.00085553
     atom   70 type  4   force =     0.00029967   -0.00022097    0.00058489
     atom   71 type  4   force =     0.00000053   -0.00014856    0.00029942
     atom   72 type  4   force =     0.00002338    0.00016280   -0.00037890
     atom   73 type  4   force =    -0.00004635    0.00005144   -0.00045319
     atom   74 type  4   force =     0.00025253    0.00006694    0.00020847
     atom   75 type  4   force =     0.00005948    0.00017483    0.00024481
     atom   76 type  4   force =    -0.00012572    0.00023745    0.00054107
     atom   77 type  4   force =    -0.00021570   -0.00017885    0.00051748
     atom   78 type  4   force =    -0.00017315   -0.00057204   -0.00040583
     atom   79 type  1   force =     0.02500510   -0.03086367    0.01850498
     atom   80 type  2   force =    -0.01368891   -0.00155742   -0.00975739
     atom   81 type  1   force =    -0.02304337   -0.01832229    0.01986176
     atom   82 type  1   force =     0.00573590    0.00421049   -0.00638034
     atom   83 type  1   force =    -0.00187319    0.00113958   -0.00511036
     atom   84 type  1   force =     0.00203527    0.00768974   -0.00881984
     atom   85 type  3   force =    -0.00769603    0.00119883   -0.01044708
     atom   86 type  3   force =    -0.03502021    0.05415178   -0.08329087
     atom   87 type  3   force =     0.03414731    0.03817523   -0.06430360
     atom   88 type  3   force =    -0.00304459   -0.00245998   -0.01166195
     atom   89 type  4   force =     0.00681437    0.00556098    0.01399046
     atom   90 type  4   force =    -0.00015400   -0.00287272    0.01480067
     atom   91 type  4   force =     0.00202499    0.00169917    0.01736422
     atom   92 type  4   force =    -0.00036060   -0.00126328    0.01279890
     atom   93 type  4   force =    -0.00065539    0.00478384   -0.00189598
     atom   94 type  4   force =    -0.00049698    0.00260708    0.04007355
     atom   95 type  4   force =     0.00183672    0.00811967    0.03778452
     atom   96 type  4   force =     0.00774328   -0.00446834   -0.00051210
     atom   97 type  4   force =     0.00049641    0.01187090    0.00418378
     atom   98 type  4   force =    -0.00955567   -0.02662173   -0.00363532
     atom   99 type  4   force =    -0.01109216   -0.00040681    0.00087018
     atom  100 type  4   force =    -0.03212147    0.00301063    0.00775600
     atom  101 type  4   force =     0.03207502    0.00058264    0.01412881
     atom  102 type  4   force =     0.00684818   -0.03696625    0.00381371
     atom  103 type  4   force =    -0.00303974    0.00164027    0.00393743
     atom  104 type  4   force =     0.01787246   -0.00687362    0.00080215
     atom  105 type  1   force =    -0.00531639   -0.00886283    0.00261339
     atom  106 type  2   force =    -0.01345812    0.00009414    0.00426381
     atom  107 type  1   force =     0.00303490   -0.00497236   -0.00139990
     atom  108 type  1   force =     0.00273657    0.00373534   -0.00141012
     atom  109 type  1   force =     0.00139051   -0.00469322   -0.00010614
     atom  110 type  1   force =    -0.00099400    0.00135712   -0.00192229
     atom  111 type  3   force =    -0.00683501   -0.00342048   -0.00085682
     atom  112 type  3   force =    -0.00810594    0.00269700   -0.00020024
     atom  113 type  3   force =     0.00442224   -0.00068910    0.00266692
     atom  114 type  3   force =     0.00060923    0.00040153   -0.00511229
     atom  115 type  4   force =     0.00877934    0.00534756    0.00709974
     atom  116 type  4   force =     0.00382401   -0.00096640   -0.01949424
     atom  117 type  4   force =    -0.00133741    0.00369673   -0.00976354
     atom  118 type  4   force =    -0.00128064   -0.00285788    0.00955213
     atom  119 type  4   force =    -0.00315525    0.00390556   -0.00705354
     atom  120 type  4   force =    -0.00411443   -0.00465822    0.01795215
     atom  121 type  4   force =     0.00768788    0.00334623    0.00785293
     atom  122 type  4   force =     0.01026566   -0.00591807   -0.00585134
     atom  123 type  4   force =     0.00305591    0.00356365   -0.00030592
     atom  124 type  4   force =     0.00225295   -0.00003639   -0.00557591
     atom  125 type  4   force =    -0.01273759   -0.00087250   -0.00335871
     atom  126 type  4   force =    -0.01470981    0.00127300    0.00341559
     atom  127 type  4   force =     0.01346444    0.00243414    0.00447551
     atom  128 type  4   force =    -0.00283257   -0.00495820   -0.00045568
     atom  129 type  4   force =    -0.00564979    0.00214834   -0.00000801
     atom  130 type  4   force =     0.01575845   -0.00362796   -0.00445648
     atom  131 type  1   force =     0.00018728    0.00009497    0.00062952
     atom  132 type  2   force =    -0.00111365   -0.00005309    0.00006181
     atom  133 type  1   force =    -0.00011432    0.00014215    0.00039635
     atom  134 type  1   force =    -0.00040331   -0.00044686   -0.00029932
     atom  135 type  1   force =     0.00028083   -0.00060061    0.00044122
     atom  136 type  1   force =     0.00039751    0.00005896    0.00043531
     atom  137 type  3   force =    -0.00027024    0.00045478   -0.00007165
     atom  138 type  3   force =    -0.00011447   -0.00026884    0.00042052
     atom  139 type  3   force =     0.00033871   -0.00010212    0.00008096
     atom  140 type  3   force =    -0.00012845   -0.00014618   -0.00029044
     atom  141 type  4   force =     0.00019123    0.00045004    0.00000775
     atom  142 type  4   force =    -0.00014400    0.00007943    0.00026773
     atom  143 type  4   force =     0.00052720   -0.00009757    0.00011230
     atom  144 type  4   force =    -0.00005162    0.00004360   -0.00035800
     atom  145 type  4   force =     0.00049184    0.00002417    0.00037148
     atom  146 type  4   force =    -0.00001698    0.00026554    0.00033372
     atom  147 type  4   force =    -0.00042387   -0.00040003   -0.00032431
     atom  148 type  4   force =     0.00048798   -0.00004811    0.00041380
     atom  149 type  4   force =    -0.00025176   -0.00043956    0.00025763
     atom  150 type  4   force =     0.00008743   -0.00045000    0.00012490
     atom  151 type  4   force =    -0.00004548   -0.00012434   -0.00004261
     atom  152 type  4   force =     0.00037412   -0.00010772   -0.00008543
     atom  153 type  4   force =     0.00001035    0.00027141   -0.00021053
     atom  154 type  4   force =     0.00042703   -0.00008948   -0.00006174
     atom  155 type  4   force =    -0.00002307    0.00012663   -0.00016031
     atom  156 type  4   force =     0.00007296    0.00015973   -0.00001812
     atom  157 type  4   force =    -0.00986545    0.00554244    0.00247817
     atom  158 type  5   force =     0.01114632   -0.00591883   -0.00196801

     Total force =     0.263216     Total SCF correction =     0.003714
 
     init_run     :      9.43s CPU     10.19s WALL (       1 calls)
     electrons    :   1063.95s CPU   1118.71s WALL (       1 calls)
     forces       :      4.41s CPU      4.78s WALL (       1 calls)
     force_london :      0.12s CPU      0.12s WALL (       1 calls)

     Called by init_run:
     wfcinit      :      5.42s CPU      5.59s WALL (       1 calls)
     potinit      :      0.80s CPU      1.01s WALL (       1 calls)
     hinit0       :      1.56s CPU      1.68s WALL (       1 calls)

     Called by electrons:
     c_bands      :    835.49s CPU    864.08s WALL (      72 calls)
     sum_band     :    143.73s CPU    157.59s WALL (      72 calls)
     v_of_rho     :     19.89s CPU     21.09s WALL (      73 calls)
     newd         :     43.02s CPU     54.09s WALL (      73 calls)
     mix_rho      :     21.10s CPU     21.23s WALL (      72 calls)
     energy_londo :      0.11s CPU      0.11s WALL (       1 calls)

     Called by c_bands:
     init_us_2    :      2.86s CPU      2.93s WALL (     292 calls)
     init_us_2:cp :      2.85s CPU      2.92s WALL (     292 calls)
     regterg      :    815.88s CPU    844.17s WALL (     145 calls)

     Called by *egterg:
     rdiaghg      :    232.73s CPU    245.73s WALL (     545 calls)
     h_psi        :    328.57s CPU    335.70s WALL (     547 calls)
     s_psi        :     63.98s CPU     64.01s WALL (     547 calls)
     g_psi        :      0.49s CPU      0.49s WALL (     400 calls)

     Called by h_psi:
     h_psi:calbec :     79.34s CPU     84.85s WALL (     547 calls)
     vloc_psi     :    184.21s CPU    185.12s WALL (     547 calls)
     add_vuspsi   :     64.13s CPU     64.84s WALL (     547 calls)

     General routines
     calbec       :    117.61s CPU    125.57s WALL (     699 calls)
     fft          :     15.71s CPU     17.20s WALL (    1327 calls)
     ffts         :     12.67s CPU     12.71s WALL (    8951 calls)
     fftw         :    200.77s CPU    201.72s WALL (  244686 calls)
     interpolate  :      1.63s CPU      1.87s WALL (     146 calls)
 
     Parallel routines
 
     PWSCF        :  18m 0.37s CPU  18m56.51s WALL

 
   This run was terminated on:   0:23:31  18Nov2025            

=------------------------------------------------------------------------------=
   JOB DONE.
=------------------------------------------------------------------------------=
