
     Program PWSCF v.7.2 starts on 17Nov2025 at 21: 7:24 

     This program is part of the open-source Quantum ESPRESSO suite
     for quantum simulation of materials; please cite
         "P. Giannozzi et al., J. Phys.:Condens. Matter 21 395502 (2009);
         "P. Giannozzi et al., J. Phys.:Condens. Matter 29 465901 (2017);
         "P. Giannozzi et al., J. Chem. Phys. 152 154105 (2020);
          URL http://www.quantum-espresso.org", 
     in publications or presentations arising from this work. More details at
     http://www.quantum-espresso.org/quote

     Parallel version (MPI), running on    64 processors

     MPI processes distributed on     4 nodes
     342989 MiB available memory on the printing compute node when the environment starts
 
     Reading input from PWINPUT_atm157_xp

     Current dimensions of program PWSCF are:
     Max number of different atomic species (ntypx) = 10
     Max number of k-points (npk) =  40000
     Max angular momentum in pseudopotentials (lmaxx) =  4
     Presently no symmetry can be used with electric field

     file Ni.pbe-n-rrkjus_psl.1.0.0.UPF: wavefunction(s)  3D renormalized
     file Mn.pbe-spn-rrkjus_psl.0.3.1.UPF: wavefunction(s)  3D renormalized
     file O.pbe-rrkjus.UPF: wavefunction(s)  2S renormalized
     file H.pbe-rrkjus.UPF: wavefunction(s)  1S renormalized

     gamma-point specific algorithms are used
 
     R & G space division:  proc/nbgrp/npool/nimage =      64
     Subspace diagonalization in iterative solution of the eigenvalue problem:
     one sub-group per band group will be used
     custom distributed-memory algorithm (size of sub-group:  7*  7 procs)

 
     Parallelization info
     --------------------
     sticks:   dense  smooth     PW     G-vecs:    dense   smooth      PW
     Min         207      82     20                60552    15302    1896
     Max         210      84     22                60574    15336    1950
     Sum       13325    5345   1333              3876045   980655  122653
 
     Using Slab Decomposition
 


     bravais-lattice index     =            0
     lattice parameter (alat)  =      17.4067  a.u.
     unit-cell volume          =   20529.8182 (a.u.)^3
     number of atoms/cell      =          158
     number of atomic types    =            5
     number of electrons       =      1093.00
     number of Kohn-Sham states=          656
     kinetic-energy cutoff     =      50.0000  Ry
     charge density cutoff     =     500.0000  Ry
     scf convergence threshold =      1.0E-06
     mixing beta               =       0.1000
     number of iterations used =            8  local-TF  mixing
     Exchange-correlation=  SLA  PW   PBE  PBE
                           (   1   4   3   4   0   0   0)

     celldm(1)=  17.406729  celldm(2)=   0.000000  celldm(3)=   0.000000
     celldm(4)=   0.000000  celldm(5)=   0.000000  celldm(6)=   0.000000

     crystal axes: (cart. coord. in units of alat)
               a(1) = (   1.000000   0.000000   0.000000 )  
               a(2) = (  -0.001404   1.105696   0.000000 )  
               a(3) = (   0.000000   0.000000   3.520448 )  

     reciprocal axes: (cart. coord. in units 2 pi/alat)
               b(1) = (  1.000000  0.001270  0.000000 )  
               b(2) = (  0.000000  0.904408  0.000000 )  
               b(3) = (  0.000000  0.000000  0.284055 )  


     PseudoPot. # 1 for Ni read from file:
     ~/PSEUDO/Ni.pbe-n-rrkjus_psl.1.0.0.UPF
     MD5 check sum: Not computed, couldn't open file
     Pseudo is Ultrasoft + core correction, Zval = 10.0
     Generated using "atomic" code by A. Dal Corso  v.5.1.2
     Using radial grid of 1195 points,  6 beta functions with: 
                l(1) =   0
                l(2) =   0
                l(3) =   1
                l(4) =   1
                l(5) =   2
                l(6) =   2
     Q(r) pseudized with 0 coefficients 


     PseudoPot. # 2 for Mn read from file:
     ~/PSEUDO/Mn.pbe-spn-rrkjus_psl.0.3.1.UPF
     MD5 check sum: Not computed, couldn't open file
     Pseudo is Ultrasoft + core correction, Zval = 15.0
     Generated using &quot;atomic&quot; code by A. Dal Corso  v.6.2.2
     Using radial grid of 1187 points,  6 beta functions with: 
                l(1) =   0
                l(2) =   0
                l(3) =   1
                l(4) =   1
                l(5) =   2
                l(6) =   2
     Q(r) pseudized with 0 coefficients 


     PseudoPot. # 3 for P  read from file:
     ~/PSEUDO/P.pbe-n-rrkjus_psl.1.0.0.UPF
     MD5 check sum: Not computed, couldn't open file
     Pseudo is Ultrasoft + core correction, Zval =  5.0
     Generated using "atomic" code by A. Dal Corso  v.5.1
     Using radial grid of 1147 points,  6 beta functions with: 
                l(1) =   0
                l(2) =   0
                l(3) =   1
                l(4) =   1
                l(5) =   2
                l(6) =   2
     Q(r) pseudized with 0 coefficients 


     PseudoPot. # 4 for O  read from file:
     ~/PSEUDO/O.pbe-rrkjus.UPF
     MD5 check sum: Not computed, couldn't open file
     Pseudo is Ultrasoft, Zval =  6.0
     Generated by new atomic code, or converted to UPF format
     Using radial grid of 1269 points,  4 beta functions with: 
                l(1) =   0
                l(2) =   0
                l(3) =   1
                l(4) =   1
     Q(r) pseudized with 0 coefficients 


     PseudoPot. # 5 for H  read from file:
     ~/PSEUDO/H.pbe-rrkjus.UPF
     MD5 check sum: Not computed, couldn't open file
     Pseudo is Ultrasoft, Zval =  1.0
     Generated by new atomic code, or converted to UPF format
     Using radial grid of 1061 points,  2 beta functions with: 
                l(1) =   0
                l(2) =   0
     Q(r) pseudized with 0 coefficients 


     atomic species   valence    mass     pseudopotential
     Ni               10.00    58.69300     Ni( 1.00)
     Mn               15.00    54.93800     Mn( 1.00)
     P                 5.00    30.97300     P ( 1.00)
     O                 6.00    15.99900     O ( 1.00)
     H                 1.00     1.00790     H ( 1.00)

     Starting magnetic structure 
     atomic species   magnetization
     Ni              1.000
     Mn              1.000
     P               1.000
     O               1.000
     H               0.000

     No symmetry found



   Cartesian axes

     site n.     atom                  positions (alat units)
         1        Ni     tau(   1) = (   0.2421002   0.8609138   0.1302181  )
         2        Mn     tau(   2) = (   0.4924481   0.7886602   0.4655392  )
         3        Ni     tau(   3) = (   0.0052341   0.3031820   0.1284544  )
         4        Ni     tau(   4) = (   0.2570603   0.2374878   0.4617901  )
         5        Ni     tau(   5) = (   0.4976584   1.1048203   0.2964410  )
         6        Ni     tau(   6) = (   0.2495781   0.5440308   0.2953805  )
         7        P      tau(   7) = (   0.2083492   0.9982113   0.4588145  )
         8        P      tau(   8) = (   0.4584476   0.6559264   0.1347090  )
         9        P      tau(   9) = (   0.2889394   0.1031966   0.1319347  )
        10        P      tau(  10) = (   0.0400379   0.4338094   0.4586283  )
        11        O      tau(  11) = (   0.1314218   0.9248062   0.3189972  )
        12        O      tau(  12) = (   0.3797244   0.7272031   0.2742874  )
        13        O      tau(  13) = (   0.3662315   0.1762062   0.2720888  )
        14        O      tau(  14) = (   0.1171240   0.3646150   0.3169340  )
        15        O      tau(  15) = (   0.1510364   0.9068326   0.5881934  )
        16        O      tau(  16) = (   0.3981989   0.7453439   0.0053495  )
        17        O      tau(  17) = (   0.3490561   0.1888693   0.0010856  )
        18        O      tau(  18) = (   0.0982395   0.3475583   0.5894443  )
        19        O      tau(  19) = (   0.0992163   0.5918099   0.4542505  )
        20        O      tau(  20) = (   0.3467441   1.0504690   0.1405000  )
        21        O      tau(  21) = (   0.3739183   0.4303319   0.4477971  )
        22        O      tau(  22) = (   0.1230967   0.1088895   0.1422960  )
        23        O      tau(  23) = (   0.1242901   0.6635968   0.1442928  )
        24        O      tau(  24) = (   0.4011802   0.4971632   0.1376281  )
        25        O      tau(  25) = (   0.1484006   0.0497464   0.4550965  )
        26        O      tau(  26) = (   0.3736100   0.9942556   0.4492158  )
        27        Ni     tau(  27) = (   0.2413539   0.8509941   0.7820408  )
        28        Mn     tau(  28) = (   0.4917018   0.7787406   1.1173619  )
        29        Ni     tau(  29) = (   0.0044877   0.2932623   0.7802771  )
        30        Ni     tau(  30) = (   0.2563139   0.2275682   1.1136128  )
        31        Ni     tau(  31) = (   0.4969120   1.0949007   0.9482637  )
        32        Ni     tau(  32) = (   0.2488318   0.5341111   0.9472032  )
        33        P      tau(  33) = (   0.2076029   0.9882917   1.1106372  )
        34        P      tau(  34) = (   0.4577012   0.6460068   0.7865316  )
        35        P      tau(  35) = (   0.2881931   0.0932770   0.7837574  )
        36        P      tau(  36) = (   0.0392916   0.4238898   1.1104509  )
        37        O      tau(  37) = (   0.1306755   0.9148866   0.9708199  )
        38        O      tau(  38) = (   0.3789780   0.7172835   0.9261101  )
        39        O      tau(  39) = (   0.3654852   0.1662865   0.9239115  )
        40        O      tau(  40) = (   0.1163776   0.3546954   0.9687567  )
        41        O      tau(  41) = (   0.1502901   0.8969129   1.2400160  )
        42        O      tau(  42) = (   0.3974525   0.7354243   0.6571722  )
        43        O      tau(  43) = (   0.3483097   0.1789497   0.6529083  )
        44        O      tau(  44) = (   0.0974932   0.3376387   1.2412670  )
        45        O      tau(  45) = (   0.0984699   0.5818903   1.1060732  )
        46        O      tau(  46) = (   0.3459978   1.0405493   0.7923226  )
        47        O      tau(  47) = (   0.3731719   0.4204123   1.0996198  )
        48        O      tau(  48) = (   0.1223503   0.0989699   0.7941187  )
        49        O      tau(  49) = (   0.1235438   0.6536772   0.7961155  )
        50        O      tau(  50) = (   0.4004339   0.4872435   0.7894508  )
        51        O      tau(  51) = (   0.1476543   0.0398268   1.1069192  )
        52        O      tau(  52) = (   0.3728637   0.9843360   1.1010385  )
        53        Ni     tau(  53) = (   0.2405000   0.8314791   1.4310848  )
        54        Mn     tau(  54) = (   0.4953493   0.7643247   1.7724492  )
        55        Ni     tau(  55) = (   0.0038518   0.2756365   1.4285360  )
        56        Ni     tau(  56) = (   0.2471345   0.2153113   1.7400474  )
        57        Ni     tau(  57) = (   0.4995752   1.0720933   1.5947286  )
        58        Ni     tau(  58) = (   0.2421013   0.5219868   1.5980514  )
        59        P      tau(  59) = (   0.2104375   0.9681194   1.7574697  )
        60        P      tau(  60) = (   0.4534410   0.6275485   1.4348057  )
        61        P      tau(  61) = (   0.2894259   0.0743283   1.4290817  )
        62        P      tau(  62) = (   0.0298192   0.4013010   1.7598256  )
        63        O      tau(  63) = (   0.1358441   0.9005122   1.6129847  )
        64        O      tau(  64) = (   0.3771008   0.7024676   1.5717788  )
        65        O      tau(  65) = (   0.3674645   0.1471109   1.5680584  )
        66        O      tau(  66) = (   0.1092283   0.3457090   1.6100373  )
        67        O      tau(  67) = (   0.1496755   0.8741583   1.8808047  )
        68        O      tau(  68) = (   0.3923953   0.7169116   1.3059963  )
        69        O      tau(  69) = (   0.3499475   0.1644431   1.3009773  )
        70        O      tau(  70) = (   0.0894679   0.3000020   1.8751501  )
        71        O      tau(  71) = (   0.0835747   0.5628016   1.7646462  )
        72        O      tau(  72) = (   0.3492253   1.0223474   1.4345599  )
        73        O      tau(  73) = (   0.3642103   0.4027294   1.7423561  )
        74        O      tau(  74) = (   0.1229734   0.0811149   1.4416195  )
        75        O      tau(  75) = (   0.1204474   0.6369096   1.4465931  )
        76        O      tau(  76) = (   0.3946534   0.4694481   1.4371785  )
        77        O      tau(  77) = (   0.1552554   0.0214678   1.7549498  )
        78        O      tau(  78) = (   0.3781421   0.9602342   1.7485231  )
        79        Ni     tau(  79) = (   0.7421002   0.8609138   0.1302181  )
        80        Mn     tau(  80) = (   0.9924481   0.7886602   0.4655392  )
        81        Ni     tau(  81) = (   0.5052341   0.3031820   0.1284544  )
        82        Ni     tau(  82) = (   0.7570603   0.2374878   0.4617901  )
        83        Ni     tau(  83) = (   0.9976584   1.1048203   0.2964410  )
        84        Ni     tau(  84) = (   0.7495781   0.5440308   0.2953805  )
        85        P      tau(  85) = (   0.7083492   0.9982113   0.4588145  )
        86        P      tau(  86) = (   0.9584476   0.6559264   0.1347090  )
        87        P      tau(  87) = (   0.7889394   0.1031966   0.1319347  )
        88        P      tau(  88) = (   0.5400379   0.4338094   0.4586283  )
        89        O      tau(  89) = (   0.6314218   0.9248062   0.3189972  )
        90        O      tau(  90) = (   0.8797244   0.7272031   0.2742874  )
        91        O      tau(  91) = (   0.8662315   0.1762062   0.2720888  )
        92        O      tau(  92) = (   0.6171240   0.3646150   0.3169340  )
        93        O      tau(  93) = (   0.6510364   0.9068326   0.5881934  )
        94        O      tau(  94) = (   0.8981989   0.7453439   0.0053495  )
        95        O      tau(  95) = (   0.8490561   0.1888693   0.0010856  )
        96        O      tau(  96) = (   0.5982395   0.3475583   0.5894443  )
        97        O      tau(  97) = (   0.5992163   0.5918099   0.4542505  )
        98        O      tau(  98) = (   0.8467441   1.0504690   0.1405000  )
        99        O      tau(  99) = (   0.8739183   0.4303319   0.4477971  )
       100        O      tau( 100) = (   0.6230967   0.1088895   0.1422960  )
       101        O      tau( 101) = (   0.6242901   0.6635968   0.1442928  )
       102        O      tau( 102) = (   0.9011802   0.4971632   0.1376281  )
       103        O      tau( 103) = (   0.6484006   0.0497464   0.4550965  )
       104        O      tau( 104) = (   0.8736100   0.9942556   0.4492158  )
       105        Ni     tau( 105) = (   0.7413539   0.8509941   0.7820408  )
       106        Mn     tau( 106) = (   0.9917018   0.7787406   1.1173619  )
       107        Ni     tau( 107) = (   0.5044877   0.2932623   0.7802771  )
       108        Ni     tau( 108) = (   0.7563139   0.2275682   1.1136128  )
       109        Ni     tau( 109) = (   0.9969120   1.0949007   0.9482637  )
       110        Ni     tau( 110) = (   0.7488318   0.5341111   0.9472032  )
       111        P      tau( 111) = (   0.7076029   0.9882917   1.1106372  )
       112        P      tau( 112) = (   0.9577012   0.6460068   0.7865316  )
       113        P      tau( 113) = (   0.7881931   0.0932770   0.7837574  )
       114        P      tau( 114) = (   0.5392916   0.4238898   1.1104509  )
       115        O      tau( 115) = (   0.6306755   0.9148866   0.9708199  )
       116        O      tau( 116) = (   0.8789780   0.7172835   0.9261101  )
       117        O      tau( 117) = (   0.8654852   0.1662865   0.9239115  )
       118        O      tau( 118) = (   0.6163776   0.3546954   0.9687567  )
       119        O      tau( 119) = (   0.6502901   0.8969129   1.2400160  )
       120        O      tau( 120) = (   0.8974525   0.7354243   0.6571722  )
       121        O      tau( 121) = (   0.8483097   0.1789497   0.6529083  )
       122        O      tau( 122) = (   0.5974932   0.3376387   1.2412670  )
       123        O      tau( 123) = (   0.5984699   0.5818903   1.1060732  )
       124        O      tau( 124) = (   0.8459978   1.0405493   0.7923226  )
       125        O      tau( 125) = (   0.8731719   0.4204123   1.0996198  )
       126        O      tau( 126) = (   0.6223503   0.0989699   0.7941187  )
       127        O      tau( 127) = (   0.6235438   0.6536772   0.7961155  )
       128        O      tau( 128) = (   0.9004339   0.4872435   0.7894508  )
       129        O      tau( 129) = (   0.6476543   0.0398268   1.1069192  )
       130        O      tau( 130) = (   0.8728637   0.9843360   1.1010385  )
       131        Ni     tau( 131) = (   0.7369169   0.8303788   1.4329327  )
       132        Mn     tau( 132) = (   0.9924005   0.7622218   1.7630345  )
       133        Ni     tau( 133) = (   0.5034179   0.2756585   1.4286710  )
       134        Ni     tau( 134) = (   0.7445338   0.2135857   1.7404923  )
       135        Ni     tau( 135) = (   0.9992947   1.0745006   1.5940287  )
       136        Ni     tau( 136) = (   0.7415282   0.5178646   1.5926001  )
       137        P      tau( 137) = (   0.7110408   0.9653555   1.7633289  )
       138        P      tau( 138) = (   0.9541428   0.6272498   1.4343540  )
       139        P      tau( 139) = (   0.7882006   0.0737553   1.4295411  )
       140        P      tau( 140) = (   0.5313065   0.4052692   1.7579671  )
       141        O      tau( 141) = (   0.6299655   0.8889021   1.6239329  )
       142        O      tau( 142) = (   0.8763186   0.7000804   1.5722760  )
       143        O      tau( 143) = (   0.8661823   0.1476707   1.5678971  )
       144        O      tau( 144) = (   0.6092775   0.3424902   1.6091934  )
       145        O      tau( 145) = (   0.6577452   0.8727635   1.8894301  )
       146        O      tau( 146) = (   0.8931487   0.7181693   1.3070025  )
       147        O      tau( 147) = (   0.8501811   0.1623852   1.3009768  )
       148        O      tau( 148) = (   0.5909310   0.3060790   1.8752837  )
       149        O      tau( 149) = (   0.5915698   0.5653327   1.7515015  )
       150        O      tau( 150) = (   0.8456292   1.0209939   1.4372118  )
       151        O      tau( 151) = (   0.8624603   0.3999669   1.7434469  )
       152        O      tau( 152) = (   0.6217882   0.0804133   1.4417608  )
       153        O      tau( 153) = (   0.6203335   0.6358635   1.4429875  )
       154        O      tau( 154) = (   0.8954317   0.4691053   1.4351315  )
       155        O      tau( 155) = (   0.6536438   0.0182650   1.7541421  )
       156        O      tau( 156) = (   0.8777501   0.9608304   1.7456676  )
       157        O      tau( 157) = (   0.3838777   0.6908925   1.9089598  )
       158        H      tau( 158) = (   0.2940038   0.7492246   1.9272249  )

     -------------------------------------------------
     Parameters for Dispersion (Grimme-D2) Correction:
     -------------------------------------------------
       atom      VdW radius       C_6     

        Ni         2.952        374.666
        Mn         2.952        374.666
        P          3.222        271.980
        O          2.536         24.284
        H          1.892          4.857

     number of k points=     1  Gaussian smearing, width (Ry)=  0.0100
                       cart. coord. in units 2pi/alat
        k(    1) = (   0.0000000   0.0000000   0.0000000), wk =   1.0000000

     Dense  grid:  1938023 G-vectors     FFT dimensions: ( 125, 144, 450)

     Smooth grid:   490328 G-vectors     FFT dimensions: (  80,  90, 288)

     Estimated max dynamical RAM per process >     326.29 MB

     Estimated total dynamical RAM >      20.39 GB

     Check: negative core charge=   -0.000001
     Generating pointlists ...
     new r_m :   0.0887 (alat units)  1.5440 (a.u.) for type    1
     new r_m :   0.0788 (alat units)  1.3709 (a.u.) for type    2
     new r_m :   0.0679 (alat units)  1.1824 (a.u.) for type    3
     new r_m :   0.0448 (alat units)  0.7804 (a.u.) for type    4
     new r_m :   0.0448 (alat units)  0.7804 (a.u.) for type    5

     Initial potential from superposition of free atoms

     starting charge    1092.8893, renormalised to    1093.0000

     negative rho (up, down):  1.402E-03 4.519E-04
 
     Adding external electric field

     Computed dipole along edir(3) : 
        Dipole                1.6270 Ry au,          4.1353 Debye
        Dipole field          0.0010 Ry au, 
 
        Potential amp.       -0.1098 Ry
        Total length         55.1515 bohr
 
 
     Adding external electric field

     Computed dipole along edir(3) : 
        Dipole                1.6270 Ry au,          4.1353 Debye
        Dipole field          0.0010 Ry au, 
 
        Potential amp.       -0.1098 Ry
        Total length         55.1515 bohr
 
     Starting wfcs are  815 randomized atomic wfcs

     total cpu time spent up to now is       12.0 secs

     Self-consistent Calculation

     iteration #  1     ecut=    50.00 Ry     beta= 0.10
     Davidson diagonalization with overlap
     ethr =  1.00E-02,  avg # of iterations =  6.0

     negative rho (up, down):  3.748E-01 3.339E-07
 
     Adding external electric field

     Computed dipole along edir(3) : 
        Dipole               -3.6109 Ry au,         -9.1780 Debye
        Dipole field         -0.0022 Ry au, 
 
        Potential amp.        0.2438 Ry
        Total length         55.1515 bohr
 
 
     Adding external electric field

     Computed dipole along edir(3) : 
        Dipole               -3.6109 Ry au,         -9.1780 Debye
        Dipole field         -0.0022 Ry au, 
 
        Potential amp.        0.2438 Ry
        Total length         55.1515 bohr
 

     total cpu time spent up to now is       43.6 secs

     total energy              =   -7517.09993709 Ry
     estimated scf accuracy    <     739.43771411 Ry

     total magnetization       =   219.00 Bohr mag/cell
     absolute magnetization    =   307.72 Bohr mag/cell

     iteration #  2     ecut=    50.00 Ry     beta= 0.10
     Davidson diagonalization with overlap
     ethr =  1.00E-02,  avg # of iterations =  2.0

     negative rho (up, down):  3.561E-01 1.656E-07
 
     Adding external electric field

     Computed dipole along edir(3) : 
        Dipole               -2.3863 Ry au,         -6.0654 Debye
        Dipole field         -0.0015 Ry au, 
 
        Potential amp.        0.1611 Ry
        Total length         55.1515 bohr
 
 
     Adding external electric field

     Computed dipole along edir(3) : 
        Dipole               -2.3863 Ry au,         -6.0654 Debye
        Dipole field         -0.0015 Ry au, 
 
        Potential amp.        0.1611 Ry
        Total length         55.1515 bohr
 

     total cpu time spent up to now is       62.3 secs

     total energy              =   -7600.42724600 Ry
     estimated scf accuracy    <     212.74409116 Ry

     total magnetization       =   158.89 Bohr mag/cell
     absolute magnetization    =   207.14 Bohr mag/cell

     iteration #  3     ecut=    50.00 Ry     beta= 0.10
     Davidson diagonalization with overlap
     ethr =  1.00E-02,  avg # of iterations =  1.5

     negative rho (up, down):  3.164E-01 1.320E-07
 
     Adding external electric field

     Computed dipole along edir(3) : 
        Dipole               -2.0610 Ry au,         -5.2385 Debye
        Dipole field         -0.0013 Ry au, 
 
        Potential amp.        0.1392 Ry
        Total length         55.1515 bohr
 
 
     Adding external electric field

     Computed dipole along edir(3) : 
        Dipole               -2.0610 Ry au,         -5.2385 Debye
        Dipole field         -0.0013 Ry au, 
 
        Potential amp.        0.1392 Ry
        Total length         55.1515 bohr
 

     total cpu time spent up to now is       77.4 secs

     total energy              =   -7630.66911526 Ry
     estimated scf accuracy    <     101.03756966 Ry

     total magnetization       =   135.35 Bohr mag/cell
     absolute magnetization    =   186.17 Bohr mag/cell

     iteration #  4     ecut=    50.00 Ry     beta= 0.10
     Davidson diagonalization with overlap
     ethr =  9.24E-03,  avg # of iterations =  1.0

     negative rho (up, down):  2.444E-01 2.709E-08
 
     Adding external electric field

     Computed dipole along edir(3) : 
        Dipole               -1.9735 Ry au,         -5.0161 Debye
        Dipole field         -0.0012 Ry au, 
 
        Potential amp.        0.1332 Ry
        Total length         55.1515 bohr
 
 
     Adding external electric field

     Computed dipole along edir(3) : 
        Dipole               -1.9735 Ry au,         -5.0161 Debye
        Dipole field         -0.0012 Ry au, 
 
        Potential amp.        0.1332 Ry
        Total length         55.1515 bohr
 

     total cpu time spent up to now is       91.3 secs

     total energy              =   -7663.89148888 Ry
     estimated scf accuracy    <      82.23957806 Ry

     total magnetization       =   119.51 Bohr mag/cell
     absolute magnetization    =   171.79 Bohr mag/cell

     iteration #  5     ecut=    50.00 Ry     beta= 0.10
     Davidson diagonalization with overlap
     ethr =  7.52E-03,  avg # of iterations =  1.0

     negative rho (up, down):  2.553E-02 3.928E-07
 
     Adding external electric field

     Computed dipole along edir(3) : 
        Dipole               -1.5834 Ry au,         -4.0247 Debye
        Dipole field         -0.0010 Ry au, 
 
        Potential amp.        0.1069 Ry
        Total length         55.1515 bohr
 
 
     Adding external electric field

     Computed dipole along edir(3) : 
        Dipole               -1.5834 Ry au,         -4.0247 Debye
        Dipole field         -0.0010 Ry au, 
 
        Potential amp.        0.1069 Ry
        Total length         55.1515 bohr
 

     total cpu time spent up to now is      105.5 secs

     total energy              =   -7723.63134524 Ry
     estimated scf accuracy    <      65.41336710 Ry

     total magnetization       =    97.18 Bohr mag/cell
     absolute magnetization    =   152.89 Bohr mag/cell

     iteration #  6     ecut=    50.00 Ry     beta= 0.10
     Davidson diagonalization with overlap
     ethr =  5.98E-03,  avg # of iterations =  1.5

     negative rho (up, down):  7.374E-04 1.398E-03
 
     Adding external electric field

     Computed dipole along edir(3) : 
        Dipole               -1.2694 Ry au,         -3.2266 Debye
        Dipole field         -0.0008 Ry au, 
 
        Potential amp.        0.0857 Ry
        Total length         55.1515 bohr
 
 
     Adding external electric field

     Computed dipole along edir(3) : 
        Dipole               -1.2694 Ry au,         -3.2266 Debye
        Dipole field         -0.0008 Ry au, 
 
        Potential amp.        0.0857 Ry
        Total length         55.1515 bohr
 

     total cpu time spent up to now is      119.8 secs

     total energy              =   -7735.71506595 Ry
     estimated scf accuracy    <      13.59660789 Ry

     total magnetization       =    91.00 Bohr mag/cell
     absolute magnetization    =   124.73 Bohr mag/cell

     iteration #  7     ecut=    50.00 Ry     beta= 0.10
     Davidson diagonalization with overlap
     ethr =  1.24E-03,  avg # of iterations =  7.0

     negative rho (up, down):  7.040E-04 1.295E-03
 
     Adding external electric field

     Computed dipole along edir(3) : 
        Dipole               -1.2501 Ry au,         -3.1774 Debye
        Dipole field         -0.0008 Ry au, 
 
        Potential amp.        0.0844 Ry
        Total length         55.1515 bohr
 
 
     Adding external electric field

     Computed dipole along edir(3) : 
        Dipole               -1.2501 Ry au,         -3.1774 Debye
        Dipole field         -0.0008 Ry au, 
 
        Potential amp.        0.0844 Ry
        Total length         55.1515 bohr
 

     total cpu time spent up to now is      146.1 secs

     total energy              =   -7738.49233727 Ry
     estimated scf accuracy    <      38.02833531 Ry

     total magnetization       =    65.21 Bohr mag/cell
     absolute magnetization    =    82.89 Bohr mag/cell

     iteration #  8     ecut=    50.00 Ry     beta= 0.10
     Davidson diagonalization with overlap
     ethr =  1.24E-03,  avg # of iterations =  1.0

     negative rho (up, down):  5.846E-04 9.741E-04
 
     Adding external electric field

     Computed dipole along edir(3) : 
        Dipole               -1.1698 Ry au,         -2.9733 Debye
        Dipole field         -0.0007 Ry au, 
 
        Potential amp.        0.0790 Ry
        Total length         55.1515 bohr
 
 
     Adding external electric field

     Computed dipole along edir(3) : 
        Dipole               -1.1698 Ry au,         -2.9733 Debye
        Dipole field         -0.0007 Ry au, 
 
        Potential amp.        0.0790 Ry
        Total length         55.1515 bohr
 

     total cpu time spent up to now is      160.0 secs

     total energy              =   -7738.35925468 Ry
     estimated scf accuracy    <      34.74026956 Ry

     total magnetization       =    66.22 Bohr mag/cell
     absolute magnetization    =    83.45 Bohr mag/cell

     iteration #  9     ecut=    50.00 Ry     beta= 0.10
     Davidson diagonalization with overlap
     ethr =  1.24E-03,  avg # of iterations =  1.0

     negative rho (up, down):  5.321E-04 8.963E-04
 
     Adding external electric field

     Computed dipole along edir(3) : 
        Dipole               -1.1463 Ry au,         -2.9135 Debye
        Dipole field         -0.0007 Ry au, 
 
        Potential amp.        0.0774 Ry
        Total length         55.1515 bohr
 
 
     Adding external electric field

     Computed dipole along edir(3) : 
        Dipole               -1.1463 Ry au,         -2.9135 Debye
        Dipole field         -0.0007 Ry au, 
 
        Potential amp.        0.0774 Ry
        Total length         55.1515 bohr
 

     total cpu time spent up to now is      173.5 secs

     total energy              =   -7738.33419223 Ry
     estimated scf accuracy    <      25.90763024 Ry

     total magnetization       =    68.27 Bohr mag/cell
     absolute magnetization    =    84.58 Bohr mag/cell

     iteration # 10     ecut=    50.00 Ry     beta= 0.10
     Davidson diagonalization with overlap
     ethr =  1.24E-03,  avg # of iterations =  1.0

     negative rho (up, down):  3.933E-04 8.091E-04
 
     Adding external electric field

     Computed dipole along edir(3) : 
        Dipole               -1.1641 Ry au,         -2.9588 Debye
        Dipole field         -0.0007 Ry au, 
 
        Potential amp.        0.0786 Ry
        Total length         55.1515 bohr
 
 
     Adding external electric field

     Computed dipole along edir(3) : 
        Dipole               -1.1641 Ry au,         -2.9588 Debye
        Dipole field         -0.0007 Ry au, 
 
        Potential amp.        0.0786 Ry
        Total length         55.1515 bohr
 

     total cpu time spent up to now is      186.8 secs

     total energy              =   -7738.00173532 Ry
     estimated scf accuracy    <      23.60640991 Ry

     total magnetization       =    68.72 Bohr mag/cell
     absolute magnetization    =    84.48 Bohr mag/cell

     iteration # 11     ecut=    50.00 Ry     beta= 0.10
     Davidson diagonalization with overlap
     ethr =  1.24E-03,  avg # of iterations =  1.0

     negative rho (up, down):  3.109E-04 6.682E-04
 
     Adding external electric field

     Computed dipole along edir(3) : 
        Dipole               -1.1091 Ry au,         -2.8190 Debye
        Dipole field         -0.0007 Ry au, 
 
        Potential amp.        0.0749 Ry
        Total length         55.1515 bohr
 
 
     Adding external electric field

     Computed dipole along edir(3) : 
        Dipole               -1.1091 Ry au,         -2.8190 Debye
        Dipole field         -0.0007 Ry au, 
 
        Potential amp.        0.0749 Ry
        Total length         55.1515 bohr
 

     total cpu time spent up to now is      199.5 secs

     total energy              =   -7737.97754544 Ry
     estimated scf accuracy    <      13.74398654 Ry

     total magnetization       =    72.68 Bohr mag/cell
     absolute magnetization    =    86.10 Bohr mag/cell

     iteration # 12     ecut=    50.00 Ry     beta= 0.10
     Davidson diagonalization with overlap
     ethr =  1.24E-03,  avg # of iterations =  1.0

     negative rho (up, down):  1.546E-04 3.948E-04
 
     Adding external electric field

     Computed dipole along edir(3) : 
        Dipole               -0.9168 Ry au,         -2.3303 Debye
        Dipole field         -0.0006 Ry au, 
 
        Potential amp.        0.0619 Ry
        Total length         55.1515 bohr
 
 
     Adding external electric field

     Computed dipole along edir(3) : 
        Dipole               -0.9168 Ry au,         -2.3303 Debye
        Dipole field         -0.0006 Ry au, 
 
        Potential amp.        0.0619 Ry
        Total length         55.1515 bohr
 

     total cpu time spent up to now is      212.6 secs

     total energy              =   -7737.87606847 Ry
     estimated scf accuracy    <       8.87498801 Ry

     total magnetization       =    76.25 Bohr mag/cell
     absolute magnetization    =    88.33 Bohr mag/cell

     iteration # 13     ecut=    50.00 Ry     beta= 0.10
     Davidson diagonalization with overlap
     ethr =  8.12E-04,  avg # of iterations =  1.0

     negative rho (up, down):  7.047E-05 2.527E-04
 
     Adding external electric field

     Computed dipole along edir(3) : 
        Dipole               -0.7478 Ry au,         -1.9008 Debye
        Dipole field         -0.0005 Ry au, 
 
        Potential amp.        0.0505 Ry
        Total length         55.1515 bohr
 
 
     Adding external electric field

     Computed dipole along edir(3) : 
        Dipole               -0.7478 Ry au,         -1.9008 Debye
        Dipole field         -0.0005 Ry au, 
 
        Potential amp.        0.0505 Ry
        Total length         55.1515 bohr
 

     total cpu time spent up to now is      224.6 secs

     total energy              =   -7738.07904057 Ry
     estimated scf accuracy    <       0.62304823 Ry

     total magnetization       =    86.54 Bohr mag/cell
     absolute magnetization    =    95.81 Bohr mag/cell

     iteration # 14     ecut=    50.00 Ry     beta= 0.10
     Davidson diagonalization with overlap
     ethr =  5.70E-05,  avg # of iterations =  9.5

     negative rho (up, down):  1.657E-05 9.183E-05
 
     Adding external electric field

     Computed dipole along edir(3) : 
        Dipole               -0.5000 Ry au,         -1.2708 Debye
        Dipole field         -0.0003 Ry au, 
 
        Potential amp.        0.0338 Ry
        Total length         55.1515 bohr
 
 
     Adding external electric field

     Computed dipole along edir(3) : 
        Dipole               -0.5000 Ry au,         -1.2708 Debye
        Dipole field         -0.0003 Ry au, 
 
        Potential amp.        0.0338 Ry
        Total length         55.1515 bohr
 

     total cpu time spent up to now is      246.8 secs

     total energy              =   -7738.17560510 Ry
     estimated scf accuracy    <       0.74177251 Ry

     total magnetization       =    88.30 Bohr mag/cell
     absolute magnetization    =    95.57 Bohr mag/cell

     iteration # 15     ecut=    50.00 Ry     beta= 0.10
     Davidson diagonalization with overlap
     ethr =  5.70E-05,  avg # of iterations =  2.0

     negative rho (up, down):  7.418E-06 2.630E-05
 
     Adding external electric field

     Computed dipole along edir(3) : 
        Dipole               -0.2829 Ry au,         -0.7192 Debye
        Dipole field         -0.0002 Ry au, 
 
        Potential amp.        0.0191 Ry
        Total length         55.1515 bohr
 
 
     Adding external electric field

     Computed dipole along edir(3) : 
        Dipole               -0.2829 Ry au,         -0.7192 Debye
        Dipole field         -0.0002 Ry au, 
 
        Potential amp.        0.0191 Ry
        Total length         55.1515 bohr
 

     total cpu time spent up to now is      261.0 secs

     total energy              =   -7738.26040022 Ry
     estimated scf accuracy    <       0.74612195 Ry

     total magnetization       =    87.41 Bohr mag/cell
     absolute magnetization    =    93.48 Bohr mag/cell

     iteration # 16     ecut=    50.00 Ry     beta= 0.10
     Davidson diagonalization with overlap
     ethr =  5.70E-05,  avg # of iterations =  2.0

     negative rho (up, down):  6.808E-06 2.236E-05
 
     Adding external electric field

     Computed dipole along edir(3) : 
        Dipole               -0.2849 Ry au,         -0.7241 Debye
        Dipole field         -0.0002 Ry au, 
 
        Potential amp.        0.0192 Ry
        Total length         55.1515 bohr
 
 
     Adding external electric field

     Computed dipole along edir(3) : 
        Dipole               -0.2849 Ry au,         -0.7241 Debye
        Dipole field         -0.0002 Ry au, 
 
        Potential amp.        0.0192 Ry
        Total length         55.1515 bohr
 

     total cpu time spent up to now is      275.7 secs

     total energy              =   -7738.28277179 Ry
     estimated scf accuracy    <       2.64285222 Ry

     total magnetization       =    86.64 Bohr mag/cell
     absolute magnetization    =    91.64 Bohr mag/cell

     iteration # 17     ecut=    50.00 Ry     beta= 0.10
     Davidson diagonalization with overlap
     ethr =  5.70E-05,  avg # of iterations =  1.5

     negative rho (up, down):  4.249E-06 2.265E-05
 
     Adding external electric field

     Computed dipole along edir(3) : 
        Dipole               -0.3177 Ry au,         -0.8076 Debye
        Dipole field         -0.0002 Ry au, 
 
        Potential amp.        0.0215 Ry
        Total length         55.1515 bohr
 
 
     Adding external electric field

     Computed dipole along edir(3) : 
        Dipole               -0.3177 Ry au,         -0.8076 Debye
        Dipole field         -0.0002 Ry au, 
 
        Potential amp.        0.0215 Ry
        Total length         55.1515 bohr
 

     total cpu time spent up to now is      289.2 secs

     total energy              =   -7738.26978888 Ry
     estimated scf accuracy    <       2.77880608 Ry

     total magnetization       =    86.33 Bohr mag/cell
     absolute magnetization    =    91.32 Bohr mag/cell

     iteration # 18     ecut=    50.00 Ry     beta= 0.10
     Davidson diagonalization with overlap
     ethr =  5.70E-05,  avg # of iterations =  1.5

     negative rho (up, down):  7.619E-07 2.658E-05
 
     Adding external electric field

     Computed dipole along edir(3) : 
        Dipole               -0.4160 Ry au,         -1.0574 Debye
        Dipole field         -0.0003 Ry au, 
 
        Potential amp.        0.0281 Ry
        Total length         55.1515 bohr
 
 
     Adding external electric field

     Computed dipole along edir(3) : 
        Dipole               -0.4160 Ry au,         -1.0574 Debye
        Dipole field         -0.0003 Ry au, 
 
        Potential amp.        0.0281 Ry
        Total length         55.1515 bohr
 

     total cpu time spent up to now is      303.0 secs

     total energy              =   -7738.21276475 Ry
     estimated scf accuracy    <       1.89125250 Ry

     total magnetization       =    86.15 Bohr mag/cell
     absolute magnetization    =    90.84 Bohr mag/cell

     iteration # 19     ecut=    50.00 Ry     beta= 0.10
     Davidson diagonalization with overlap
     ethr =  5.70E-05,  avg # of iterations =  1.5

     negative rho (up, down):  9.045E-08 6.051E-06
 
     Adding external electric field

     Computed dipole along edir(3) : 
        Dipole               -0.3100 Ry au,         -0.7879 Debye
        Dipole field         -0.0002 Ry au, 
 
        Potential amp.        0.0209 Ry
        Total length         55.1515 bohr
 
 
     Adding external electric field

     Computed dipole along edir(3) : 
        Dipole               -0.3100 Ry au,         -0.7879 Debye
        Dipole field         -0.0002 Ry au, 
 
        Potential amp.        0.0209 Ry
        Total length         55.1515 bohr
 

     total cpu time spent up to now is      317.0 secs

     total energy              =   -7738.26238526 Ry
     estimated scf accuracy    <       0.54587603 Ry

     total magnetization       =    87.14 Bohr mag/cell
     absolute magnetization    =    90.82 Bohr mag/cell

     iteration # 20     ecut=    50.00 Ry     beta= 0.10
     Davidson diagonalization with overlap
     ethr =  4.99E-05,  avg # of iterations =  1.5

     negative rho (up, down):  7.314E-09 7.029E-07
 
     Adding external electric field

     Computed dipole along edir(3) : 
        Dipole               -0.2731 Ry au,         -0.6942 Debye
        Dipole field         -0.0002 Ry au, 
 
        Potential amp.        0.0184 Ry
        Total length         55.1515 bohr
 
 
     Adding external electric field

     Computed dipole along edir(3) : 
        Dipole               -0.2731 Ry au,         -0.6942 Debye
        Dipole field         -0.0002 Ry au, 
 
        Potential amp.        0.0184 Ry
        Total length         55.1515 bohr
 

     total cpu time spent up to now is      330.3 secs

     total energy              =   -7738.29820075 Ry
     estimated scf accuracy    <       0.57488289 Ry

     total magnetization       =    86.86 Bohr mag/cell
     absolute magnetization    =    89.64 Bohr mag/cell

     iteration # 21     ecut=    50.00 Ry     beta= 0.10
     Davidson diagonalization with overlap
     ethr =  4.99E-05,  avg # of iterations =  1.5
 
     Adding external electric field

     Computed dipole along edir(3) : 
        Dipole               -0.1379 Ry au,         -0.3504 Debye
        Dipole field         -0.0001 Ry au, 
 
        Potential amp.        0.0093 Ry
        Total length         55.1515 bohr
 
 
     Adding external electric field

     Computed dipole along edir(3) : 
        Dipole               -0.1379 Ry au,         -0.3504 Debye
        Dipole field         -0.0001 Ry au, 
 
        Potential amp.        0.0093 Ry
        Total length         55.1515 bohr
 

     total cpu time spent up to now is      343.7 secs

     total energy              =   -7738.34572537 Ry
     estimated scf accuracy    <       0.35538191 Ry

     total magnetization       =    87.55 Bohr mag/cell
     absolute magnetization    =    89.74 Bohr mag/cell

     iteration # 22     ecut=    50.00 Ry     beta= 0.10
     Davidson diagonalization with overlap
     ethr =  3.25E-05,  avg # of iterations = 11.5

     negative rho (up, down):  7.992E-09 4.861E-08
 
     Adding external electric field

     Computed dipole along edir(3) : 
        Dipole               -0.1345 Ry au,         -0.3419 Debye
        Dipole field         -0.0001 Ry au, 
 
        Potential amp.        0.0091 Ry
        Total length         55.1515 bohr
 
 
     Adding external electric field

     Computed dipole along edir(3) : 
        Dipole               -0.1345 Ry au,         -0.3419 Debye
        Dipole field         -0.0001 Ry au, 
 
        Potential amp.        0.0091 Ry
        Total length         55.1515 bohr
 

     total cpu time spent up to now is      369.2 secs

     total energy              =   -7738.35599711 Ry
     estimated scf accuracy    <       0.21700846 Ry

     total magnetization       =    87.08 Bohr mag/cell
     absolute magnetization    =    88.66 Bohr mag/cell

     iteration # 23     ecut=    50.00 Ry     beta= 0.10
     Davidson diagonalization with overlap
     ethr =  1.99E-05,  avg # of iterations =  2.0

     negative rho (up, down):  2.235E-06 3.204E-06
 
     Adding external electric field

     Computed dipole along edir(3) : 
        Dipole               -0.2139 Ry au,         -0.5436 Debye
        Dipole field         -0.0001 Ry au, 
 
        Potential amp.        0.0144 Ry
        Total length         55.1515 bohr
 
 
     Adding external electric field

     Computed dipole along edir(3) : 
        Dipole               -0.2139 Ry au,         -0.5436 Debye
        Dipole field         -0.0001 Ry au, 
 
        Potential amp.        0.0144 Ry
        Total length         55.1515 bohr
 

     total cpu time spent up to now is      383.5 secs

     total energy              =   -7738.35512221 Ry
     estimated scf accuracy    <       0.20062137 Ry

     total magnetization       =    87.30 Bohr mag/cell
     absolute magnetization    =    88.74 Bohr mag/cell

     iteration # 24     ecut=    50.00 Ry     beta= 0.10
     Davidson diagonalization with overlap
     ethr =  1.84E-05,  avg # of iterations =  1.5

     negative rho (up, down):  1.513E-06 4.536E-06
 
     Adding external electric field

     Computed dipole along edir(3) : 
        Dipole               -0.2657 Ry au,         -0.6753 Debye
        Dipole field         -0.0002 Ry au, 
 
        Potential amp.        0.0179 Ry
        Total length         55.1515 bohr
 
 
     Adding external electric field

     Computed dipole along edir(3) : 
        Dipole               -0.2657 Ry au,         -0.6753 Debye
        Dipole field         -0.0002 Ry au, 
 
        Potential amp.        0.0179 Ry
        Total length         55.1515 bohr
 

     total cpu time spent up to now is      396.9 secs

     total energy              =   -7738.35446484 Ry
     estimated scf accuracy    <       0.06572339 Ry

     total magnetization       =    87.39 Bohr mag/cell
     absolute magnetization    =    88.87 Bohr mag/cell

     iteration # 25     ecut=    50.00 Ry     beta= 0.10
     Davidson diagonalization with overlap
     ethr =  6.01E-06,  avg # of iterations =  2.0

     negative rho (up, down):  1.930E-06 5.254E-06
 
     Adding external electric field

     Computed dipole along edir(3) : 
        Dipole               -0.2652 Ry au,         -0.6739 Debye
        Dipole field         -0.0002 Ry au, 
 
        Potential amp.        0.0179 Ry
        Total length         55.1515 bohr
 
 
     Adding external electric field

     Computed dipole along edir(3) : 
        Dipole               -0.2652 Ry au,         -0.6739 Debye
        Dipole field         -0.0002 Ry au, 
 
        Potential amp.        0.0179 Ry
        Total length         55.1515 bohr
 

     total cpu time spent up to now is      411.4 secs

     total energy              =   -7738.35577748 Ry
     estimated scf accuracy    <       0.05590366 Ry

     total magnetization       =    87.21 Bohr mag/cell
     absolute magnetization    =    88.92 Bohr mag/cell

     iteration # 26     ecut=    50.00 Ry     beta= 0.10
     Davidson diagonalization with overlap
     ethr =  5.11E-06,  avg # of iterations =  1.0

     negative rho (up, down):  1.611E-06 4.540E-06
 
     Adding external electric field

     Computed dipole along edir(3) : 
        Dipole               -0.2601 Ry au,         -0.6611 Debye
        Dipole field         -0.0002 Ry au, 
 
        Potential amp.        0.0176 Ry
        Total length         55.1515 bohr
 
 
     Adding external electric field

     Computed dipole along edir(3) : 
        Dipole               -0.2601 Ry au,         -0.6611 Debye
        Dipole field         -0.0002 Ry au, 
 
        Potential amp.        0.0176 Ry
        Total length         55.1515 bohr
 

     total cpu time spent up to now is      424.0 secs

     total energy              =   -7738.35515672 Ry
     estimated scf accuracy    <       0.05156818 Ry

     total magnetization       =    87.23 Bohr mag/cell
     absolute magnetization    =    88.92 Bohr mag/cell

     iteration # 27     ecut=    50.00 Ry     beta= 0.10
     Davidson diagonalization with overlap
     ethr =  4.72E-06,  avg # of iterations =  2.0

     negative rho (up, down):  2.416E-06 5.491E-06
 
     Adding external electric field

     Computed dipole along edir(3) : 
        Dipole               -0.2186 Ry au,         -0.5556 Debye
        Dipole field         -0.0001 Ry au, 
 
        Potential amp.        0.0148 Ry
        Total length         55.1515 bohr
 
 
     Adding external electric field

     Computed dipole along edir(3) : 
        Dipole               -0.2186 Ry au,         -0.5556 Debye
        Dipole field         -0.0001 Ry au, 
 
        Potential amp.        0.0148 Ry
        Total length         55.1515 bohr
 

     total cpu time spent up to now is      438.3 secs

     total energy              =   -7738.35394440 Ry
     estimated scf accuracy    <       0.06278409 Ry

     total magnetization       =    87.22 Bohr mag/cell
     absolute magnetization    =    88.93 Bohr mag/cell

     iteration # 28     ecut=    50.00 Ry     beta= 0.10
     Davidson diagonalization with overlap
     ethr =  4.72E-06,  avg # of iterations =  9.0

     negative rho (up, down):  9.623E-06 1.235E-05
 
     Adding external electric field

     Computed dipole along edir(3) : 
        Dipole               -0.2234 Ry au,         -0.5677 Debye
        Dipole field         -0.0001 Ry au, 
 
        Potential amp.        0.0151 Ry
        Total length         55.1515 bohr
 
 
     Adding external electric field

     Computed dipole along edir(3) : 
        Dipole               -0.2234 Ry au,         -0.5677 Debye
        Dipole field         -0.0001 Ry au, 
 
        Potential amp.        0.0151 Ry
        Total length         55.1515 bohr
 

     total cpu time spent up to now is      456.7 secs

     total energy              =   -7738.35417698 Ry
     estimated scf accuracy    <       0.08151123 Ry

     total magnetization       =    87.32 Bohr mag/cell
     absolute magnetization    =    89.04 Bohr mag/cell

     iteration # 29     ecut=    50.00 Ry     beta= 0.10
     Davidson diagonalization with overlap
     ethr =  4.72E-06,  avg # of iterations =  7.0

     negative rho (up, down):  2.017E-05 2.403E-05
 
     Adding external electric field

     Computed dipole along edir(3) : 
        Dipole               -0.2156 Ry au,         -0.5479 Debye
        Dipole field         -0.0001 Ry au, 
 
        Potential amp.        0.0146 Ry
        Total length         55.1515 bohr
 
 
     Adding external electric field

     Computed dipole along edir(3) : 
        Dipole               -0.2156 Ry au,         -0.5479 Debye
        Dipole field         -0.0001 Ry au, 
 
        Potential amp.        0.0146 Ry
        Total length         55.1515 bohr
 

     total cpu time spent up to now is      474.0 secs

     total energy              =   -7738.35386352 Ry
     estimated scf accuracy    <       0.06398953 Ry

     total magnetization       =    87.26 Bohr mag/cell
     absolute magnetization    =    88.96 Bohr mag/cell

     iteration # 30     ecut=    50.00 Ry     beta= 0.10
     Davidson diagonalization with overlap
     ethr =  4.72E-06,  avg # of iterations =  1.5

     negative rho (up, down):  4.725E-05 5.484E-05
 
     Adding external electric field

     Computed dipole along edir(3) : 
        Dipole               -0.1975 Ry au,         -0.5019 Debye
        Dipole field         -0.0001 Ry au, 
 
        Potential amp.        0.0133 Ry
        Total length         55.1515 bohr
 
 
     Adding external electric field

     Computed dipole along edir(3) : 
        Dipole               -0.1975 Ry au,         -0.5019 Debye
        Dipole field         -0.0001 Ry au, 
 
        Potential amp.        0.0133 Ry
        Total length         55.1515 bohr
 

     total cpu time spent up to now is      487.4 secs

     total energy              =   -7738.35367382 Ry
     estimated scf accuracy    <       0.05124467 Ry

     total magnetization       =    87.19 Bohr mag/cell
     absolute magnetization    =    88.89 Bohr mag/cell

     iteration # 31     ecut=    50.00 Ry     beta= 0.10
     Davidson diagonalization with overlap
     ethr =  4.69E-06,  avg # of iterations =  2.0

     negative rho (up, down):  9.893E-05 1.290E-04
 
     Adding external electric field

     Computed dipole along edir(3) : 
        Dipole               -0.1833 Ry au,         -0.4659 Debye
        Dipole field         -0.0001 Ry au, 
 
        Potential amp.        0.0124 Ry
        Total length         55.1515 bohr
 
 
     Adding external electric field

     Computed dipole along edir(3) : 
        Dipole               -0.1833 Ry au,         -0.4659 Debye
        Dipole field         -0.0001 Ry au, 
 
        Potential amp.        0.0124 Ry
        Total length         55.1515 bohr
 

     total cpu time spent up to now is      501.6 secs

     total energy              =   -7738.35288855 Ry
     estimated scf accuracy    <       0.04929771 Ry

     total magnetization       =    87.16 Bohr mag/cell
     absolute magnetization    =    88.76 Bohr mag/cell

     iteration # 32     ecut=    50.00 Ry     beta= 0.10
     Davidson diagonalization with overlap
     ethr =  4.51E-06,  avg # of iterations =  2.0

     negative rho (up, down):  9.987E-05 2.243E-04
 
     Adding external electric field

     Computed dipole along edir(3) : 
        Dipole               -0.1264 Ry au,         -0.3212 Debye
        Dipole field         -0.0001 Ry au, 
 
        Potential amp.        0.0085 Ry
        Total length         55.1515 bohr
 
 
     Adding external electric field

     Computed dipole along edir(3) : 
        Dipole               -0.1264 Ry au,         -0.3212 Debye
        Dipole field         -0.0001 Ry au, 
 
        Potential amp.        0.0085 Ry
        Total length         55.1515 bohr
 

     total cpu time spent up to now is      516.3 secs

     total energy              =   -7738.35082398 Ry
     estimated scf accuracy    <       0.04371179 Ry

     total magnetization       =    87.11 Bohr mag/cell
     absolute magnetization    =    88.72 Bohr mag/cell

     iteration # 33     ecut=    50.00 Ry     beta= 0.10
     Davidson diagonalization with overlap
     ethr =  4.00E-06,  avg # of iterations =  2.5

     negative rho (up, down):  1.764E-04 3.867E-04
 
     Adding external electric field

     Computed dipole along edir(3) : 
        Dipole               -0.1079 Ry au,         -0.2743 Debye
        Dipole field         -0.0001 Ry au, 
 
        Potential amp.        0.0073 Ry
        Total length         55.1515 bohr
 
 
     Adding external electric field

     Computed dipole along edir(3) : 
        Dipole               -0.1079 Ry au,         -0.2743 Debye
        Dipole field         -0.0001 Ry au, 
 
        Potential amp.        0.0073 Ry
        Total length         55.1515 bohr
 

     total cpu time spent up to now is      531.0 secs

     total energy              =   -7738.34992209 Ry
     estimated scf accuracy    <       0.04829166 Ry

     total magnetization       =    87.01 Bohr mag/cell
     absolute magnetization    =    88.65 Bohr mag/cell

     iteration # 34     ecut=    50.00 Ry     beta= 0.10
     Davidson diagonalization with overlap
     ethr =  4.00E-06,  avg # of iterations =  2.0

     negative rho (up, down):  2.740E-04 5.412E-04
 
     Adding external electric field

     Computed dipole along edir(3) : 
        Dipole               -0.1049 Ry au,         -0.2666 Debye
        Dipole field         -0.0001 Ry au, 
 
        Potential amp.        0.0071 Ry
        Total length         55.1515 bohr
 
 
     Adding external electric field

     Computed dipole along edir(3) : 
        Dipole               -0.1049 Ry au,         -0.2666 Debye
        Dipole field         -0.0001 Ry au, 
 
        Potential amp.        0.0071 Ry
        Total length         55.1515 bohr
 

     total cpu time spent up to now is      545.9 secs

     total energy              =   -7738.34998351 Ry
     estimated scf accuracy    <       0.04314189 Ry

     total magnetization       =    87.00 Bohr mag/cell
     absolute magnetization    =    88.73 Bohr mag/cell

     iteration # 35     ecut=    50.00 Ry     beta= 0.10
     Davidson diagonalization with overlap
     ethr =  3.95E-06,  avg # of iterations =  2.0

     negative rho (up, down):  2.852E-04 6.073E-04
 
     Adding external electric field

     Computed dipole along edir(3) : 
        Dipole               -0.1037 Ry au,         -0.2635 Debye
        Dipole field         -0.0001 Ry au, 
 
        Potential amp.        0.0070 Ry
        Total length         55.1515 bohr
 
 
     Adding external electric field

     Computed dipole along edir(3) : 
        Dipole               -0.1037 Ry au,         -0.2635 Debye
        Dipole field         -0.0001 Ry au, 
 
        Potential amp.        0.0070 Ry
        Total length         55.1515 bohr
 

     total cpu time spent up to now is      560.0 secs

     total energy              =   -7738.34767275 Ry
     estimated scf accuracy    <       0.03722446 Ry

     total magnetization       =    86.95 Bohr mag/cell
     absolute magnetization    =    88.70 Bohr mag/cell

     iteration # 36     ecut=    50.00 Ry     beta= 0.10
     Davidson diagonalization with overlap
     ethr =  3.41E-06,  avg # of iterations =  2.0

     negative rho (up, down):  2.944E-04 5.515E-04
 
     Adding external electric field

     Computed dipole along edir(3) : 
        Dipole               -0.0794 Ry au,         -0.2018 Debye
        Dipole field         -0.0000 Ry au, 
 
        Potential amp.        0.0054 Ry
        Total length         55.1515 bohr
 
 
     Adding external electric field

     Computed dipole along edir(3) : 
        Dipole               -0.0794 Ry au,         -0.2018 Debye
        Dipole field         -0.0000 Ry au, 
 
        Potential amp.        0.0054 Ry
        Total length         55.1515 bohr
 

     total cpu time spent up to now is      573.9 secs

     total energy              =   -7738.34914969 Ry
     estimated scf accuracy    <       0.03569678 Ry

     total magnetization       =    86.81 Bohr mag/cell
     absolute magnetization    =    88.70 Bohr mag/cell

     iteration # 37     ecut=    50.00 Ry     beta= 0.10
     Davidson diagonalization with overlap
     ethr =  3.27E-06,  avg # of iterations =  2.0

     negative rho (up, down):  2.326E-04 4.784E-04
 
     Adding external electric field

     Computed dipole along edir(3) : 
        Dipole               -0.0921 Ry au,         -0.2341 Debye
        Dipole field         -0.0001 Ry au, 
 
        Potential amp.        0.0062 Ry
        Total length         55.1515 bohr
 
 
     Adding external electric field

     Computed dipole along edir(3) : 
        Dipole               -0.0921 Ry au,         -0.2341 Debye
        Dipole field         -0.0001 Ry au, 
 
        Potential amp.        0.0062 Ry
        Total length         55.1515 bohr
 

     total cpu time spent up to now is      588.2 secs

     total energy              =   -7738.34945763 Ry
     estimated scf accuracy    <       0.04225051 Ry

     total magnetization       =    86.95 Bohr mag/cell
     absolute magnetization    =    88.80 Bohr mag/cell

     iteration # 38     ecut=    50.00 Ry     beta= 0.10
     Davidson diagonalization with overlap
     ethr =  3.27E-06,  avg # of iterations =  2.0

     negative rho (up, down):  6.792E-05 2.303E-04
 
     Adding external electric field

     Computed dipole along edir(3) : 
        Dipole               -0.1167 Ry au,         -0.2965 Debye
        Dipole field         -0.0001 Ry au, 
 
        Potential amp.        0.0079 Ry
        Total length         55.1515 bohr
 
 
     Adding external electric field

     Computed dipole along edir(3) : 
        Dipole               -0.1167 Ry au,         -0.2965 Debye
        Dipole field         -0.0001 Ry au, 
 
        Potential amp.        0.0079 Ry
        Total length         55.1515 bohr
 

     total cpu time spent up to now is      602.7 secs

     total energy              =   -7738.34791088 Ry
     estimated scf accuracy    <       0.04112105 Ry

     total magnetization       =    86.91 Bohr mag/cell
     absolute magnetization    =    88.71 Bohr mag/cell

     iteration # 39     ecut=    50.00 Ry     beta= 0.10
     Davidson diagonalization with overlap
     ethr =  3.27E-06,  avg # of iterations =  2.0

     negative rho (up, down):  1.591E-04 4.146E-04
 
     Adding external electric field

     Computed dipole along edir(3) : 
        Dipole               -0.1088 Ry au,         -0.2766 Debye
        Dipole field         -0.0001 Ry au, 
 
        Potential amp.        0.0073 Ry
        Total length         55.1515 bohr
 
 
     Adding external electric field

     Computed dipole along edir(3) : 
        Dipole               -0.1088 Ry au,         -0.2766 Debye
        Dipole field         -0.0001 Ry au, 
 
        Potential amp.        0.0073 Ry
        Total length         55.1515 bohr
 

     total cpu time spent up to now is      617.0 secs

     total energy              =   -7738.34876071 Ry
     estimated scf accuracy    <       0.03874695 Ry

     total magnetization       =    86.90 Bohr mag/cell
     absolute magnetization    =    88.73 Bohr mag/cell

     iteration # 40     ecut=    50.00 Ry     beta= 0.10
     Davidson diagonalization with overlap
     ethr =  3.27E-06,  avg # of iterations =  1.5

     negative rho (up, down):  3.550E-04 7.053E-04
 
     Adding external electric field

     Computed dipole along edir(3) : 
        Dipole               -0.0909 Ry au,         -0.2311 Debye
        Dipole field         -0.0001 Ry au, 
 
        Potential amp.        0.0061 Ry
        Total length         55.1515 bohr
 
 
     Adding external electric field

     Computed dipole along edir(3) : 
        Dipole               -0.0909 Ry au,         -0.2311 Debye
        Dipole field         -0.0001 Ry au, 
 
        Potential amp.        0.0061 Ry
        Total length         55.1515 bohr
 

     total cpu time spent up to now is      630.0 secs

     total energy              =   -7738.34820783 Ry
     estimated scf accuracy    <       0.03948542 Ry

     total magnetization       =    86.90 Bohr mag/cell
     absolute magnetization    =    88.71 Bohr mag/cell

     iteration # 41     ecut=    50.00 Ry     beta= 0.10
     Davidson diagonalization with overlap
     ethr =  3.27E-06,  avg # of iterations =  2.0

     negative rho (up, down):  2.295E-04 4.792E-04
 
     Adding external electric field

     Computed dipole along edir(3) : 
        Dipole               -0.1000 Ry au,         -0.2542 Debye
        Dipole field         -0.0001 Ry au, 
 
        Potential amp.        0.0068 Ry
        Total length         55.1515 bohr
 
 
     Adding external electric field

     Computed dipole along edir(3) : 
        Dipole               -0.1000 Ry au,         -0.2542 Debye
        Dipole field         -0.0001 Ry au, 
 
        Potential amp.        0.0068 Ry
        Total length         55.1515 bohr
 

     total cpu time spent up to now is      644.7 secs

     total energy              =   -7738.34838113 Ry
     estimated scf accuracy    <       0.03323172 Ry

     total magnetization       =    86.88 Bohr mag/cell
     absolute magnetization    =    88.74 Bohr mag/cell

     iteration # 42     ecut=    50.00 Ry     beta= 0.10
     Davidson diagonalization with overlap
     ethr =  3.04E-06,  avg # of iterations =  2.0

     negative rho (up, down):  2.486E-04 6.439E-04
 
     Adding external electric field

     Computed dipole along edir(3) : 
        Dipole               -0.0999 Ry au,         -0.2539 Debye
        Dipole field         -0.0001 Ry au, 
 
        Potential amp.        0.0067 Ry
        Total length         55.1515 bohr
 
 
     Adding external electric field

     Computed dipole along edir(3) : 
        Dipole               -0.0999 Ry au,         -0.2539 Debye
        Dipole field         -0.0001 Ry au, 
 
        Potential amp.        0.0067 Ry
        Total length         55.1515 bohr
 

     total cpu time spent up to now is      659.2 secs

     total energy              =   -7738.34864219 Ry
     estimated scf accuracy    <       0.03390867 Ry

     total magnetization       =    86.91 Bohr mag/cell
     absolute magnetization    =    88.79 Bohr mag/cell

     iteration # 43     ecut=    50.00 Ry     beta= 0.10
     Davidson diagonalization with overlap
     ethr =  3.04E-06,  avg # of iterations =  2.0

     negative rho (up, down):  2.674E-04 6.834E-04
 
     Adding external electric field

     Computed dipole along edir(3) : 
        Dipole               -0.1250 Ry au,         -0.3177 Debye
        Dipole field         -0.0001 Ry au, 
 
        Potential amp.        0.0084 Ry
        Total length         55.1515 bohr
 
 
     Adding external electric field

     Computed dipole along edir(3) : 
        Dipole               -0.1250 Ry au,         -0.3177 Debye
        Dipole field         -0.0001 Ry au, 
 
        Potential amp.        0.0084 Ry
        Total length         55.1515 bohr
 

     total cpu time spent up to now is      673.8 secs

     total energy              =   -7738.34743587 Ry
     estimated scf accuracy    <       0.03276054 Ry

     total magnetization       =    86.83 Bohr mag/cell
     absolute magnetization    =    88.58 Bohr mag/cell

     iteration # 44     ecut=    50.00 Ry     beta= 0.10
     Davidson diagonalization with overlap
     ethr =  3.00E-06,  avg # of iterations =  2.0

     negative rho (up, down):  3.168E-04 7.091E-04
 
     Adding external electric field

     Computed dipole along edir(3) : 
        Dipole               -0.0315 Ry au,         -0.0800 Debye
        Dipole field         -0.0000 Ry au, 
 
        Potential amp.        0.0021 Ry
        Total length         55.1515 bohr
 
 
     Adding external electric field

     Computed dipole along edir(3) : 
        Dipole               -0.0315 Ry au,         -0.0800 Debye
        Dipole field         -0.0000 Ry au, 
 
        Potential amp.        0.0021 Ry
        Total length         55.1515 bohr
 

     total cpu time spent up to now is      688.0 secs

     total energy              =   -7738.34768154 Ry
     estimated scf accuracy    <       0.03614256 Ry

     total magnetization       =    86.85 Bohr mag/cell
     absolute magnetization    =    88.68 Bohr mag/cell

     iteration # 45     ecut=    50.00 Ry     beta= 0.10
     Davidson diagonalization with overlap
     ethr =  3.00E-06,  avg # of iterations =  2.0

     negative rho (up, down):  2.486E-04 5.266E-04
 
     Adding external electric field

     Computed dipole along edir(3) : 
        Dipole               -0.0253 Ry au,         -0.0643 Debye
        Dipole field         -0.0000 Ry au, 
 
        Potential amp.        0.0017 Ry
        Total length         55.1515 bohr
 
 
     Adding external electric field

     Computed dipole along edir(3) : 
        Dipole               -0.0253 Ry au,         -0.0643 Debye
        Dipole field         -0.0000 Ry au, 
 
        Potential amp.        0.0017 Ry
        Total length         55.1515 bohr
 

     total cpu time spent up to now is      701.9 secs

     total energy              =   -7738.34934728 Ry
     estimated scf accuracy    <       0.03227886 Ry

     total magnetization       =    86.78 Bohr mag/cell
     absolute magnetization    =    88.58 Bohr mag/cell

     iteration # 46     ecut=    50.00 Ry     beta= 0.10
     Davidson diagonalization with overlap
     ethr =  2.95E-06,  avg # of iterations =  2.0

     negative rho (up, down):  4.294E-04 7.204E-04
 
     Adding external electric field

     Computed dipole along edir(3) : 
        Dipole               -0.0074 Ry au,         -0.0187 Debye
        Dipole field         -0.0000 Ry au, 
 
        Potential amp.        0.0005 Ry
        Total length         55.1515 bohr
 
 
     Adding external electric field

     Computed dipole along edir(3) : 
        Dipole               -0.0074 Ry au,         -0.0187 Debye
        Dipole field         -0.0000 Ry au, 
 
        Potential amp.        0.0005 Ry
        Total length         55.1515 bohr
 

     total cpu time spent up to now is      716.6 secs

     total energy              =   -7738.35002483 Ry
     estimated scf accuracy    <       0.03206574 Ry

     total magnetization       =    86.82 Bohr mag/cell
     absolute magnetization    =    88.52 Bohr mag/cell

     iteration # 47     ecut=    50.00 Ry     beta= 0.10
     Davidson diagonalization with overlap
     ethr =  2.93E-06,  avg # of iterations =  2.0

     negative rho (up, down):  6.268E-04 8.791E-04
 
     Adding external electric field

     Computed dipole along edir(3) : 
        Dipole                0.0014 Ry au,          0.0036 Debye
        Dipole field          0.0000 Ry au, 
 
        Potential amp.       -0.0001 Ry
        Total length         55.1515 bohr
 
 
     Adding external electric field

     Computed dipole along edir(3) : 
        Dipole                0.0014 Ry au,          0.0036 Debye
        Dipole field          0.0000 Ry au, 
 
        Potential amp.       -0.0001 Ry
        Total length         55.1515 bohr
 

     total cpu time spent up to now is      730.8 secs

     total energy              =   -7738.35044519 Ry
     estimated scf accuracy    <       0.03182426 Ry

     total magnetization       =    86.88 Bohr mag/cell
     absolute magnetization    =    88.57 Bohr mag/cell

     iteration # 48     ecut=    50.00 Ry     beta= 0.10
     Davidson diagonalization with overlap
     c_bands:  5 eigenvalues not converged
     ethr =  2.91E-06,  avg # of iterations = 11.0

     negative rho (up, down):  6.727E-04 1.040E-03
 
     Adding external electric field

     Computed dipole along edir(3) : 
        Dipole                0.0240 Ry au,          0.0611 Debye
        Dipole field          0.0000 Ry au, 
 
        Potential amp.       -0.0016 Ry
        Total length         55.1515 bohr
 
 
     Adding external electric field

     Computed dipole along edir(3) : 
        Dipole                0.0240 Ry au,          0.0611 Debye
        Dipole field          0.0000 Ry au, 
 
        Potential amp.       -0.0016 Ry
        Total length         55.1515 bohr
 

     total cpu time spent up to now is      750.6 secs

     total energy              =   -7738.34965145 Ry
     estimated scf accuracy    <       0.03340636 Ry

     total magnetization       =    86.93 Bohr mag/cell
     absolute magnetization    =    88.62 Bohr mag/cell

     iteration # 49     ecut=    50.00 Ry     beta= 0.10
     Davidson diagonalization with overlap
     c_bands:  3 eigenvalues not converged
     ethr =  2.91E-06,  avg # of iterations = 11.0

     negative rho (up, down):  2.155E-03 2.858E-03
 
     Adding external electric field

     Computed dipole along edir(3) : 
        Dipole                0.1013 Ry au,          0.2575 Debye
        Dipole field          0.0001 Ry au, 
 
        Potential amp.       -0.0068 Ry
        Total length         55.1515 bohr
 
 
     Adding external electric field

     Computed dipole along edir(3) : 
        Dipole                0.1013 Ry au,          0.2575 Debye
        Dipole field          0.0001 Ry au, 
 
        Potential amp.       -0.0068 Ry
        Total length         55.1515 bohr
 

     total cpu time spent up to now is      770.8 secs

     total energy              =   -7738.34941667 Ry
     estimated scf accuracy    <       0.02921764 Ry

     total magnetization       =    86.88 Bohr mag/cell
     absolute magnetization    =    88.57 Bohr mag/cell

     iteration # 50     ecut=    50.00 Ry     beta= 0.10
     Davidson diagonalization with overlap
     c_bands:  3 eigenvalues not converged
     ethr =  2.67E-06,  avg # of iterations = 11.0

     negative rho (up, down):  1.841E-03 2.545E-03
 
     Adding external electric field

     Computed dipole along edir(3) : 
        Dipole                0.1230 Ry au,          0.3125 Debye
        Dipole field          0.0001 Ry au, 
 
        Potential amp.       -0.0083 Ry
        Total length         55.1515 bohr
 
 
     Adding external electric field

     Computed dipole along edir(3) : 
        Dipole                0.1230 Ry au,          0.3125 Debye
        Dipole field          0.0001 Ry au, 
 
        Potential amp.       -0.0083 Ry
        Total length         55.1515 bohr
 

     total cpu time spent up to now is      791.1 secs

     total energy              =   -7738.34904827 Ry
     estimated scf accuracy    <       0.02606841 Ry

     total magnetization       =    86.86 Bohr mag/cell
     absolute magnetization    =    88.52 Bohr mag/cell

     iteration # 51     ecut=    50.00 Ry     beta= 0.10
     Davidson diagonalization with overlap
     ethr =  2.39E-06,  avg # of iterations =  2.0

     negative rho (up, down):  1.321E-03 2.049E-03
 
     Adding external electric field

     Computed dipole along edir(3) : 
        Dipole                0.1261 Ry au,          0.3205 Debye
        Dipole field          0.0001 Ry au, 
 
        Potential amp.       -0.0085 Ry
        Total length         55.1515 bohr
 
 
     Adding external electric field

     Computed dipole along edir(3) : 
        Dipole                0.1261 Ry au,          0.3205 Debye
        Dipole field          0.0001 Ry au, 
 
        Potential amp.       -0.0085 Ry
        Total length         55.1515 bohr
 

     total cpu time spent up to now is      805.2 secs

     total energy              =   -7738.34844150 Ry
     estimated scf accuracy    <       0.02538044 Ry

     total magnetization       =    86.85 Bohr mag/cell
     absolute magnetization    =    88.50 Bohr mag/cell

     iteration # 52     ecut=    50.00 Ry     beta= 0.10
     Davidson diagonalization with overlap
     ethr =  2.32E-06,  avg # of iterations =  2.0

     negative rho (up, down):  1.324E-03 2.176E-03
 
     Adding external electric field

     Computed dipole along edir(3) : 
        Dipole                0.1455 Ry au,          0.3699 Debye
        Dipole field          0.0001 Ry au, 
 
        Potential amp.       -0.0098 Ry
        Total length         55.1515 bohr
 
 
     Adding external electric field

     Computed dipole along edir(3) : 
        Dipole                0.1455 Ry au,          0.3699 Debye
        Dipole field          0.0001 Ry au, 
 
        Potential amp.       -0.0098 Ry
        Total length         55.1515 bohr
 

     total cpu time spent up to now is      819.8 secs

     total energy              =   -7738.34769644 Ry
     estimated scf accuracy    <       0.02509928 Ry

     total magnetization       =    86.85 Bohr mag/cell
     absolute magnetization    =    88.47 Bohr mag/cell

     iteration # 53     ecut=    50.00 Ry     beta= 0.10
     Davidson diagonalization with overlap
     ethr =  2.30E-06,  avg # of iterations =  1.5

     negative rho (up, down):  1.495E-03 2.506E-03
 
     Adding external electric field

     Computed dipole along edir(3) : 
        Dipole                0.1794 Ry au,          0.4560 Debye
        Dipole field          0.0001 Ry au, 
 
        Potential amp.       -0.0121 Ry
        Total length         55.1515 bohr
 
 
     Adding external electric field

     Computed dipole along edir(3) : 
        Dipole                0.1794 Ry au,          0.4560 Debye
        Dipole field          0.0001 Ry au, 
 
        Potential amp.       -0.0121 Ry
        Total length         55.1515 bohr
 

     total cpu time spent up to now is      833.6 secs

     total energy              =   -7738.34730527 Ry
     estimated scf accuracy    <       0.02426791 Ry

     total magnetization       =    86.82 Bohr mag/cell
     absolute magnetization    =    88.44 Bohr mag/cell

     iteration # 54     ecut=    50.00 Ry     beta= 0.10
     Davidson diagonalization with overlap
     ethr =  2.22E-06,  avg # of iterations =  2.0

     negative rho (up, down):  2.236E-04 5.987E-04
 
     Adding external electric field

     Computed dipole along edir(3) : 
        Dipole                0.2639 Ry au,          0.6708 Debye
        Dipole field          0.0002 Ry au, 
 
        Potential amp.       -0.0178 Ry
        Total length         55.1515 bohr
 
 
     Adding external electric field

     Computed dipole along edir(3) : 
        Dipole                0.2639 Ry au,          0.6708 Debye
        Dipole field          0.0002 Ry au, 
 
        Potential amp.       -0.0178 Ry
        Total length         55.1515 bohr
 

     total cpu time spent up to now is      847.7 secs

     total energy              =   -7738.34715301 Ry
     estimated scf accuracy    <       0.02264218 Ry

     total magnetization       =    86.79 Bohr mag/cell
     absolute magnetization    =    88.43 Bohr mag/cell

     iteration # 55     ecut=    50.00 Ry     beta= 0.10
     Davidson diagonalization with overlap
     c_bands:  2 eigenvalues not converged
     ethr =  2.07E-06,  avg # of iterations = 21.0

     negative rho (up, down):  2.829E-05 8.955E-05
 
     Adding external electric field

     Computed dipole along edir(3) : 
        Dipole                0.2780 Ry au,          0.7067 Debye
        Dipole field          0.0002 Ry au, 
 
        Potential amp.       -0.0188 Ry
        Total length         55.1515 bohr
 
 
     Adding external electric field

     Computed dipole along edir(3) : 
        Dipole                0.2780 Ry au,          0.7067 Debye
        Dipole field          0.0002 Ry au, 
 
        Potential amp.       -0.0188 Ry
        Total length         55.1515 bohr
 

     total cpu time spent up to now is      879.3 secs

     total energy              =   -7738.34592814 Ry
     estimated scf accuracy    <       0.01204164 Ry

     total magnetization       =    86.92 Bohr mag/cell
     absolute magnetization    =    88.59 Bohr mag/cell

     iteration # 56     ecut=    50.00 Ry     beta= 0.10
     Davidson diagonalization with overlap
     ethr =  1.10E-06,  avg # of iterations =  2.0

     negative rho (up, down):  9.313E-06 2.553E-05
 
     Adding external electric field

     Computed dipole along edir(3) : 
        Dipole                0.3017 Ry au,          0.7668 Debye
        Dipole field          0.0002 Ry au, 
 
        Potential amp.       -0.0204 Ry
        Total length         55.1515 bohr
 
 
     Adding external electric field

     Computed dipole along edir(3) : 
        Dipole                0.3017 Ry au,          0.7668 Debye
        Dipole field          0.0002 Ry au, 
 
        Potential amp.       -0.0204 Ry
        Total length         55.1515 bohr
 

     total cpu time spent up to now is      893.3 secs

     total energy              =   -7738.34636458 Ry
     estimated scf accuracy    <       0.00817302 Ry

     total magnetization       =    86.91 Bohr mag/cell
     absolute magnetization    =    88.72 Bohr mag/cell

     iteration # 57     ecut=    50.00 Ry     beta= 0.10
     Davidson diagonalization with overlap
     ethr =  7.48E-07,  avg # of iterations =  2.0

     negative rho (up, down):  1.050E-04 1.214E-04
 
     Adding external electric field

     Computed dipole along edir(3) : 
        Dipole                0.3463 Ry au,          0.8802 Debye
        Dipole field          0.0002 Ry au, 
 
        Potential amp.       -0.0234 Ry
        Total length         55.1515 bohr
 
 
     Adding external electric field

     Computed dipole along edir(3) : 
        Dipole                0.3463 Ry au,          0.8802 Debye
        Dipole field          0.0002 Ry au, 
 
        Potential amp.       -0.0234 Ry
        Total length         55.1515 bohr
 

     total cpu time spent up to now is      907.4 secs

     total energy              =   -7738.34855575 Ry
     estimated scf accuracy    <       0.00664844 Ry

     total magnetization       =    86.94 Bohr mag/cell
     absolute magnetization    =    88.77 Bohr mag/cell

     iteration # 58     ecut=    50.00 Ry     beta= 0.10
     Davidson diagonalization with overlap
     c_bands:  3 eigenvalues not converged
     ethr =  6.08E-07,  avg # of iterations = 20.0

     negative rho (up, down):  4.379E-07 1.625E-07
 
     Adding external electric field

     Computed dipole along edir(3) : 
        Dipole                0.2895 Ry au,          0.7357 Debye
[...]
    -5.9675  -5.9437  -5.9214  -5.9163  -5.9014  -5.8779  -5.8743  -5.8436
    -5.8147  -5.8122  -5.7947  -5.7697  -5.7455  -5.7379  -5.7003  -5.6949
    -5.6865  -5.6534  -5.6104  -5.5882  -5.5787  -5.5441  -5.5265  -5.5066
    -5.4973  -5.4896  -5.4700  -5.4598  -5.4223  -5.4134  -5.3919  -5.3682
    -5.2990  -5.2384  -5.2292  -5.2050  -5.1940  -5.1816  -5.1539  -5.1042
    -5.0396  -5.0296  -5.0057  -4.9646  -4.9569  -4.9382  -4.9195  -4.8663
    -4.8214  -4.7714  -4.7648  -4.7542  -4.7467  -4.7036  -4.6727  -4.6632
    -4.5768  -4.5418  -4.4974  -4.4879  -4.4318  -4.4233  -4.3971  -4.3756
    -4.3662  -4.3393  -4.2229  -4.2139  -4.1889  -4.1646  -4.1357  -4.1081
    -4.0966  -4.0892  -4.0696  -3.9970  -3.9717  -3.9497  -3.9298  -3.9138
    -3.8678  -3.8293  -3.8237  -3.7996  -3.7936  -3.7654  -3.7348  -3.6968
    -3.6751  -3.6424  -3.6208  -3.6125  -3.6095  -3.5882  -3.5875  -3.5689
    -3.5372  -3.5189  -3.5080  -3.4857  -3.4813  -3.4649  -3.4521  -3.4211
    -3.4026  -3.3942  -3.3792  -3.3622  -3.3387  -3.3035  -3.2869  -3.2628
    -3.2362  -3.2340  -3.2154  -3.2049  -3.1933  -3.1462  -3.1259  -3.0999
    -3.0514  -3.0473  -3.0395  -3.0308  -3.0293  -3.0221  -3.0141  -2.9732
    -2.9425  -2.9369  -2.9284  -2.8784  -2.8678  -2.8642  -2.8093  -2.7930
    -2.7684  -2.7663  -2.7567  -2.7540  -2.7328  -2.7287  -2.7080  -2.7024
    -2.6869  -2.6640  -2.6557  -2.6274  -2.6233  -2.6094  -2.6037  -2.5940
    -2.5918  -2.5736  -2.5569  -2.5381  -2.5239  -2.5183  -2.4779  -2.4709
    -2.4491  -2.4405  -2.4193  -2.3919  -2.3585  -2.3512  -2.3312  -2.2994
    -2.2775  -2.2677  -2.2484  -2.2195  -2.2020  -2.1789  -2.1626  -2.1335
    -2.1261  -2.1179  -2.1106  -2.1013  -2.0742  -2.0626  -2.0207  -1.9931
    -1.9746  -1.9618  -1.9487  -1.9296  -1.9144  -1.9079  -1.8915  -1.8623
    -1.8518  -1.8356  -1.8151  -1.8074  -1.8007  -1.7879  -1.7708  -1.7634
    -1.7458  -1.7175  -1.7000  -1.6403  -1.6373  -1.6283  -1.5783  -1.5659
    -1.5614  -1.5329  -1.5100  -1.4997  -1.4881  -1.4801  -1.4472  -1.4342
    -1.4186  -1.4070  -1.3975  -1.3787  -1.3529  -1.3339  -1.3236  -1.3152
    -1.2716  -1.2592  -1.2410  -1.2097  -1.1864  -1.1580  -1.1179  -1.0773
    -1.0091  -0.9044  -0.8905  -0.8695  -0.8470  -0.7235  -0.7133  -0.5556
    -0.4784  -0.3145  -0.2679  -0.1359   0.1834   0.2139   0.2309   0.2481
     0.2540   0.2696   0.2964   0.3087   0.3305   0.3338   0.3535   0.3647
     0.3707   0.3763   0.3931   0.4070   0.4163   0.4177   0.4197   0.4256
     0.4307   0.4339   0.4498   0.4569   0.4595   0.4654   0.4779   0.4930
     0.4958   0.5042   0.5082   0.5159   0.5247   0.5359   0.5361   0.5431
     0.5636   0.5695   0.5781   0.5789   0.5855   0.5983   0.6013   0.6155
     0.6247   0.6264   0.6432   0.6457   0.6497   0.6536   0.6768   0.6809
     0.6847   0.6928   0.6985   0.7078   0.7143   0.7347   0.7393   0.7515
     0.7593   0.7628   0.7645   0.7748   0.7957   0.7991   0.8072   0.8127
     0.8215   0.8230   0.8319   0.8423   0.8535   0.8613   0.8718   0.8718
     0.8815   0.8938   0.9290   0.9398   0.9546   0.9568   0.9605   0.9863
     1.0006   1.0157   1.1001   1.1024   1.2011   1.2232   1.7496   1.7546
     1.7616   1.7747   1.7813   1.7897   1.8079   1.8222   1.8278   1.9066
     1.9223   1.9385   1.9678   1.9851   2.0246   2.0327   2.0476   2.1036
     2.1235   2.1357   2.1480   2.1505   2.1905   2.1964   2.2216   2.2325
     2.2469   2.2593   2.2875   2.2949   2.3047   2.3436   2.3573   2.3633
     2.3764   2.3912   2.3991   2.4170   2.4342   2.4499   2.4585   2.4788
     2.4890   2.5085   2.5114   2.5297   2.5386   2.5585   2.5894   2.6137
     2.6237   2.6374   2.6409   2.6970   2.7784   2.7964   2.8437   2.8642
     2.8933   2.9112   3.3100   3.5099   3.6341   3.6966   3.7764   3.8611
     3.9038   3.9275   3.9323   3.9562   4.0011   4.0707   4.0787   4.0910
     4.1136   4.1437   4.1514   4.1697   4.1862   4.4191   4.4979   4.6410
     4.8341   4.8822   4.9144   4.9386   4.9699   5.0335   5.0502   5.1067
     5.1286   5.1667   5.3956   6.2683   6.3616   6.4984   6.6020   6.6851
     6.7543   6.8342   6.8571   6.9087   6.9622   7.0465   7.0901   7.1839
     7.2441   7.3240   7.3540   7.3978   7.4718   7.5184   7.6175   7.6642
     7.6953   7.7036   7.7442   7.7774   7.8527   7.8632   7.8993   7.9487
     7.9843   8.0091   8.0575   8.0808   8.1172   8.1729   8.2057   8.2185
     8.2230   8.2759   8.3148   8.3361   8.3898   8.4125   8.4232   8.4400
     8.4541   8.4779   8.5086   8.5200   8.5457   8.5673   8.6073   8.6309
     8.6598   8.6931   8.6981   8.7299   8.7472   8.7858   8.8271   8.8616

     the Fermi energy is     1.6635 ev

!    total energy              =   -7738.34975819 Ry
     estimated scf accuracy    <       0.00000084 Ry
     smearing contrib. (-TS)   =      -0.02174604 Ry
     internal energy E=F+TS    =   -7738.32801215 Ry

     The total energy is F=E-TS. E is the sum of the following terms:
     one-electron contribution =  -95249.24273094 Ry
     hartree contribution      =   48240.72338425 Ry
     xc contribution           =   -2218.73469367 Ry
     ewald contribution        =   41490.73611152 Ry
     Dispersion Correction     =      -1.81019654 Ry
     electric field correction =       0.00011324 Ry

     total magnetization       =    86.97 Bohr mag/cell
     absolute magnetization    =    88.48 Bohr mag/cell

     convergence has been achieved in  75 iterations

     negative rho (up, down):  1.049E-03 5.971E-04

     Forces acting on atoms (cartesian axes, Ry/au):

     atom    1 type  1   force =     0.02513432   -0.03099142    0.01837865
     atom    2 type  2   force =    -0.01371363   -0.00152420   -0.00978884
     atom    3 type  1   force =    -0.02320104   -0.01845012    0.01974301
     atom    4 type  1   force =     0.00574498    0.00416623   -0.00633250
     atom    5 type  1   force =    -0.00191413    0.00116648   -0.00522652
     atom    6 type  1   force =     0.00207611    0.00774711   -0.00899303
     atom    7 type  3   force =    -0.00769027    0.00123187   -0.01056151
     atom    8 type  3   force =    -0.03501660    0.05415079   -0.08333928
     atom    9 type  3   force =     0.03414330    0.03817603   -0.06435131
     atom   10 type  3   force =    -0.00305601   -0.00245804   -0.01171649
     atom   11 type  4   force =     0.00663530    0.00547775    0.01382991
     atom   12 type  4   force =    -0.00032603   -0.00287935    0.01492722
     atom   13 type  4   force =     0.00199890    0.00178958    0.01750991
     atom   14 type  4   force =    -0.00044793   -0.00135609    0.01262238
     atom   15 type  4   force =    -0.00071186    0.00450749   -0.00184888
     atom   16 type  4   force =    -0.00047448    0.00273177    0.04002851
     atom   17 type  4   force =     0.00175499    0.00820328    0.03752418
     atom   18 type  4   force =     0.00802272   -0.00453307   -0.00034781
     atom   19 type  4   force =     0.00051633    0.01198477    0.00428851
     atom   20 type  4   force =    -0.00955341   -0.02693641   -0.00373261
     atom   21 type  4   force =    -0.01126161   -0.00042266    0.00067292
     atom   22 type  4   force =    -0.03227173    0.00308398    0.00782367
     atom   23 type  4   force =     0.03223334    0.00055879    0.01405753
     atom   24 type  4   force =     0.00693436   -0.03711128    0.00373141
     atom   25 type  4   force =    -0.00321480    0.00184186    0.00398285
     atom   26 type  4   force =     0.01794107   -0.00684251    0.00081859
     atom   27 type  1   force =    -0.00514471   -0.00889958    0.00307300
     atom   28 type  2   force =    -0.01322447   -0.00023074    0.00465035
     atom   29 type  1   force =     0.00298593   -0.00497709   -0.00110846
     atom   30 type  1   force =     0.00251681    0.00457933   -0.00171884
     atom   31 type  1   force =     0.00153476   -0.00482979    0.00059262
     atom   32 type  1   force =    -0.00068897    0.00137288   -0.00138389
     atom   33 type  3   force =    -0.00674015   -0.00317844   -0.00170851
     atom   34 type  3   force =    -0.00787288    0.00257081   -0.00008045
     atom   35 type  3   force =     0.00443055   -0.00060082    0.00259733
     atom   36 type  3   force =     0.00062149   -0.00044516   -0.00565122
     atom   37 type  4   force =     0.00853189    0.00534646    0.00726181
     atom   38 type  4   force =     0.00376437   -0.00085296   -0.01939630
     atom   39 type  4   force =    -0.00155958    0.00365150   -0.00973946
     atom   40 type  4   force =    -0.00149995   -0.00251472    0.00959568
     atom   41 type  4   force =    -0.00221373    0.00497156   -0.00769858
     atom   42 type  4   force =    -0.00449620   -0.00434659    0.01788025
     atom   43 type  4   force =     0.00772669    0.00340515    0.00770749
     atom   44 type  4   force =     0.01027613   -0.00583451   -0.00659339
     atom   45 type  4   force =     0.00280299    0.00377530    0.00062138
     atom   46 type  4   force =     0.00239942   -0.00022304   -0.00557367
     atom   47 type  4   force =    -0.01271111   -0.00078925   -0.00343783
     atom   48 type  4   force =    -0.01472812    0.00124367    0.00343986
     atom   49 type  4   force =     0.01365663    0.00254799    0.00441183
     atom   50 type  4   force =    -0.00274096   -0.00502244   -0.00048221
     atom   51 type  4   force =    -0.00530341    0.00189861    0.00026587
     atom   52 type  4   force =     0.01542933   -0.00345645   -0.00467545
     atom   53 type  1   force =     0.00037973    0.00022186   -0.00001705
     atom   54 type  2   force =     0.00336086    0.00097946   -0.00328664
     atom   55 type  1   force =    -0.00001282    0.00023910    0.00029464
     atom   56 type  1   force =     0.00012101    0.00002167    0.00023172
     atom   57 type  1   force =     0.00038652   -0.00014047    0.00040187
     atom   58 type  1   force =     0.00025367    0.00005919    0.00033642
     atom   59 type  3   force =     0.00092552    0.00018825   -0.00045408
     atom   60 type  3   force =     0.00008457   -0.00066589    0.00023771
     atom   61 type  3   force =    -0.00003036    0.00006304    0.00022040
     atom   62 type  3   force =    -0.00010343   -0.00024876   -0.00017280
     atom   63 type  4   force =    -0.00013476   -0.00015531    0.00043327
     atom   64 type  4   force =     0.00016464   -0.00064455    0.00014796
     atom   65 type  4   force =    -0.00004728    0.00031029    0.00008057
     atom   66 type  4   force =    -0.00022482    0.00014980    0.00018608
     atom   67 type  4   force =     0.00053867   -0.00050424    0.00096016
     atom   68 type  4   force =    -0.00008353    0.00046867   -0.00000677
     atom   69 type  4   force =     0.00020562   -0.00085470   -0.00068617
     atom   70 type  4   force =     0.00024652    0.00001429    0.00020206
     atom   71 type  4   force =    -0.00003673   -0.00032669    0.00023547
     atom   72 type  4   force =    -0.00007864    0.00034278   -0.00036114
     atom   73 type  4   force =     0.00013812    0.00006051   -0.00048073
     atom   74 type  4   force =     0.00050002    0.00009176    0.00022839
     atom   75 type  4   force =    -0.00015124    0.00017362    0.00027772
     atom   76 type  4   force =    -0.00004681    0.00042903    0.00058816
     atom   77 type  4   force =    -0.00008529   -0.00034365    0.00042142
     atom   78 type  4   force =    -0.00045924   -0.00059492   -0.00037858
     atom   79 type  1   force =     0.02513743   -0.03099211    0.01838408
     atom   80 type  2   force =    -0.01370540   -0.00156674   -0.00976432
     atom   81 type  1   force =    -0.02320219   -0.01844862    0.01974481
     atom   82 type  1   force =     0.00573601    0.00416751   -0.00632565
     atom   83 type  1   force =    -0.00191660    0.00116341   -0.00522559
     atom   84 type  1   force =     0.00207872    0.00775203   -0.00899179
     atom   85 type  3   force =    -0.00769966    0.00119717   -0.01050440
     atom   86 type  3   force =    -0.03501408    0.05414980   -0.08333801
     atom   87 type  3   force =     0.03414579    0.03817448   -0.06434941
     atom   88 type  3   force =    -0.00304281   -0.00245994   -0.01171810
     atom   89 type  4   force =     0.00674870    0.00548336    0.01381738
     atom   90 type  4   force =    -0.00022578   -0.00279468    0.01491942
     atom   91 type  4   force =     0.00208935    0.00178153    0.01748498
     atom   92 type  4   force =    -0.00028460   -0.00135322    0.01262097
     atom   93 type  4   force =    -0.00070952    0.00471849   -0.00175487
     atom   94 type  4   force =    -0.00053904    0.00269040    0.03982420
     atom   95 type  4   force =     0.00188601    0.00820465    0.03752395
     atom   96 type  4   force =     0.00781652   -0.00455085   -0.00036687
     atom   97 type  4   force =     0.00060370    0.01204244    0.00419111
     atom   98 type  4   force =    -0.00944728   -0.02676899   -0.00370005
     atom   99 type  4   force =    -0.01127298   -0.00038888    0.00086683
     atom  100 type  4   force =    -0.03230328    0.00298039    0.00769597
     atom  101 type  4   force =     0.03226283    0.00056169    0.01406483
     atom  102 type  4   force =     0.00675480   -0.03711136    0.00373565
     atom  103 type  4   force =    -0.00312312    0.00179522    0.00394606
     atom  104 type  4   force =     0.01806869   -0.00684553    0.00080394
     atom  105 type  1   force =    -0.00532039   -0.00880494    0.00302146
     atom  106 type  2   force =    -0.01342576    0.00025147    0.00480172
     atom  107 type  1   force =     0.00303192   -0.00498667   -0.00108711
     atom  108 type  1   force =     0.00271742    0.00368071   -0.00087196
     atom  109 type  1   force =     0.00140584   -0.00477336    0.00052078
     atom  110 type  1   force =    -0.00099978    0.00138410   -0.00134098
     atom  111 type  3   force =    -0.00683496   -0.00341937   -0.00091568
     atom  112 type  3   force =    -0.00810850    0.00270538   -0.00026020
     atom  113 type  3   force =     0.00442874   -0.00068681    0.00260775
     atom  114 type  3   force =     0.00060928    0.00038883   -0.00517301
     atom  115 type  4   force =     0.00878726    0.00536284    0.00717424
     atom  116 type  4   force =     0.00382576   -0.00095872   -0.01944054
     atom  117 type  4   force =    -0.00133904    0.00369654   -0.00970700
     atom  118 type  4   force =    -0.00127696   -0.00285581    0.00959847
     atom  119 type  4   force =    -0.00307868    0.00399096   -0.00721841
     atom  120 type  4   force =    -0.00419389   -0.00458005    0.01784522
     atom  121 type  4   force =     0.00776311    0.00340861    0.00772679
     atom  122 type  4   force =     0.01018858   -0.00584325   -0.00599499
     atom  123 type  4   force =     0.00300455    0.00349375   -0.00030403
     atom  124 type  4   force =     0.00228711   -0.00011767   -0.00555771
     atom  125 type  4   force =    -0.01262629   -0.00088299   -0.00333852
     atom  126 type  4   force =    -0.01480061    0.00126243    0.00343201
     atom  127 type  4   force =     0.01357018    0.00243723    0.00450406
     atom  128 type  4   force =    -0.00287232   -0.00506276   -0.00044507
     atom  129 type  4   force =    -0.00558518    0.00203363   -0.00000773
     atom  130 type  4   force =     0.01564063   -0.00363774   -0.00444468
     atom  131 type  1   force =     0.00039723    0.00010957    0.00039755
     atom  132 type  2   force =    -0.00093733   -0.00023943    0.00010354
     atom  133 type  1   force =    -0.00009962    0.00007677    0.00042127
     atom  134 type  1   force =    -0.00021662   -0.00030337   -0.00049061
     atom  135 type  1   force =     0.00033886   -0.00044955    0.00032132
     atom  136 type  1   force =     0.00060270   -0.00014920    0.00039193
     atom  137 type  3   force =    -0.00032097    0.00041113   -0.00030350
     atom  138 type  3   force =    -0.00014062   -0.00027836    0.00036006
     atom  139 type  3   force =     0.00033472   -0.00010567    0.00002451
     atom  140 type  3   force =     0.00001916   -0.00004422   -0.00041762
     atom  141 type  4   force =     0.00028109    0.00061494    0.00000948
     atom  142 type  4   force =    -0.00000841   -0.00002950    0.00011319
     atom  143 type  4   force =     0.00043317   -0.00018732   -0.00007104
     atom  144 type  4   force =    -0.00012658    0.00007495   -0.00020403
     atom  145 type  4   force =     0.00053116    0.00008392    0.00023963
     atom  146 type  4   force =     0.00009086    0.00017718    0.00049171
     atom  147 type  4   force =    -0.00052366   -0.00049057   -0.00014162
     atom  148 type  4   force =     0.00040413    0.00011067    0.00011131
     atom  149 type  4   force =    -0.00009935   -0.00080613   -0.00005360
     atom  150 type  4   force =     0.00000336   -0.00025259    0.00013244
     atom  151 type  4   force =     0.00026388   -0.00016098   -0.00010319
     atom  152 type  4   force =     0.00059856   -0.00007582   -0.00008150
     atom  153 type  4   force =    -0.00018886    0.00027302   -0.00020836
     atom  154 type  4   force =     0.00055837    0.00011452   -0.00002327
     atom  155 type  4   force =     0.00007676    0.00002550   -0.00020860
     atom  156 type  4   force =    -0.00007273    0.00012013   -0.00003894
     atom  157 type  4   force =    -0.01438100    0.00478103    0.00585403
     atom  158 type  5   force =     0.01069606   -0.00627703   -0.00152581

     Total force =     0.263658     Total SCF correction =     0.004360
 
     init_run     :      8.96s CPU      9.69s WALL (       1 calls)
     electrons    :   1122.11s CPU   1179.21s WALL (       1 calls)
     forces       :      4.41s CPU      4.92s WALL (       1 calls)
     force_london :      0.12s CPU      0.12s WALL (       1 calls)

     Called by init_run:
     wfcinit      :      5.11s CPU      5.29s WALL (       1 calls)
     potinit      :      0.64s CPU      0.81s WALL (       1 calls)
     hinit0       :      1.57s CPU      1.68s WALL (       1 calls)

     Called by electrons:
     c_bands      :    890.02s CPU    920.82s WALL (      75 calls)
     sum_band     :    147.24s CPU    161.24s WALL (      75 calls)
     v_of_rho     :     20.48s CPU     21.60s WALL (      76 calls)
     newd         :     42.76s CPU     54.02s WALL (      76 calls)
     mix_rho      :     20.73s CPU     20.87s WALL (      75 calls)
     energy_londo :      0.11s CPU      0.11s WALL (       1 calls)

     Called by c_bands:
     init_us_2    :      2.79s CPU      2.88s WALL (     304 calls)
     init_us_2:cp :      2.79s CPU      2.88s WALL (     304 calls)
     regterg      :    869.36s CPU    899.84s WALL (     152 calls)

     Called by *egterg:
     rdiaghg      :    259.41s CPU    274.70s WALL (     668 calls)
     h_psi        :    339.16s CPU    345.84s WALL (     670 calls)
     s_psi        :     69.16s CPU     69.23s WALL (     670 calls)
     g_psi        :      0.51s CPU      0.52s WALL (     516 calls)

     Called by h_psi:
     h_psi:calbec :     83.30s CPU     88.38s WALL (     670 calls)
     vloc_psi     :    186.20s CPU    187.12s WALL (     670 calls)
     add_vuspsi   :     68.85s CPU     69.51s WALL (     670 calls)

     General routines
     calbec       :    123.11s CPU    130.73s WALL (     828 calls)
     fft          :     15.07s CPU     16.68s WALL (    1381 calls)
     ffts         :     13.04s CPU     13.09s WALL (    9329 calls)
     fftw         :    207.89s CPU    208.83s WALL (  256604 calls)
     interpolate  :      1.58s CPU      1.64s WALL (     152 calls)
 
     Parallel routines
 
     PWSCF        :  18m57.68s CPU  19m56.27s WALL

 
   This run was terminated on:  21:27:20  17Nov2025            

=------------------------------------------------------------------------------=
   JOB DONE.
=------------------------------------------------------------------------------=
