
     Program PWSCF v.7.2 starts on 18Nov2025 at  0:40:58 

     This program is part of the open-source Quantum ESPRESSO suite
     for quantum simulation of materials; please cite
         "P. Giannozzi et al., J. Phys.:Condens. Matter 21 395502 (2009);
         "P. Giannozzi et al., J. Phys.:Condens. Matter 29 465901 (2017);
         "P. Giannozzi et al., J. Chem. Phys. 152 154105 (2020);
          URL http://www.quantum-espresso.org", 
     in publications or presentations arising from this work. More details at
     http://www.quantum-espresso.org/quote

     Parallel version (MPI), running on    64 processors

     MPI processes distributed on     4 nodes
     342801 MiB available memory on the printing compute node when the environment starts
 
     Reading input from PWINPUT_atm158_ym

     Current dimensions of program PWSCF are:
     Max number of different atomic species (ntypx) = 10
     Max number of k-points (npk) =  40000
     Max angular momentum in pseudopotentials (lmaxx) =  4
     Presently no symmetry can be used with electric field

     file Ni.pbe-n-rrkjus_psl.1.0.0.UPF: wavefunction(s)  3D renormalized
     file Mn.pbe-spn-rrkjus_psl.0.3.1.UPF: wavefunction(s)  3D renormalized
     file O.pbe-rrkjus.UPF: wavefunction(s)  2S renormalized
     file H.pbe-rrkjus.UPF: wavefunction(s)  1S renormalized

     gamma-point specific algorithms are used
 
     R & G space division:  proc/nbgrp/npool/nimage =      64
     Subspace diagonalization in iterative solution of the eigenvalue problem:
     one sub-group per band group will be used
     custom distributed-memory algorithm (size of sub-group:  7*  7 procs)

 
     Parallelization info
     --------------------
     sticks:   dense  smooth     PW     G-vecs:    dense   smooth      PW
     Min         207      82     20                60552    15302    1896
     Max         210      84     22                60574    15336    1950
     Sum       13325    5345   1333              3876045   980655  122653
 
     Using Slab Decomposition
 


     bravais-lattice index     =            0
     lattice parameter (alat)  =      17.4067  a.u.
     unit-cell volume          =   20529.8182 (a.u.)^3
     number of atoms/cell      =          158
     number of atomic types    =            5
     number of electrons       =      1093.00
     number of Kohn-Sham states=          656
     kinetic-energy cutoff     =      50.0000  Ry
     charge density cutoff     =     500.0000  Ry
     scf convergence threshold =      1.0E-06
     mixing beta               =       0.1000
     number of iterations used =            8  local-TF  mixing
     Exchange-correlation=  SLA  PW   PBE  PBE
                           (   1   4   3   4   0   0   0)

     celldm(1)=  17.406729  celldm(2)=   0.000000  celldm(3)=   0.000000
     celldm(4)=   0.000000  celldm(5)=   0.000000  celldm(6)=   0.000000

     crystal axes: (cart. coord. in units of alat)
               a(1) = (   1.000000   0.000000   0.000000 )  
               a(2) = (  -0.001404   1.105696   0.000000 )  
               a(3) = (   0.000000   0.000000   3.520448 )  

     reciprocal axes: (cart. coord. in units 2 pi/alat)
               b(1) = (  1.000000  0.001270  0.000000 )  
               b(2) = (  0.000000  0.904408  0.000000 )  
               b(3) = (  0.000000  0.000000  0.284055 )  


     PseudoPot. # 1 for Ni read from file:
     ~/PSEUDO/Ni.pbe-n-rrkjus_psl.1.0.0.UPF
     MD5 check sum: Not computed, couldn't open file
     Pseudo is Ultrasoft + core correction, Zval = 10.0
     Generated using "atomic" code by A. Dal Corso  v.5.1.2
     Using radial grid of 1195 points,  6 beta functions with: 
                l(1) =   0
                l(2) =   0
                l(3) =   1
                l(4) =   1
                l(5) =   2
                l(6) =   2
     Q(r) pseudized with 0 coefficients 


     PseudoPot. # 2 for Mn read from file:
     ~/PSEUDO/Mn.pbe-spn-rrkjus_psl.0.3.1.UPF
     MD5 check sum: Not computed, couldn't open file
     Pseudo is Ultrasoft + core correction, Zval = 15.0
     Generated using &quot;atomic&quot; code by A. Dal Corso  v.6.2.2
     Using radial grid of 1187 points,  6 beta functions with: 
                l(1) =   0
                l(2) =   0
                l(3) =   1
                l(4) =   1
                l(5) =   2
                l(6) =   2
     Q(r) pseudized with 0 coefficients 


     PseudoPot. # 3 for P  read from file:
     ~/PSEUDO/P.pbe-n-rrkjus_psl.1.0.0.UPF
     MD5 check sum: Not computed, couldn't open file
     Pseudo is Ultrasoft + core correction, Zval =  5.0
     Generated using "atomic" code by A. Dal Corso  v.5.1
     Using radial grid of 1147 points,  6 beta functions with: 
                l(1) =   0
                l(2) =   0
                l(3) =   1
                l(4) =   1
                l(5) =   2
                l(6) =   2
     Q(r) pseudized with 0 coefficients 


     PseudoPot. # 4 for O  read from file:
     ~/PSEUDO/O.pbe-rrkjus.UPF
     MD5 check sum: Not computed, couldn't open file
     Pseudo is Ultrasoft, Zval =  6.0
     Generated by new atomic code, or converted to UPF format
     Using radial grid of 1269 points,  4 beta functions with: 
                l(1) =   0
                l(2) =   0
                l(3) =   1
                l(4) =   1
     Q(r) pseudized with 0 coefficients 


     PseudoPot. # 5 for H  read from file:
     ~/PSEUDO/H.pbe-rrkjus.UPF
     MD5 check sum: Not computed, couldn't open file
     Pseudo is Ultrasoft, Zval =  1.0
     Generated by new atomic code, or converted to UPF format
     Using radial grid of 1061 points,  2 beta functions with: 
                l(1) =   0
                l(2) =   0
     Q(r) pseudized with 0 coefficients 


     atomic species   valence    mass     pseudopotential
     Ni               10.00    58.69300     Ni( 1.00)
     Mn               15.00    54.93800     Mn( 1.00)
     P                 5.00    30.97300     P ( 1.00)
     O                 6.00    15.99900     O ( 1.00)
     H                 1.00     1.00790     H ( 1.00)

     Starting magnetic structure 
     atomic species   magnetization
     Ni              1.000
     Mn              1.000
     P               1.000
     O               1.000
     H               0.000

     No symmetry found



   Cartesian axes

     site n.     atom                  positions (alat units)
         1        Ni     tau(   1) = (   0.2421002   0.8609138   0.1302181  )
         2        Mn     tau(   2) = (   0.4924481   0.7886602   0.4655392  )
         3        Ni     tau(   3) = (   0.0052341   0.3031820   0.1284544  )
         4        Ni     tau(   4) = (   0.2570603   0.2374878   0.4617901  )
         5        Ni     tau(   5) = (   0.4976584   1.1048203   0.2964410  )
         6        Ni     tau(   6) = (   0.2495781   0.5440308   0.2953805  )
         7        P      tau(   7) = (   0.2083492   0.9982113   0.4588145  )
         8        P      tau(   8) = (   0.4584476   0.6559264   0.1347090  )
         9        P      tau(   9) = (   0.2889394   0.1031966   0.1319347  )
        10        P      tau(  10) = (   0.0400379   0.4338094   0.4586283  )
        11        O      tau(  11) = (   0.1314218   0.9248062   0.3189972  )
        12        O      tau(  12) = (   0.3797244   0.7272031   0.2742874  )
        13        O      tau(  13) = (   0.3662315   0.1762062   0.2720888  )
        14        O      tau(  14) = (   0.1171240   0.3646150   0.3169340  )
        15        O      tau(  15) = (   0.1510364   0.9068326   0.5881934  )
        16        O      tau(  16) = (   0.3981989   0.7453439   0.0053495  )
        17        O      tau(  17) = (   0.3490561   0.1888693   0.0010856  )
        18        O      tau(  18) = (   0.0982395   0.3475583   0.5894443  )
        19        O      tau(  19) = (   0.0992163   0.5918099   0.4542505  )
        20        O      tau(  20) = (   0.3467441   1.0504690   0.1405000  )
        21        O      tau(  21) = (   0.3739183   0.4303319   0.4477971  )
        22        O      tau(  22) = (   0.1230967   0.1088895   0.1422960  )
        23        O      tau(  23) = (   0.1242901   0.6635968   0.1442928  )
        24        O      tau(  24) = (   0.4011802   0.4971632   0.1376281  )
        25        O      tau(  25) = (   0.1484006   0.0497464   0.4550965  )
        26        O      tau(  26) = (   0.3736100   0.9942556   0.4492158  )
        27        Ni     tau(  27) = (   0.2413539   0.8509941   0.7820408  )
        28        Mn     tau(  28) = (   0.4917018   0.7787406   1.1173619  )
        29        Ni     tau(  29) = (   0.0044877   0.2932623   0.7802771  )
        30        Ni     tau(  30) = (   0.2563139   0.2275682   1.1136128  )
        31        Ni     tau(  31) = (   0.4969120   1.0949007   0.9482637  )
        32        Ni     tau(  32) = (   0.2488318   0.5341111   0.9472032  )
        33        P      tau(  33) = (   0.2076029   0.9882917   1.1106372  )
        34        P      tau(  34) = (   0.4577012   0.6460068   0.7865316  )
        35        P      tau(  35) = (   0.2881931   0.0932770   0.7837574  )
        36        P      tau(  36) = (   0.0392916   0.4238898   1.1104509  )
        37        O      tau(  37) = (   0.1306755   0.9148866   0.9708199  )
        38        O      tau(  38) = (   0.3789780   0.7172835   0.9261101  )
        39        O      tau(  39) = (   0.3654852   0.1662865   0.9239115  )
        40        O      tau(  40) = (   0.1163776   0.3546954   0.9687567  )
        41        O      tau(  41) = (   0.1502901   0.8969129   1.2400160  )
        42        O      tau(  42) = (   0.3974525   0.7354243   0.6571722  )
        43        O      tau(  43) = (   0.3483097   0.1789497   0.6529083  )
        44        O      tau(  44) = (   0.0974932   0.3376387   1.2412670  )
        45        O      tau(  45) = (   0.0984699   0.5818903   1.1060732  )
        46        O      tau(  46) = (   0.3459978   1.0405493   0.7923226  )
        47        O      tau(  47) = (   0.3731719   0.4204123   1.0996198  )
        48        O      tau(  48) = (   0.1223503   0.0989699   0.7941187  )
        49        O      tau(  49) = (   0.1235438   0.6536772   0.7961155  )
        50        O      tau(  50) = (   0.4004339   0.4872435   0.7894508  )
        51        O      tau(  51) = (   0.1476543   0.0398268   1.1069192  )
        52        O      tau(  52) = (   0.3728637   0.9843360   1.1010385  )
        53        Ni     tau(  53) = (   0.2405000   0.8314791   1.4310848  )
        54        Mn     tau(  54) = (   0.4953493   0.7643247   1.7724492  )
        55        Ni     tau(  55) = (   0.0038518   0.2756365   1.4285360  )
        56        Ni     tau(  56) = (   0.2471345   0.2153113   1.7400474  )
        57        Ni     tau(  57) = (   0.4995752   1.0720933   1.5947286  )
        58        Ni     tau(  58) = (   0.2421013   0.5219868   1.5980514  )
        59        P      tau(  59) = (   0.2104375   0.9681194   1.7574697  )
        60        P      tau(  60) = (   0.4534410   0.6275485   1.4348057  )
        61        P      tau(  61) = (   0.2894259   0.0743283   1.4290817  )
        62        P      tau(  62) = (   0.0298192   0.4013010   1.7598256  )
        63        O      tau(  63) = (   0.1358441   0.9005122   1.6129847  )
        64        O      tau(  64) = (   0.3771008   0.7024676   1.5717788  )
        65        O      tau(  65) = (   0.3674645   0.1471109   1.5680584  )
        66        O      tau(  66) = (   0.1092283   0.3457090   1.6100373  )
        67        O      tau(  67) = (   0.1496755   0.8741583   1.8808047  )
        68        O      tau(  68) = (   0.3923953   0.7169116   1.3059963  )
        69        O      tau(  69) = (   0.3499475   0.1644431   1.3009773  )
        70        O      tau(  70) = (   0.0894679   0.3000020   1.8751501  )
        71        O      tau(  71) = (   0.0835747   0.5628016   1.7646462  )
        72        O      tau(  72) = (   0.3492253   1.0223474   1.4345599  )
        73        O      tau(  73) = (   0.3642103   0.4027294   1.7423561  )
        74        O      tau(  74) = (   0.1229734   0.0811149   1.4416195  )
        75        O      tau(  75) = (   0.1204474   0.6369096   1.4465931  )
        76        O      tau(  76) = (   0.3946534   0.4694481   1.4371785  )
        77        O      tau(  77) = (   0.1552554   0.0214678   1.7549498  )
        78        O      tau(  78) = (   0.3781421   0.9602342   1.7485231  )
        79        Ni     tau(  79) = (   0.7421002   0.8609138   0.1302181  )
        80        Mn     tau(  80) = (   0.9924481   0.7886602   0.4655392  )
        81        Ni     tau(  81) = (   0.5052341   0.3031820   0.1284544  )
        82        Ni     tau(  82) = (   0.7570603   0.2374878   0.4617901  )
        83        Ni     tau(  83) = (   0.9976584   1.1048203   0.2964410  )
        84        Ni     tau(  84) = (   0.7495781   0.5440308   0.2953805  )
        85        P      tau(  85) = (   0.7083492   0.9982113   0.4588145  )
        86        P      tau(  86) = (   0.9584476   0.6559264   0.1347090  )
        87        P      tau(  87) = (   0.7889394   0.1031966   0.1319347  )
        88        P      tau(  88) = (   0.5400379   0.4338094   0.4586283  )
        89        O      tau(  89) = (   0.6314218   0.9248062   0.3189972  )
        90        O      tau(  90) = (   0.8797244   0.7272031   0.2742874  )
        91        O      tau(  91) = (   0.8662315   0.1762062   0.2720888  )
        92        O      tau(  92) = (   0.6171240   0.3646150   0.3169340  )
        93        O      tau(  93) = (   0.6510364   0.9068326   0.5881934  )
        94        O      tau(  94) = (   0.8981989   0.7453439   0.0053495  )
        95        O      tau(  95) = (   0.8490561   0.1888693   0.0010856  )
        96        O      tau(  96) = (   0.5982395   0.3475583   0.5894443  )
        97        O      tau(  97) = (   0.5992163   0.5918099   0.4542505  )
        98        O      tau(  98) = (   0.8467441   1.0504690   0.1405000  )
        99        O      tau(  99) = (   0.8739183   0.4303319   0.4477971  )
       100        O      tau( 100) = (   0.6230967   0.1088895   0.1422960  )
       101        O      tau( 101) = (   0.6242901   0.6635968   0.1442928  )
       102        O      tau( 102) = (   0.9011802   0.4971632   0.1376281  )
       103        O      tau( 103) = (   0.6484006   0.0497464   0.4550965  )
       104        O      tau( 104) = (   0.8736100   0.9942556   0.4492158  )
       105        Ni     tau( 105) = (   0.7413539   0.8509941   0.7820408  )
       106        Mn     tau( 106) = (   0.9917018   0.7787406   1.1173619  )
       107        Ni     tau( 107) = (   0.5044877   0.2932623   0.7802771  )
       108        Ni     tau( 108) = (   0.7563139   0.2275682   1.1136128  )
       109        Ni     tau( 109) = (   0.9969120   1.0949007   0.9482637  )
       110        Ni     tau( 110) = (   0.7488318   0.5341111   0.9472032  )
       111        P      tau( 111) = (   0.7076029   0.9882917   1.1106372  )
       112        P      tau( 112) = (   0.9577012   0.6460068   0.7865316  )
       113        P      tau( 113) = (   0.7881931   0.0932770   0.7837574  )
       114        P      tau( 114) = (   0.5392916   0.4238898   1.1104509  )
       115        O      tau( 115) = (   0.6306755   0.9148866   0.9708199  )
       116        O      tau( 116) = (   0.8789780   0.7172835   0.9261101  )
       117        O      tau( 117) = (   0.8654852   0.1662865   0.9239115  )
       118        O      tau( 118) = (   0.6163776   0.3546954   0.9687567  )
       119        O      tau( 119) = (   0.6502901   0.8969129   1.2400160  )
       120        O      tau( 120) = (   0.8974525   0.7354243   0.6571722  )
       121        O      tau( 121) = (   0.8483097   0.1789497   0.6529083  )
       122        O      tau( 122) = (   0.5974932   0.3376387   1.2412670  )
       123        O      tau( 123) = (   0.5984699   0.5818903   1.1060732  )
       124        O      tau( 124) = (   0.8459978   1.0405493   0.7923226  )
       125        O      tau( 125) = (   0.8731719   0.4204123   1.0996198  )
       126        O      tau( 126) = (   0.6223503   0.0989699   0.7941187  )
       127        O      tau( 127) = (   0.6235438   0.6536772   0.7961155  )
       128        O      tau( 128) = (   0.9004339   0.4872435   0.7894508  )
       129        O      tau( 129) = (   0.6476543   0.0398268   1.1069192  )
       130        O      tau( 130) = (   0.8728637   0.9843360   1.1010385  )
       131        Ni     tau( 131) = (   0.7369169   0.8303788   1.4329327  )
       132        Mn     tau( 132) = (   0.9924005   0.7622218   1.7630345  )
       133        Ni     tau( 133) = (   0.5034179   0.2756585   1.4286710  )
       134        Ni     tau( 134) = (   0.7445338   0.2135857   1.7404923  )
       135        Ni     tau( 135) = (   0.9992947   1.0745006   1.5940287  )
       136        Ni     tau( 136) = (   0.7415282   0.5178646   1.5926001  )
       137        P      tau( 137) = (   0.7110408   0.9653555   1.7633289  )
       138        P      tau( 138) = (   0.9541428   0.6272498   1.4343540  )
       139        P      tau( 139) = (   0.7882006   0.0737553   1.4295411  )
       140        P      tau( 140) = (   0.5313065   0.4052692   1.7579671  )
       141        O      tau( 141) = (   0.6299655   0.8889021   1.6239329  )
       142        O      tau( 142) = (   0.8763186   0.7000804   1.5722760  )
       143        O      tau( 143) = (   0.8661823   0.1476707   1.5678971  )
       144        O      tau( 144) = (   0.6092775   0.3424902   1.6091934  )
       145        O      tau( 145) = (   0.6577452   0.8727635   1.8894301  )
       146        O      tau( 146) = (   0.8931487   0.7181693   1.3070025  )
       147        O      tau( 147) = (   0.8501811   0.1623852   1.3009768  )
       148        O      tau( 148) = (   0.5909310   0.3060790   1.8752837  )
       149        O      tau( 149) = (   0.5915698   0.5653327   1.7515015  )
       150        O      tau( 150) = (   0.8456292   1.0209939   1.4372118  )
       151        O      tau( 151) = (   0.8624603   0.3999669   1.7434469  )
       152        O      tau( 152) = (   0.6217882   0.0804133   1.4417608  )
       153        O      tau( 153) = (   0.6203335   0.6358635   1.4429875  )
       154        O      tau( 154) = (   0.8954317   0.4691053   1.4351315  )
       155        O      tau( 155) = (   0.6536438   0.0182650   1.7541421  )
       156        O      tau( 156) = (   0.8777501   0.9608304   1.7456676  )
       157        O      tau( 157) = (   0.3827920   0.6908925   1.9089598  )
       158        H      tau( 158) = (   0.2940038   0.7481389   1.9272249  )

     -------------------------------------------------
     Parameters for Dispersion (Grimme-D2) Correction:
     -------------------------------------------------
       atom      VdW radius       C_6     

        Ni         2.952        374.666
        Mn         2.952        374.666
        P          3.222        271.980
        O          2.536         24.284
        H          1.892          4.857

     number of k points=     1  Gaussian smearing, width (Ry)=  0.0100
                       cart. coord. in units 2pi/alat
        k(    1) = (   0.0000000   0.0000000   0.0000000), wk =   1.0000000

     Dense  grid:  1938023 G-vectors     FFT dimensions: ( 125, 144, 450)

     Smooth grid:   490328 G-vectors     FFT dimensions: (  80,  90, 288)

     Estimated max dynamical RAM per process >     326.29 MB

     Estimated total dynamical RAM >      20.39 GB

     Check: negative core charge=   -0.000001
     Generating pointlists ...
     new r_m :   0.0887 (alat units)  1.5440 (a.u.) for type    1
     new r_m :   0.0790 (alat units)  1.3755 (a.u.) for type    2
     new r_m :   0.0679 (alat units)  1.1824 (a.u.) for type    3
     new r_m :   0.0442 (alat units)  0.7698 (a.u.) for type    4
     new r_m :   0.0442 (alat units)  0.7698 (a.u.) for type    5

     Initial potential from superposition of free atoms

     starting charge    1092.8893, renormalised to    1093.0000

     negative rho (up, down):  1.402E-03 4.518E-04
 
     Adding external electric field

     Computed dipole along edir(3) : 
        Dipole                1.6270 Ry au,          4.1353 Debye
        Dipole field          0.0010 Ry au, 
 
        Potential amp.       -0.1098 Ry
        Total length         55.1515 bohr
 
 
     Adding external electric field

     Computed dipole along edir(3) : 
        Dipole                1.6270 Ry au,          4.1353 Debye
        Dipole field          0.0010 Ry au, 
 
        Potential amp.       -0.1098 Ry
        Total length         55.1515 bohr
 
     Starting wfcs are  815 randomized atomic wfcs

     total cpu time spent up to now is       12.6 secs

     Self-consistent Calculation

     iteration #  1     ecut=    50.00 Ry     beta= 0.10
     Davidson diagonalization with overlap
     ethr =  1.00E-02,  avg # of iterations =  6.0

     negative rho (up, down):  3.752E-01 3.902E-07
 
     Adding external electric field

     Computed dipole along edir(3) : 
        Dipole               -3.5913 Ry au,         -9.1282 Debye
        Dipole field         -0.0022 Ry au, 
 
        Potential amp.        0.2425 Ry
        Total length         55.1515 bohr
 
 
     Adding external electric field

     Computed dipole along edir(3) : 
        Dipole               -3.5913 Ry au,         -9.1282 Debye
        Dipole field         -0.0022 Ry au, 
 
        Potential amp.        0.2425 Ry
        Total length         55.1515 bohr
 

     total cpu time spent up to now is       47.1 secs

     total energy              =   -7517.26586174 Ry
     estimated scf accuracy    <     738.85698532 Ry

     total magnetization       =   219.00 Bohr mag/cell
     absolute magnetization    =   307.68 Bohr mag/cell

     iteration #  2     ecut=    50.00 Ry     beta= 0.10
     Davidson diagonalization with overlap
     ethr =  1.00E-02,  avg # of iterations =  2.0

     negative rho (up, down):  3.564E-01 2.506E-07
 
     Adding external electric field

     Computed dipole along edir(3) : 
        Dipole               -2.4025 Ry au,         -6.1066 Debye
        Dipole field         -0.0015 Ry au, 
 
        Potential amp.        0.1622 Ry
        Total length         55.1515 bohr
 
 
     Adding external electric field

     Computed dipole along edir(3) : 
        Dipole               -2.4025 Ry au,         -6.1066 Debye
        Dipole field         -0.0015 Ry au, 
 
        Potential amp.        0.1622 Ry
        Total length         55.1515 bohr
 

     total cpu time spent up to now is       68.4 secs

     total energy              =   -7600.57683189 Ry
     estimated scf accuracy    <     209.77147480 Ry

     total magnetization       =   158.58 Bohr mag/cell
     absolute magnetization    =   206.91 Bohr mag/cell

     iteration #  3     ecut=    50.00 Ry     beta= 0.10
     Davidson diagonalization with overlap
     ethr =  1.00E-02,  avg # of iterations =  1.5

     negative rho (up, down):  3.164E-01 2.101E-07
 
     Adding external electric field

     Computed dipole along edir(3) : 
        Dipole               -2.0611 Ry au,         -5.2387 Debye
        Dipole field         -0.0013 Ry au, 
 
        Potential amp.        0.1392 Ry
        Total length         55.1515 bohr
 
 
     Adding external electric field

     Computed dipole along edir(3) : 
        Dipole               -2.0611 Ry au,         -5.2387 Debye
        Dipole field         -0.0013 Ry au, 
 
        Potential amp.        0.1392 Ry
        Total length         55.1515 bohr
 

     total cpu time spent up to now is       85.0 secs

     total energy              =   -7630.98711868 Ry
     estimated scf accuracy    <     101.34094312 Ry

     total magnetization       =   135.07 Bohr mag/cell
     absolute magnetization    =   185.99 Bohr mag/cell

     iteration #  4     ecut=    50.00 Ry     beta= 0.10
     Davidson diagonalization with overlap
     ethr =  9.27E-03,  avg # of iterations =  1.0

     negative rho (up, down):  2.454E-01 6.616E-08
 
     Adding external electric field

     Computed dipole along edir(3) : 
        Dipole               -1.9956 Ry au,         -5.0722 Debye
        Dipole field         -0.0012 Ry au, 
 
        Potential amp.        0.1347 Ry
        Total length         55.1515 bohr
 
 
     Adding external electric field

     Computed dipole along edir(3) : 
        Dipole               -1.9956 Ry au,         -5.0722 Debye
        Dipole field         -0.0012 Ry au, 
 
        Potential amp.        0.1347 Ry
        Total length         55.1515 bohr
 

     total cpu time spent up to now is      100.1 secs

     total energy              =   -7663.60096933 Ry
     estimated scf accuracy    <      82.01801815 Ry

     total magnetization       =   119.22 Bohr mag/cell
     absolute magnetization    =   171.62 Bohr mag/cell

     iteration #  5     ecut=    50.00 Ry     beta= 0.10
     Davidson diagonalization with overlap
     ethr =  7.50E-03,  avg # of iterations =  1.5

     negative rho (up, down):  2.158E-02 3.829E-07
 
     Adding external electric field

     Computed dipole along edir(3) : 
        Dipole               -1.6262 Ry au,         -4.1335 Debye
        Dipole field         -0.0010 Ry au, 
 
        Potential amp.        0.1098 Ry
        Total length         55.1515 bohr
 
 
     Adding external electric field

     Computed dipole along edir(3) : 
        Dipole               -1.6262 Ry au,         -4.1335 Debye
        Dipole field         -0.0010 Ry au, 
 
        Potential amp.        0.1098 Ry
        Total length         55.1515 bohr
 

     total cpu time spent up to now is      116.7 secs

     total energy              =   -7723.83498923 Ry
     estimated scf accuracy    <      65.58784292 Ry

     total magnetization       =    97.22 Bohr mag/cell
     absolute magnetization    =   152.99 Bohr mag/cell

     iteration #  6     ecut=    50.00 Ry     beta= 0.10
     Davidson diagonalization with overlap
     ethr =  6.00E-03,  avg # of iterations =  1.0

     negative rho (up, down):  7.232E-04 1.244E-03
 
     Adding external electric field

     Computed dipole along edir(3) : 
        Dipole               -1.3210 Ry au,         -3.3577 Debye
        Dipole field         -0.0008 Ry au, 
 
        Potential amp.        0.0892 Ry
        Total length         55.1515 bohr
 
 
     Adding external electric field

     Computed dipole along edir(3) : 
        Dipole               -1.3210 Ry au,         -3.3577 Debye
        Dipole field         -0.0008 Ry au, 
 
        Potential amp.        0.0892 Ry
        Total length         55.1515 bohr
 

     total cpu time spent up to now is      131.4 secs

     total energy              =   -7735.72797987 Ry
     estimated scf accuracy    <      13.32552346 Ry

     total magnetization       =    91.00 Bohr mag/cell
     absolute magnetization    =   124.54 Bohr mag/cell

     iteration #  7     ecut=    50.00 Ry     beta= 0.10
     Davidson diagonalization with overlap
     ethr =  1.22E-03,  avg # of iterations =  8.5

     negative rho (up, down):  6.830E-04 1.138E-03
 
     Adding external electric field

     Computed dipole along edir(3) : 
        Dipole               -1.2954 Ry au,         -3.2926 Debye
        Dipole field         -0.0008 Ry au, 
 
        Potential amp.        0.0875 Ry
        Total length         55.1515 bohr
 
 
     Adding external electric field

     Computed dipole along edir(3) : 
        Dipole               -1.2954 Ry au,         -3.2926 Debye
        Dipole field         -0.0008 Ry au, 
 
        Potential amp.        0.0875 Ry
        Total length         55.1515 bohr
 

     total cpu time spent up to now is      162.1 secs

     total energy              =   -7738.47780211 Ry
     estimated scf accuracy    <      37.69057592 Ry

     total magnetization       =    65.67 Bohr mag/cell
     absolute magnetization    =    83.33 Bohr mag/cell

     iteration #  8     ecut=    50.00 Ry     beta= 0.10
     Davidson diagonalization with overlap
     ethr =  1.22E-03,  avg # of iterations =  1.0

     negative rho (up, down):  5.400E-04 8.202E-04
 
     Adding external electric field

     Computed dipole along edir(3) : 
        Dipole               -1.2011 Ry au,         -3.0529 Debye
        Dipole field         -0.0007 Ry au, 
 
        Potential amp.        0.0811 Ry
        Total length         55.1515 bohr
 
 
     Adding external electric field

     Computed dipole along edir(3) : 
        Dipole               -1.2011 Ry au,         -3.0529 Debye
        Dipole field         -0.0007 Ry au, 
 
        Potential amp.        0.0811 Ry
        Total length         55.1515 bohr
 

     total cpu time spent up to now is      177.1 secs

     total energy              =   -7738.31580930 Ry
     estimated scf accuracy    <      34.43968783 Ry

     total magnetization       =    66.54 Bohr mag/cell
     absolute magnetization    =    83.78 Bohr mag/cell

     iteration #  9     ecut=    50.00 Ry     beta= 0.10
     Davidson diagonalization with overlap
     ethr =  1.22E-03,  avg # of iterations =  1.0

     negative rho (up, down):  5.227E-04 7.939E-04
 
     Adding external electric field

     Computed dipole along edir(3) : 
        Dipole               -1.1884 Ry au,         -3.0206 Debye
        Dipole field         -0.0007 Ry au, 
 
        Potential amp.        0.0802 Ry
        Total length         55.1515 bohr
 
 
     Adding external electric field

     Computed dipole along edir(3) : 
        Dipole               -1.1884 Ry au,         -3.0206 Debye
        Dipole field         -0.0007 Ry au, 
 
        Potential amp.        0.0802 Ry
        Total length         55.1515 bohr
 

     total cpu time spent up to now is      191.8 secs

     total energy              =   -7738.33106159 Ry
     estimated scf accuracy    <      24.86118036 Ry

     total magnetization       =    68.64 Bohr mag/cell
     absolute magnetization    =    84.88 Bohr mag/cell

     iteration # 10     ecut=    50.00 Ry     beta= 0.10
     Davidson diagonalization with overlap
     ethr =  1.22E-03,  avg # of iterations =  1.0

     negative rho (up, down):  4.914E-04 8.245E-04
 
     Adding external electric field

     Computed dipole along edir(3) : 
        Dipole               -1.1449 Ry au,         -2.9101 Debye
        Dipole field         -0.0007 Ry au, 
 
        Potential amp.        0.0773 Ry
        Total length         55.1515 bohr
 
 
     Adding external electric field

     Computed dipole along edir(3) : 
        Dipole               -1.1449 Ry au,         -2.9101 Debye
        Dipole field         -0.0007 Ry au, 
 
        Potential amp.        0.0773 Ry
        Total length         55.1515 bohr
 

     total cpu time spent up to now is      205.7 secs

     total energy              =   -7738.26582111 Ry
     estimated scf accuracy    <      24.17217693 Ry

     total magnetization       =    68.75 Bohr mag/cell
     absolute magnetization    =    84.68 Bohr mag/cell

     iteration # 11     ecut=    50.00 Ry     beta= 0.10
     Davidson diagonalization with overlap
     ethr =  1.22E-03,  avg # of iterations =  1.0

     negative rho (up, down):  7.562E-03 1.141E-02
 
     Adding external electric field

     Computed dipole along edir(3) : 
        Dipole               -0.7331 Ry au,         -1.8633 Debye
        Dipole field         -0.0004 Ry au, 
 
        Potential amp.        0.0495 Ry
        Total length         55.1515 bohr
 
 
     Adding external electric field

     Computed dipole along edir(3) : 
        Dipole               -0.7331 Ry au,         -1.8633 Debye
        Dipole field         -0.0004 Ry au, 
 
        Potential amp.        0.0495 Ry
        Total length         55.1515 bohr
 

     total cpu time spent up to now is      219.8 secs

     total energy              =   -7737.38987682 Ry
     estimated scf accuracy    <      22.72851688 Ry

     total magnetization       =    68.84 Bohr mag/cell
     absolute magnetization    =    84.13 Bohr mag/cell

     iteration # 12     ecut=    50.00 Ry     beta= 0.10
     Davidson diagonalization with overlap
     ethr =  1.22E-03,  avg # of iterations =  1.0

     negative rho (up, down):  6.207E-03 9.892E-03
 
     Adding external electric field

     Computed dipole along edir(3) : 
        Dipole               -0.5886 Ry au,         -1.4961 Debye
        Dipole field         -0.0004 Ry au, 
 
        Potential amp.        0.0397 Ry
        Total length         55.1515 bohr
 
 
     Adding external electric field

     Computed dipole along edir(3) : 
        Dipole               -0.5886 Ry au,         -1.4961 Debye
        Dipole field         -0.0004 Ry au, 
 
        Potential amp.        0.0397 Ry
        Total length         55.1515 bohr
 

     total cpu time spent up to now is      234.3 secs

     total energy              =   -7738.11236010 Ry
     estimated scf accuracy    <       2.59479967 Ry

     total magnetization       =    86.97 Bohr mag/cell
     absolute magnetization    =    95.66 Bohr mag/cell

     iteration # 13     ecut=    50.00 Ry     beta= 0.10
     Davidson diagonalization with overlap
     ethr =  2.37E-04,  avg # of iterations =  2.0

     negative rho (up, down):  3.012E-03 5.895E-03
 
     Adding external electric field

     Computed dipole along edir(3) : 
        Dipole               -0.5548 Ry au,         -1.4101 Debye
        Dipole field         -0.0003 Ry au, 
 
        Potential amp.        0.0375 Ry
        Total length         55.1515 bohr
 
 
     Adding external electric field

     Computed dipole along edir(3) : 
        Dipole               -0.5548 Ry au,         -1.4101 Debye
        Dipole field         -0.0003 Ry au, 
 
        Potential amp.        0.0375 Ry
        Total length         55.1515 bohr
 

     total cpu time spent up to now is      250.7 secs

     total energy              =   -7738.16101519 Ry
     estimated scf accuracy    <       1.14977437 Ry

     total magnetization       =    88.81 Bohr mag/cell
     absolute magnetization    =    96.08 Bohr mag/cell

     iteration # 14     ecut=    50.00 Ry     beta= 0.10
     Davidson diagonalization with overlap
     ethr =  1.05E-04,  avg # of iterations =  2.0

     negative rho (up, down):  5.364E-05 8.512E-05
 
     Adding external electric field

     Computed dipole along edir(3) : 
        Dipole               -0.3931 Ry au,         -0.9993 Debye
        Dipole field         -0.0002 Ry au, 
 
        Potential amp.        0.0265 Ry
        Total length         55.1515 bohr
 
 
     Adding external electric field

     Computed dipole along edir(3) : 
        Dipole               -0.3931 Ry au,         -0.9993 Debye
        Dipole field         -0.0002 Ry au, 
 
        Potential amp.        0.0265 Ry
        Total length         55.1515 bohr
 

     total cpu time spent up to now is      266.7 secs

     total energy              =   -7738.19355185 Ry
     estimated scf accuracy    <       1.03487429 Ry

     total magnetization       =    88.94 Bohr mag/cell
     absolute magnetization    =    95.65 Bohr mag/cell

     iteration # 15     ecut=    50.00 Ry     beta= 0.10
     Davidson diagonalization with overlap
     ethr =  9.47E-05,  avg # of iterations =  3.5

     negative rho (up, down):  3.354E-04 5.882E-04
 
     Adding external electric field

     Computed dipole along edir(3) : 
        Dipole               -0.4286 Ry au,         -1.0893 Debye
        Dipole field         -0.0003 Ry au, 
 
        Potential amp.        0.0289 Ry
        Total length         55.1515 bohr
 
 
     Adding external electric field

     Computed dipole along edir(3) : 
        Dipole               -0.4286 Ry au,         -1.0893 Debye
        Dipole field         -0.0003 Ry au, 
 
        Potential amp.        0.0289 Ry
        Total length         55.1515 bohr
 

     total cpu time spent up to now is      282.0 secs

     total energy              =   -7738.24882846 Ry
     estimated scf accuracy    <       1.24779993 Ry

     total magnetization       =    86.74 Bohr mag/cell
     absolute magnetization    =    91.73 Bohr mag/cell

     iteration # 16     ecut=    50.00 Ry     beta= 0.10
     Davidson diagonalization with overlap
     ethr =  9.47E-05,  avg # of iterations =  2.0

     negative rho (up, down):  5.548E-04 9.263E-04
 
     Adding external electric field

     Computed dipole along edir(3) : 
        Dipole               -0.4474 Ry au,         -1.1372 Debye
        Dipole field         -0.0003 Ry au, 
 
        Potential amp.        0.0302 Ry
        Total length         55.1515 bohr
 
 
     Adding external electric field

     Computed dipole along edir(3) : 
        Dipole               -0.4474 Ry au,         -1.1372 Debye
        Dipole field         -0.0003 Ry au, 
 
        Potential amp.        0.0302 Ry
        Total length         55.1515 bohr
 

     total cpu time spent up to now is      296.8 secs

     total energy              =   -7738.26626568 Ry
     estimated scf accuracy    <       2.77939498 Ry

     total magnetization       =    84.91 Bohr mag/cell
     absolute magnetization    =    89.83 Bohr mag/cell

     iteration # 17     ecut=    50.00 Ry     beta= 0.10
     Davidson diagonalization with overlap
     ethr =  9.47E-05,  avg # of iterations =  2.0

     negative rho (up, down):  4.962E-04 9.482E-04
 
     Adding external electric field

     Computed dipole along edir(3) : 
        Dipole               -0.4221 Ry au,         -1.0728 Debye
        Dipole field         -0.0003 Ry au, 
 
        Potential amp.        0.0285 Ry
        Total length         55.1515 bohr
 
 
     Adding external electric field

     Computed dipole along edir(3) : 
        Dipole               -0.4221 Ry au,         -1.0728 Debye
        Dipole field         -0.0003 Ry au, 
 
        Potential amp.        0.0285 Ry
        Total length         55.1515 bohr
 

     total cpu time spent up to now is      309.9 secs

     total energy              =   -7738.26396097 Ry
     estimated scf accuracy    <       3.76769133 Ry

     total magnetization       =    83.92 Bohr mag/cell
     absolute magnetization    =    88.89 Bohr mag/cell

     iteration # 18     ecut=    50.00 Ry     beta= 0.10
     Davidson diagonalization with overlap
     ethr =  9.47E-05,  avg # of iterations =  1.5

     negative rho (up, down):  8.621E-05 1.606E-04
 
     Adding external electric field

     Computed dipole along edir(3) : 
        Dipole               -0.4065 Ry au,         -1.0333 Debye
        Dipole field         -0.0002 Ry au, 
 
        Potential amp.        0.0274 Ry
        Total length         55.1515 bohr
 
 
     Adding external electric field

     Computed dipole along edir(3) : 
        Dipole               -0.4065 Ry au,         -1.0333 Debye
        Dipole field         -0.0002 Ry au, 
 
        Potential amp.        0.0274 Ry
        Total length         55.1515 bohr
 

     total cpu time spent up to now is      322.1 secs

     total energy              =   -7738.24352726 Ry
     estimated scf accuracy    <       3.85290371 Ry

     total magnetization       =    83.79 Bohr mag/cell
     absolute magnetization    =    88.53 Bohr mag/cell

     iteration # 19     ecut=    50.00 Ry     beta= 0.10
     Davidson diagonalization with overlap
     ethr =  9.47E-05,  avg # of iterations =  2.0

     negative rho (up, down):  1.738E-04 3.423E-04
 
     Adding external electric field

     Computed dipole along edir(3) : 
        Dipole               -0.4132 Ry au,         -1.0503 Debye
        Dipole field         -0.0003 Ry au, 
 
        Potential amp.        0.0279 Ry
        Total length         55.1515 bohr
 
 
     Adding external electric field

     Computed dipole along edir(3) : 
        Dipole               -0.4132 Ry au,         -1.0503 Debye
        Dipole field         -0.0003 Ry au, 
 
        Potential amp.        0.0279 Ry
        Total length         55.1515 bohr
 

     total cpu time spent up to now is      335.4 secs

     total energy              =   -7738.24256827 Ry
     estimated scf accuracy    <       1.96206218 Ry

     total magnetization       =    85.56 Bohr mag/cell
     absolute magnetization    =    90.27 Bohr mag/cell

     iteration # 20     ecut=    50.00 Ry     beta= 0.10
     Davidson diagonalization with overlap
     ethr =  9.47E-05,  avg # of iterations =  1.5

     negative rho (up, down):  1.453E-04 1.930E-04
 
     Adding external electric field

     Computed dipole along edir(3) : 
        Dipole               -0.5860 Ry au,         -1.4895 Debye
        Dipole field         -0.0004 Ry au, 
 
        Potential amp.        0.0396 Ry
        Total length         55.1515 bohr
 
 
     Adding external electric field

     Computed dipole along edir(3) : 
        Dipole               -0.5860 Ry au,         -1.4895 Debye
        Dipole field         -0.0004 Ry au, 
 
        Potential amp.        0.0396 Ry
        Total length         55.1515 bohr
 

     total cpu time spent up to now is      349.2 secs

     total energy              =   -7738.24247678 Ry
     estimated scf accuracy    <       3.57446002 Ry

     total magnetization       =    83.87 Bohr mag/cell
     absolute magnetization    =    88.92 Bohr mag/cell

     iteration # 21     ecut=    50.00 Ry     beta= 0.10
     Davidson diagonalization with overlap
     ethr =  9.47E-05,  avg # of iterations =  2.0

     negative rho (up, down):  2.883E-04 4.082E-04
 
     Adding external electric field

     Computed dipole along edir(3) : 
        Dipole               -0.8332 Ry au,         -2.1177 Debye
        Dipole field         -0.0005 Ry au, 
 
        Potential amp.        0.0563 Ry
        Total length         55.1515 bohr
 
 
     Adding external electric field

     Computed dipole along edir(3) : 
        Dipole               -0.8332 Ry au,         -2.1177 Debye
        Dipole field         -0.0005 Ry au, 
 
        Potential amp.        0.0563 Ry
        Total length         55.1515 bohr
 

     total cpu time spent up to now is      364.3 secs

     total energy              =   -7738.26601482 Ry
     estimated scf accuracy    <       0.83281694 Ry

     total magnetization       =    86.31 Bohr mag/cell
     absolute magnetization    =    90.98 Bohr mag/cell

     iteration # 22     ecut=    50.00 Ry     beta= 0.10
     Davidson diagonalization with overlap
     ethr =  7.62E-05,  avg # of iterations =  2.0

     negative rho (up, down):  1.494E-04 2.065E-04
 
     Adding external electric field

     Computed dipole along edir(3) : 
        Dipole               -0.7478 Ry au,         -1.9008 Debye
        Dipole field         -0.0005 Ry au, 
 
        Potential amp.        0.0505 Ry
        Total length         55.1515 bohr
 
 
     Adding external electric field

     Computed dipole along edir(3) : 
        Dipole               -0.7478 Ry au,         -1.9008 Debye
        Dipole field         -0.0005 Ry au, 
 
        Potential amp.        0.0505 Ry
        Total length         55.1515 bohr
 

     total cpu time spent up to now is      379.2 secs

     total energy              =   -7738.27193775 Ry
     estimated scf accuracy    <       0.51032894 Ry

     total magnetization       =    86.32 Bohr mag/cell
     absolute magnetization    =    90.56 Bohr mag/cell

     iteration # 23     ecut=    50.00 Ry     beta= 0.10
     Davidson diagonalization with overlap
     c_bands:  3 eigenvalues not converged
     ethr =  4.67E-05,  avg # of iterations = 11.0

     negative rho (up, down):  6.513E-05 1.123E-04
 
     Adding external electric field

     Computed dipole along edir(3) : 
        Dipole               -0.7342 Ry au,         -1.8661 Debye
        Dipole field         -0.0004 Ry au, 
 
        Potential amp.        0.0496 Ry
        Total length         55.1515 bohr
 
 
     Adding external electric field

     Computed dipole along edir(3) : 
        Dipole               -0.7342 Ry au,         -1.8661 Debye
        Dipole field         -0.0004 Ry au, 
 
        Potential amp.        0.0496 Ry
        Total length         55.1515 bohr
 

     total cpu time spent up to now is      401.4 secs

     total energy              =   -7738.29422690 Ry
     estimated scf accuracy    <       0.15419117 Ry

     total magnetization       =    87.02 Bohr mag/cell
     absolute magnetization    =    91.17 Bohr mag/cell

     iteration # 24     ecut=    50.00 Ry     beta= 0.10
     Davidson diagonalization with overlap
     ethr =  1.41E-05,  avg # of iterations = 22.5

     negative rho (up, down):  6.333E-05 1.564E-04
 
     Adding external electric field

     Computed dipole along edir(3) : 
        Dipole               -0.7007 Ry au,         -1.7810 Debye
        Dipole field         -0.0004 Ry au, 
 
        Potential amp.        0.0473 Ry
        Total length         55.1515 bohr
 
 
     Adding external electric field

     Computed dipole along edir(3) : 
        Dipole               -0.7007 Ry au,         -1.7810 Debye
        Dipole field         -0.0004 Ry au, 
 
        Potential amp.        0.0473 Ry
        Total length         55.1515 bohr
 

     total cpu time spent up to now is      439.1 secs

     total energy              =   -7738.30788727 Ry
     estimated scf accuracy    <       0.14486048 Ry

     total magnetization       =    86.92 Bohr mag/cell
     absolute magnetization    =    90.50 Bohr mag/cell

     iteration # 25     ecut=    50.00 Ry     beta= 0.10
     Davidson diagonalization with overlap
     ethr =  1.33E-05,  avg # of iterations =  1.5

     negative rho (up, down):  1.810E-06 1.950E-05
 
     Adding external electric field

     Computed dipole along edir(3) : 
        Dipole               -0.5429 Ry au,         -1.3798 Debye
        Dipole field         -0.0003 Ry au, 
 
        Potential amp.        0.0367 Ry
        Total length         55.1515 bohr
 
 
     Adding external electric field

     Computed dipole along edir(3) : 
        Dipole               -0.5429 Ry au,         -1.3798 Debye
        Dipole field         -0.0003 Ry au, 
 
        Potential amp.        0.0367 Ry
        Total length         55.1515 bohr
 

     total cpu time spent up to now is      453.3 secs

     total energy              =   -7738.32901627 Ry
     estimated scf accuracy    <       0.11392014 Ry

     total magnetization       =    86.66 Bohr mag/cell
     absolute magnetization    =    89.77 Bohr mag/cell

     iteration # 26     ecut=    50.00 Ry     beta= 0.10
     Davidson diagonalization with overlap
     ethr =  1.04E-05,  avg # of iterations =  5.5

     negative rho (up, down):  5.850E-05 8.077E-05
 
     Adding external electric field

     Computed dipole along edir(3) : 
        Dipole               -0.5632 Ry au,         -1.4316 Debye
        Dipole field         -0.0003 Ry au, 
 
        Potential amp.        0.0380 Ry
        Total length         55.1515 bohr
 
 
     Adding external electric field

     Computed dipole along edir(3) : 
        Dipole               -0.5632 Ry au,         -1.4316 Debye
        Dipole field         -0.0003 Ry au, 
 
        Potential amp.        0.0380 Ry
        Total length         55.1515 bohr
 

     total cpu time spent up to now is      470.7 secs

     total energy              =   -7738.34949025 Ry
     estimated scf accuracy    <       0.10159872 Ry

     total magnetization       =    87.17 Bohr mag/cell
     absolute magnetization    =    89.38 Bohr mag/cell

     iteration # 27     ecut=    50.00 Ry     beta= 0.10
     Davidson diagonalization with overlap
     ethr =  9.30E-06,  avg # of iterations =  1.5

     negative rho (up, down):  8.727E-05 8.286E-05
 
     Adding external electric field

     Computed dipole along edir(3) : 
        Dipole               -0.4448 Ry au,         -1.1307 Debye
        Dipole field         -0.0003 Ry au, 
 
        Potential amp.        0.0300 Ry
        Total length         55.1515 bohr
 
 
     Adding external electric field

     Computed dipole along edir(3) : 
        Dipole               -0.4448 Ry au,         -1.1307 Debye
        Dipole field         -0.0003 Ry au, 
 
        Potential amp.        0.0300 Ry
        Total length         55.1515 bohr
 

     total cpu time spent up to now is      484.9 secs

     total energy              =   -7738.35142487 Ry
     estimated scf accuracy    <       0.05249715 Ry

     total magnetization       =    86.98 Bohr mag/cell
     absolute magnetization    =    88.73 Bohr mag/cell

     iteration # 28     ecut=    50.00 Ry     beta= 0.10
     Davidson diagonalization with overlap
     c_bands:  1 eigenvalues not converged
     ethr =  4.80E-06,  avg # of iterations = 21.0

     negative rho (up, down):  1.672E-04 1.320E-04
 
     Adding external electric field

     Computed dipole along edir(3) : 
        Dipole               -0.4456 Ry au,         -1.1326 Debye
        Dipole field         -0.0003 Ry au, 
 
        Potential amp.        0.0301 Ry
        Total length         55.1515 bohr
 
 
     Adding external electric field

     Computed dipole along edir(3) : 
        Dipole               -0.4456 Ry au,         -1.1326 Debye
        Dipole field         -0.0003 Ry au, 
 
        Potential amp.        0.0301 Ry
        Total length         55.1515 bohr
 

     total cpu time spent up to now is      518.0 secs

     total energy              =   -7738.35272665 Ry
     estimated scf accuracy    <       0.06300289 Ry

     total magnetization       =    87.27 Bohr mag/cell
     absolute magnetization    =    88.77 Bohr mag/cell

     iteration # 29     ecut=    50.00 Ry     beta= 0.10
     Davidson diagonalization with overlap
     ethr =  4.80E-06,  avg # of iterations =  2.0

     negative rho (up, down):  1.555E-04 1.281E-04
 
     Adding external electric field

     Computed dipole along edir(3) : 
        Dipole               -0.4513 Ry au,         -1.1470 Debye
        Dipole field         -0.0003 Ry au, 
 
        Potential amp.        0.0305 Ry
        Total length         55.1515 bohr
 
 
     Adding external electric field

     Computed dipole along edir(3) : 
        Dipole               -0.4513 Ry au,         -1.1470 Debye
        Dipole field         -0.0003 Ry au, 
 
        Potential amp.        0.0305 Ry
        Total length         55.1515 bohr
 

     total cpu time spent up to now is      533.4 secs

     total energy              =   -7738.35356553 Ry
     estimated scf accuracy    <       0.03746646 Ry

     total magnetization       =    87.07 Bohr mag/cell
     absolute magnetization    =    88.55 Bohr mag/cell

     iteration # 30     ecut=    50.00 Ry     beta= 0.10
     Davidson diagonalization with overlap
     ethr =  3.43E-06,  avg # of iterations =  1.5

     negative rho (up, down):  1.217E-04 1.049E-04
 
     Adding external electric field

     Computed dipole along edir(3) : 
        Dipole               -0.4579 Ry au,         -1.1639 Debye
        Dipole field         -0.0003 Ry au, 
 
        Potential amp.        0.0309 Ry
        Total length         55.1515 bohr
 
 
     Adding external electric field

     Computed dipole along edir(3) : 
        Dipole               -0.4579 Ry au,         -1.1639 Debye
        Dipole field         -0.0003 Ry au, 
 
        Potential amp.        0.0309 Ry
        Total length         55.1515 bohr
 

     total cpu time spent up to now is      547.3 secs

     total energy              =   -7738.35417786 Ry
     estimated scf accuracy    <       0.03535176 Ry

     total magnetization       =    87.06 Bohr mag/cell
     absolute magnetization    =    88.53 Bohr mag/cell

     iteration # 31     ecut=    50.00 Ry     beta= 0.10
     Davidson diagonalization with overlap
     ethr =  3.23E-06,  avg # of iterations =  2.0

     negative rho (up, down):  1.346E-04 1.284E-04
 
     Adding external electric field

     Computed dipole along edir(3) : 
        Dipole               -0.4551 Ry au,         -1.1568 Debye
        Dipole field         -0.0003 Ry au, 
 
        Potential amp.        0.0307 Ry
        Total length         55.1515 bohr
 
 
     Adding external electric field

     Computed dipole along edir(3) : 
        Dipole               -0.4551 Ry au,         -1.1568 Debye
        Dipole field         -0.0003 Ry au, 
 
        Potential amp.        0.0307 Ry
        Total length         55.1515 bohr
 

     total cpu time spent up to now is      562.2 secs

     total energy              =   -7738.35389346 Ry
     estimated scf accuracy    <       0.04185220 Ry

     total magnetization       =    87.17 Bohr mag/cell
     absolute magnetization    =    88.66 Bohr mag/cell

     iteration # 32     ecut=    50.00 Ry     beta= 0.10
     Davidson diagonalization with overlap
     ethr =  3.23E-06,  avg # of iterations =  2.0

     negative rho (up, down):  1.458E-04 1.440E-04
 
     Adding external electric field

     Computed dipole along edir(3) : 
        Dipole               -0.4559 Ry au,         -1.1588 Debye
        Dipole field         -0.0003 Ry au, 
 
        Potential amp.        0.0308 Ry
        Total length         55.1515 bohr
 
 
     Adding external electric field

     Computed dipole along edir(3) : 
        Dipole               -0.4559 Ry au,         -1.1588 Debye
        Dipole field         -0.0003 Ry au, 
 
        Potential amp.        0.0308 Ry
        Total length         55.1515 bohr
 

     total cpu time spent up to now is      577.3 secs

     total energy              =   -7738.35382559 Ry
     estimated scf accuracy    <       0.03701921 Ry

     total magnetization       =    87.13 Bohr mag/cell
     absolute magnetization    =    88.57 Bohr mag/cell

     iteration # 33     ecut=    50.00 Ry     beta= 0.10
     Davidson diagonalization with overlap
     ethr =  3.23E-06,  avg # of iterations =  1.5

     negative rho (up, down):  1.972E-04 1.823E-04
 
     Adding external electric field

     Computed dipole along edir(3) : 
        Dipole               -0.4395 Ry au,         -1.1171 Debye
        Dipole field         -0.0003 Ry au, 
 
        Potential amp.        0.0297 Ry
        Total length         55.1515 bohr
 
 
     Adding external electric field

     Computed dipole along edir(3) : 
        Dipole               -0.4395 Ry au,         -1.1171 Debye
        Dipole field         -0.0003 Ry au, 
 
        Potential amp.        0.0297 Ry
        Total length         55.1515 bohr
 

     total cpu time spent up to now is      591.5 secs

     total energy              =   -7738.35372119 Ry
     estimated scf accuracy    <       0.03319081 Ry

     total magnetization       =    87.12 Bohr mag/cell
     absolute magnetization    =    88.55 Bohr mag/cell

     iteration # 34     ecut=    50.00 Ry     beta= 0.10
     Davidson diagonalization with overlap
     ethr =  3.04E-06,  avg # of iterations =  2.0

     negative rho (up, down):  4.414E-04 4.548E-04
 
     Adding external electric field

     Computed dipole along edir(3) : 
        Dipole               -0.3948 Ry au,         -1.0034 Debye
        Dipole field         -0.0002 Ry au, 
 
        Potential amp.        0.0267 Ry
        Total length         55.1515 bohr
 
 
     Adding external electric field

     Computed dipole along edir(3) : 
        Dipole               -0.3948 Ry au,         -1.0034 Debye
        Dipole field         -0.0002 Ry au, 
 
        Potential amp.        0.0267 Ry
        Total length         55.1515 bohr
 

     total cpu time spent up to now is      606.5 secs

     total energy              =   -7738.35259198 Ry
     estimated scf accuracy    <       0.03974074 Ry

     total magnetization       =    87.16 Bohr mag/cell
     absolute magnetization    =    88.58 Bohr mag/cell

     iteration # 35     ecut=    50.00 Ry     beta= 0.10
     Davidson diagonalization with overlap
     c_bands:  4 eigenvalues not converged
     ethr =  3.04E-06,  avg # of iterations = 11.0

     negative rho (up, down):  4.780E-04 4.928E-04
 
     Adding external electric field

     Computed dipole along edir(3) : 
        Dipole               -0.3662 Ry au,         -0.9309 Debye
        Dipole field         -0.0002 Ry au, 
 
        Potential amp.        0.0247 Ry
        Total length         55.1515 bohr
 
 
     Adding external electric field

     Computed dipole along edir(3) : 
        Dipole               -0.3662 Ry au,         -0.9309 Debye
        Dipole field         -0.0002 Ry au, 
 
        Potential amp.        0.0247 Ry
        Total length         55.1515 bohr
 

     total cpu time spent up to now is      627.4 secs

     total energy              =   -7738.35294191 Ry
     estimated scf accuracy    <       0.02395253 Ry

     total magnetization       =    87.10 Bohr mag/cell
     absolute magnetization    =    88.49 Bohr mag/cell

     iteration # 36     ecut=    50.00 Ry     beta= 0.10
     Davidson diagonalization with overlap
     ethr =  2.19E-06,  avg # of iterations =  2.0

     negative rho (up, down):  4.707E-04 5.141E-04
 
     Adding external electric field

     Computed dipole along edir(3) : 
        Dipole               -0.3265 Ry au,         -0.8300 Debye
        Dipole field         -0.0002 Ry au, 
 
        Potential amp.        0.0220 Ry
        Total length         55.1515 bohr
 
 
     Adding external electric field

     Computed dipole along edir(3) : 
        Dipole               -0.3265 Ry au,         -0.8300 Debye
        Dipole field         -0.0002 Ry au, 
 
        Potential amp.        0.0220 Ry
        Total length         55.1515 bohr
 

     total cpu time spent up to now is      642.7 secs

     total energy              =   -7738.35269060 Ry
     estimated scf accuracy    <       0.01875804 Ry

     total magnetization       =    87.11 Bohr mag/cell
     absolute magnetization    =    88.59 Bohr mag/cell

     iteration # 37     ecut=    50.00 Ry     beta= 0.10
     Davidson diagonalization with overlap
     ethr =  1.72E-06,  avg # of iterations =  2.0

     negative rho (up, down):  3.873E-04 4.160E-04
 
     Adding external electric field

     Computed dipole along edir(3) : 
        Dipole               -0.3244 Ry au,         -0.8245 Debye
        Dipole field         -0.0002 Ry au, 
 
        Potential amp.        0.0219 Ry
        Total length         55.1515 bohr
 
 
     Adding external electric field

     Computed dipole along edir(3) : 
        Dipole               -0.3244 Ry au,         -0.8245 Debye
        Dipole field         -0.0002 Ry au, 
 
        Potential amp.        0.0219 Ry
        Total length         55.1515 bohr
 

     total cpu time spent up to now is      657.8 secs

     total energy              =   -7738.35279060 Ry
     estimated scf accuracy    <       0.01583468 Ry

     total magnetization       =    87.07 Bohr mag/cell
     absolute magnetization    =    88.62 Bohr mag/cell

     iteration # 38     ecut=    50.00 Ry     beta= 0.10
     Davidson diagonalization with overlap
     ethr =  1.45E-06,  avg # of iterations =  2.0

     negative rho (up, down):  5.183E-04 5.630E-04
 
     Adding external electric field

     Computed dipole along edir(3) : 
        Dipole               -0.3242 Ry au,         -0.8242 Debye
        Dipole field         -0.0002 Ry au, 
 
        Potential amp.        0.0219 Ry
        Total length         55.1515 bohr
 
 
     Adding external electric field

     Computed dipole along edir(3) : 
        Dipole               -0.3242 Ry au,         -0.8242 Debye
        Dipole field         -0.0002 Ry au, 
 
        Potential amp.        0.0219 Ry
        Total length         55.1515 bohr
 

     total cpu time spent up to now is      672.6 secs

     total energy              =   -7738.35274426 Ry
     estimated scf accuracy    <       0.01712587 Ry

     total magnetization       =    87.09 Bohr mag/cell
     absolute magnetization    =    88.65 Bohr mag/cell

     iteration # 39     ecut=    50.00 Ry     beta= 0.10
     Davidson diagonalization with overlap
     ethr =  1.45E-06,  avg # of iterations =  2.0

     negative rho (up, down):  4.966E-04 5.502E-04
 
     Adding external electric field

     Computed dipole along edir(3) : 
        Dipole               -0.3242 Ry au,         -0.8241 Debye
        Dipole field         -0.0002 Ry au, 
 
        Potential amp.        0.0219 Ry
        Total length         55.1515 bohr
 
 
     Adding external electric field

     Computed dipole along edir(3) : 
        Dipole               -0.3242 Ry au,         -0.8241 Debye
        Dipole field         -0.0002 Ry au, 
 
        Potential amp.        0.0219 Ry
        Total length         55.1515 bohr
 

     total cpu time spent up to now is      687.6 secs

     total energy              =   -7738.35269925 Ry
     estimated scf accuracy    <       0.01787912 Ry

     total magnetization       =    87.07 Bohr mag/cell
     absolute magnetization    =    88.61 Bohr mag/cell

     iteration # 40     ecut=    50.00 Ry     beta= 0.10
     Davidson diagonalization with overlap
     ethr =  1.45E-06,  avg # of iterations =  2.0

     negative rho (up, down):  5.665E-04 6.281E-04
 
     Adding external electric field

     Computed dipole along edir(3) : 
        Dipole               -0.3194 Ry au,         -0.8120 Debye
        Dipole field         -0.0002 Ry au, 
 
        Potential amp.        0.0216 Ry
        Total length         55.1515 bohr
 
 
     Adding external electric field

     Computed dipole along edir(3) : 
        Dipole               -0.3194 Ry au,         -0.8120 Debye
        Dipole field         -0.0002 Ry au, 
 
        Potential amp.        0.0216 Ry
        Total length         55.1515 bohr
 

     total cpu time spent up to now is      702.7 secs

     total energy              =   -7738.35268646 Ry
     estimated scf accuracy    <       0.01818307 Ry

     total magnetization       =    87.07 Bohr mag/cell
     absolute magnetization    =    88.61 Bohr mag/cell

     iteration # 41     ecut=    50.00 Ry     beta= 0.10
     Davidson diagonalization with overlap
     ethr =  1.45E-06,  avg # of iterations =  2.0

     negative rho (up, down):  6.173E-04 7.056E-04
 
     Adding external electric field

     Computed dipole along edir(3) : 
        Dipole               -0.3011 Ry au,         -0.7653 Debye
        Dipole field         -0.0002 Ry au, 
 
        Potential amp.        0.0203 Ry
        Total length         55.1515 bohr
 
 
     Adding external electric field

     Computed dipole along edir(3) : 
        Dipole               -0.3011 Ry au,         -0.7653 Debye
        Dipole field         -0.0002 Ry au, 
 
        Potential amp.        0.0203 Ry
        Total length         55.1515 bohr
 

     total cpu time spent up to now is      717.8 secs

     total energy              =   -7738.35260418 Ry
     estimated scf accuracy    <       0.01704832 Ry

     total magnetization       =    87.05 Bohr mag/cell
     absolute magnetization    =    88.59 Bohr mag/cell

     iteration # 42     ecut=    50.00 Ry     beta= 0.10
     Davidson diagonalization with overlap
     ethr =  1.45E-06,  avg # of iterations =  2.0

     negative rho (up, down):  6.273E-04 6.990E-04
 
     Adding external electric field

     Computed dipole along edir(3) : 
        Dipole               -0.3055 Ry au,         -0.7766 Debye
        Dipole field         -0.0002 Ry au, 
 
        Potential amp.        0.0206 Ry
        Total length         55.1515 bohr
 
 
     Adding external electric field

     Computed dipole along edir(3) : 
        Dipole               -0.3055 Ry au,         -0.7766 Debye
        Dipole field         -0.0002 Ry au, 
 
        Potential amp.        0.0206 Ry
        Total length         55.1515 bohr
 

     total cpu time spent up to now is      732.6 secs

     total energy              =   -7738.35269912 Ry
     estimated scf accuracy    <       0.01678051 Ry

     total magnetization       =    87.04 Bohr mag/cell
     absolute magnetization    =    88.59 Bohr mag/cell

     iteration # 43     ecut=    50.00 Ry     beta= 0.10
     Davidson diagonalization with overlap
     ethr =  1.45E-06,  avg # of iterations =  2.0

     negative rho (up, down):  6.928E-04 7.884E-04
 
     Adding external electric field

     Computed dipole along edir(3) : 
        Dipole               -0.2879 Ry au,         -0.7318 Debye
        Dipole field         -0.0002 Ry au, 
 
        Potential amp.        0.0194 Ry
        Total length         55.1515 bohr
 
 
     Adding external electric field

     Computed dipole along edir(3) : 
        Dipole               -0.2879 Ry au,         -0.7318 Debye
        Dipole field         -0.0002 Ry au, 
 
        Potential amp.        0.0194 Ry
        Total length         55.1515 bohr
 

     total cpu time spent up to now is      747.7 secs

     total energy              =   -7738.35262766 Ry
     estimated scf accuracy    <       0.01860527 Ry

     total magnetization       =    87.08 Bohr mag/cell
     absolute magnetization    =    88.60 Bohr mag/cell

     iteration # 44     ecut=    50.00 Ry     beta= 0.10
     Davidson diagonalization with overlap
     ethr =  1.45E-06,  avg # of iterations =  2.0

     negative rho (up, down):  7.275E-04 8.192E-04
 
     Adding external electric field

     Computed dipole along edir(3) : 
        Dipole               -0.2884 Ry au,         -0.7330 Debye
        Dipole field         -0.0002 Ry au, 
 
        Potential amp.        0.0195 Ry
        Total length         55.1515 bohr
 
 
     Adding external electric field

     Computed dipole along edir(3) : 
        Dipole               -0.2884 Ry au,         -0.7330 Debye
        Dipole field         -0.0002 Ry au, 
 
        Potential amp.        0.0195 Ry
        Total length         55.1515 bohr
 

     total cpu time spent up to now is      762.8 secs

     total energy              =   -7738.35272034 Ry
     estimated scf accuracy    <       0.01783191 Ry

     total magnetization       =    87.04 Bohr mag/cell
     absolute magnetization    =    88.58 Bohr mag/cell

     iteration # 45     ecut=    50.00 Ry     beta= 0.10
     Davidson diagonalization with overlap
     ethr =  1.45E-06,  avg # of iterations =  1.5

     negative rho (up, down):  8.029E-04 8.984E-04
 
     Adding external electric field

     Computed dipole along edir(3) : 
        Dipole               -0.2980 Ry au,         -0.7575 Debye
        Dipole field         -0.0002 Ry au, 
 
        Potential amp.        0.0201 Ry
        Total length         55.1515 bohr
 
 
     Adding external electric field

     Computed dipole along edir(3) : 
        Dipole               -0.2980 Ry au,         -0.7575 Debye
        Dipole field         -0.0002 Ry au, 
 
        Potential amp.        0.0201 Ry
        Total length         55.1515 bohr
 

     total cpu time spent up to now is      777.0 secs

     total energy              =   -7738.35285258 Ry
     estimated scf accuracy    <       0.01747222 Ry

     total magnetization       =    87.04 Bohr mag/cell
     absolute magnetization    =    88.59 Bohr mag/cell

     iteration # 46     ecut=    50.00 Ry     beta= 0.10
     Davidson diagonalization with overlap
     ethr =  1.45E-06,  avg # of iterations =  1.5

     negative rho (up, down):  1.078E-03 1.198E-03
 
     Adding external electric field

     Computed dipole along edir(3) : 
        Dipole               -0.2883 Ry au,         -0.7329 Debye
        Dipole field         -0.0002 Ry au, 
 
        Potential amp.        0.0195 Ry
        Total length         55.1515 bohr
 
 
     Adding external electric field

     Computed dipole along edir(3) : 
        Dipole               -0.2883 Ry au,         -0.7329 Debye
        Dipole field         -0.0002 Ry au, 
 
        Potential amp.        0.0195 Ry
        Total length         55.1515 bohr
 

     total cpu time spent up to now is      791.3 secs

     total energy              =   -7738.35273847 Ry
     estimated scf accuracy    <       0.01694401 Ry

     total magnetization       =    87.05 Bohr mag/cell
     absolute magnetization    =    88.55 Bohr mag/cell

     iteration # 47     ecut=    50.00 Ry     beta= 0.10
     Davidson diagonalization with overlap
     ethr =  1.45E-06,  avg # of iterations =  2.0

     negative rho (up, down):  8.187E-04 9.645E-04
 
     Adding external electric field

     Computed dipole along edir(3) : 
        Dipole               -0.2578 Ry au,         -0.6553 Debye
        Dipole field         -0.0002 Ry au, 
 
        Potential amp.        0.0174 Ry
        Total length         55.1515 bohr
 
 
     Adding external electric field

     Computed dipole along edir(3) : 
        Dipole               -0.2578 Ry au,         -0.6553 Debye
        Dipole field         -0.0002 Ry au, 
 
        Potential amp.        0.0174 Ry
        Total length         55.1515 bohr
 

     total cpu time spent up to now is      806.0 secs

     total energy              =   -7738.35238654 Ry
     estimated scf accuracy    <       0.01803361 Ry

     total magnetization       =    87.04 Bohr mag/cell
     absolute magnetization    =    88.56 Bohr mag/cell

     iteration # 48     ecut=    50.00 Ry     beta= 0.10
     Davidson diagonalization with overlap
     ethr =  1.45E-06,  avg # of iterations =  1.5

     negative rho (up, down):  9.934E-04 1.140E-03
 
     Adding external electric field

     Computed dipole along edir(3) : 
        Dipole               -0.2938 Ry au,         -0.7468 Debye
        Dipole field         -0.0002 Ry au, 
 
        Potential amp.        0.0198 Ry
        Total length         55.1515 bohr
 
 
     Adding external electric field

     Computed dipole along edir(3) : 
        Dipole               -0.2938 Ry au,         -0.7468 Debye
        Dipole field         -0.0002 Ry au, 
 
        Potential amp.        0.0198 Ry
        Total length         55.1515 bohr
 

     total cpu time spent up to now is      820.2 secs

     total energy              =   -7738.35263739 Ry
     estimated scf accuracy    <       0.01752529 Ry

     total magnetization       =    87.05 Bohr mag/cell
     absolute magnetization    =    88.64 Bohr mag/cell

     iteration # 49     ecut=    50.00 Ry     beta= 0.10
     Davidson diagonalization with overlap
     ethr =  1.45E-06,  avg # of iterations =  1.5

     negative rho (up, down):  9.088E-04 1.013E-03
 
     Adding external electric field

     Computed dipole along edir(3) : 
        Dipole               -0.2639 Ry au,         -0.6707 Debye
        Dipole field         -0.0002 Ry au, 
 
        Potential amp.        0.0178 Ry
        Total length         55.1515 bohr
 
 
     Adding external electric field

     Computed dipole along edir(3) : 
        Dipole               -0.2639 Ry au,         -0.6707 Debye
        Dipole field         -0.0002 Ry au, 
 
        Potential amp.        0.0178 Ry
        Total length         55.1515 bohr
 

     total cpu time spent up to now is      833.9 secs

     total energy              =   -7738.35269130 Ry
     estimated scf accuracy    <       0.01691223 Ry

     total magnetization       =    87.04 Bohr mag/cell
     absolute magnetization    =    88.58 Bohr mag/cell

     iteration # 50     ecut=    50.00 Ry     beta= 0.10
     Davidson diagonalization with overlap
     ethr =  1.45E-06,  avg # of iterations =  2.0

     negative rho (up, down):  5.484E-04 5.884E-04
 
     Adding external electric field

     Computed dipole along edir(3) : 
        Dipole               -0.3069 Ry au,         -0.7800 Debye
        Dipole field         -0.0002 Ry au, 
 
        Potential amp.        0.0207 Ry
        Total length         55.1515 bohr
 
 
     Adding external electric field

     Computed dipole along edir(3) : 
        Dipole               -0.3069 Ry au,         -0.7800 Debye
        Dipole field         -0.0002 Ry au, 
 
        Potential amp.        0.0207 Ry
        Total length         55.1515 bohr
 

     total cpu time spent up to now is      848.8 secs

     total energy              =   -7738.35267689 Ry
     estimated scf accuracy    <       0.01685105 Ry

     total magnetization       =    87.05 Bohr mag/cell
     absolute magnetization    =    88.60 Bohr mag/cell

     iteration # 51     ecut=    50.00 Ry     beta= 0.10
     Davidson diagonalization with overlap
     ethr =  1.45E-06,  avg # of iterations =  2.0

     negative rho (up, down):  8.244E-04 9.222E-04
 
     Adding external electric field

     Computed dipole along edir(3) : 
        Dipole               -0.2580 Ry au,         -0.6557 Debye
        Dipole field         -0.0002 Ry au, 
 
        Potential amp.        0.0174 Ry
        Total length         55.1515 bohr
 
 
     Adding external electric field

     Computed dipole along edir(3) : 
        Dipole               -0.2580 Ry au,         -0.6557 Debye
        Dipole field         -0.0002 Ry au, 
 
        Potential amp.        0.0174 Ry
        Total length         55.1515 bohr
 

     total cpu time spent up to now is      863.3 secs

     total energy              =   -7738.35278133 Ry
     estimated scf accuracy    <       0.01755807 Ry

     total magnetization       =    87.04 Bohr mag/cell
     absolute magnetization    =    88.59 Bohr mag/cell

     iteration # 52     ecut=    50.00 Ry     beta= 0.10
     Davidson diagonalization with overlap
     ethr =  1.45E-06,  avg # of iterations =  1.5

     negative rho (up, down):  6.427E-04 6.848E-04
 
     Adding external electric field

     Computed dipole along edir(3) : 
        Dipole               -0.3528 Ry au,         -0.8967 Debye
        Dipole field         -0.0002 Ry au, 
 
        Potential amp.        0.0238 Ry
        Total length         55.1515 bohr
 
 
     Adding external electric field

     Computed dipole along edir(3) : 
        Dipole               -0.3528 Ry au,         -0.8967 Debye
        Dipole field         -0.0002 Ry au, 
 
        Potential amp.        0.0238 Ry
        Total length         55.1515 bohr
 

     total cpu time spent up to now is      876.9 secs

     total energy              =   -7738.35274875 Ry
     estimated scf accuracy    <       0.01794272 Ry

     total magnetization       =    87.05 Bohr mag/cell
     absolute magnetization    =    88.58 Bohr mag/cell

     iteration # 53     ecut=    50.00 Ry     beta= 0.10
     Davidson diagonalization with overlap
     ethr =  1.45E-06,  avg # of iterations =  1.5

     negative rho (up, down):  5.391E-04 6.507E-04
 
     Adding external electric field

     Computed dipole along edir(3) : 
        Dipole               -0.2684 Ry au,         -0.6822 Debye
        Dipole field         -0.0002 Ry au, 
 
        Potential amp.        0.0181 Ry
        Total length         55.1515 bohr
 
 
     Adding external electric field

     Computed dipole along edir(3) : 
        Dipole               -0.2684 Ry au,         -0.6822 Debye
        Dipole field         -0.0002 Ry au, 
 
        Potential amp.        0.0181 Ry
        Total length         55.1515 bohr
 

     total cpu time spent up to now is      890.8 secs

     total energy              =   -7738.35215580 Ry
     estimated scf accuracy    <       0.01739926 Ry

     total magnetization       =    87.09 Bohr mag/cell
     absolute magnetization    =    88.65 Bohr mag/cell

     iteration # 54     ecut=    50.00 Ry     beta= 0.10
     Davidson diagonalization with overlap
     ethr =  1.45E-06,  avg # of iterations =  2.0

     negative rho (up, down):  6.408E-04 7.409E-04
 
     Adding external electric field

     Computed dipole along edir(3) : 
        Dipole               -0.2882 Ry au,         -0.7327 Debye
        Dipole field         -0.0002 Ry au, 
 
        Potential amp.        0.0195 Ry
        Total length         55.1515 bohr
 
 
     Adding external electric field

     Computed dipole along edir(3) : 
        Dipole               -0.2882 Ry au,         -0.7327 Debye
        Dipole field         -0.0002 Ry au, 
 
        Potential amp.        0.0195 Ry
        Total length         55.1515 bohr
 

     total cpu time spent up to now is      905.5 secs

     total energy              =   -7738.35256082 Ry
     estimated scf accuracy    <       0.01738037 Ry

     total magnetization       =    87.02 Bohr mag/cell
     absolute magnetization    =    88.54 Bohr mag/cell

     iteration # 55     ecut=    50.00 Ry     beta= 0.10
     Davidson diagonalization with overlap
     ethr =  1.45E-06,  avg # of iterations =  1.5

     negative rho (up, down):  1.017E-03 1.157E-03
 
     Adding external electric field

     Computed dipole along edir(3) : 
        Dipole               -0.3158 Ry au,         -0.8027 Debye
        Dipole field         -0.0002 Ry au, 
 
        Potential amp.        0.0213 Ry
        Total length         55.1515 bohr
 
 
     Adding external electric field

     Computed dipole along edir(3) : 
        Dipole               -0.3158 Ry au,         -0.8027 Debye
        Dipole field         -0.0002 Ry au, 
 
        Potential amp.        0.0213 Ry
        Total length         55.1515 bohr
 

     total cpu time spent up to now is      919.7 secs

     total energy              =   -7738.35280691 Ry
     estimated scf accuracy    <       0.01664904 Ry

     total magnetization       =    87.03 Bohr mag/cell
     absolute magnetization    =    88.56 Bohr mag/cell

     iteration # 56     ecut=    50.00 Ry     beta= 0.10
     Davidson diagonalization with overlap
     ethr =  1.45E-06,  avg # of iterations =  1.5

     negative rho (up, down):  3.138E-04 3.871E-04
 
     Adding external electric field

     Computed dipole along edir(3) : 
        Dipole               -0.1960 Ry au,         -0.4983 Debye
        Dipole field         -0.0001 Ry au, 
 
        Potential amp.        0.0132 Ry
        Total length         55.1515 bohr
 
 
     Adding external electric field

     Computed dipole along edir(3) : 
        Dipole               -0.1960 Ry au,         -0.4983 Debye
        Dipole field         -0.0001 Ry au, 
 
        Potential amp.        0.0132 Ry
        Total length         55.1515 bohr
 

     total cpu time spent up to now is      933.5 secs

     total energy              =   -7738.35149771 Ry
     estimated scf accuracy    <       0.01742361 Ry

     total magnetization       =    87.03 Bohr mag/cell
     absolute magnetization    =    88.56 Bohr mag/cell

     iteration # 57     ecut=    50.00 Ry     beta= 0.10
     Davidson diagonalization with overlap
     ethr =  1.45E-06,  avg # of iterations =  2.0

     negative rho (up, down):  2.727E-04 3.531E-04
 
     Adding external electric field

     Computed dipole along edir(3) : 
        Dipole               -0.2059 Ry au,         -0.5233 Debye
        Dipole field         -0.0001 Ry au, 
 
        Potential amp.        0.0139 Ry
        Total length         55.1515 bohr
 
 
     Adding external electric field

     Computed dipole along edir(3) : 
        Dipole               -0.2059 Ry au,         -0.5233 Debye
        Dipole field         -0.0001 Ry au, 
 
        Potential amp.        0.0139 Ry
        Total length         55.1515 bohr
 

     total cpu time spent up to now is      948.5 secs

     total energy              =   -7738.35154855 Ry
     estimated scf accuracy    <       0.01653954 Ry

     total magnetization       =    87.03 Bohr mag/cell
     absolute magnetization    =    88.62 Bohr mag/cell

     iteration # 58     ecut=    50.00 Ry     beta= 0.10
     Davidson diagonalization with overlap
     ethr =  1.45E-06,  avg # of iterations =  1.0

     negative rho (up, down):  2.622E-04 3.128E-04
 
     Adding external electric field

     Computed dipole along edir(3) : 
        Dipole               -0.1467 Ry au,         -0.3729 Debye
        Dipole field         -0.0001 Ry au, 
 
[...]
    -5.9691  -5.9456  -5.9234  -5.9180  -5.9030  -5.8798  -5.8761  -5.8454
    -5.8167  -5.8139  -5.7961  -5.7717  -5.7471  -5.7398  -5.7019  -5.6966
    -5.6884  -5.6550  -5.6119  -5.5900  -5.5807  -5.5459  -5.5284  -5.5085
    -5.4991  -5.4914  -5.4719  -5.4618  -5.4245  -5.4153  -5.3937  -5.3691
    -5.3011  -5.2405  -5.2311  -5.2068  -5.1961  -5.1833  -5.1574  -5.1060
    -5.0413  -5.0316  -5.0079  -4.9665  -4.9601  -4.9405  -4.9212  -4.8673
    -4.8232  -4.7748  -4.7673  -4.7561  -4.7503  -4.7052  -4.6746  -4.6651
    -4.5786  -4.5428  -4.4996  -4.4897  -4.4339  -4.4252  -4.3988  -4.3774
    -4.3681  -4.3411  -4.2247  -4.2157  -4.1895  -4.1665  -4.1373  -4.1101
    -4.0982  -4.0910  -4.0713  -3.9988  -3.9736  -3.9517  -3.9315  -3.9158
    -3.8694  -3.8315  -3.8253  -3.8016  -3.7954  -3.7670  -3.7369  -3.6988
    -3.6766  -3.6443  -3.6224  -3.6144  -3.6115  -3.5898  -3.5893  -3.5708
    -3.5393  -3.5207  -3.5098  -3.4877  -3.4832  -3.4662  -3.4541  -3.4229
    -3.4045  -3.3959  -3.3811  -3.3642  -3.3400  -3.3052  -3.2888  -3.2643
    -3.2379  -3.2358  -3.2173  -3.2066  -3.1950  -3.1478  -3.1277  -3.1013
    -3.0533  -3.0492  -3.0413  -3.0325  -3.0311  -3.0241  -3.0160  -2.9749
    -2.9443  -2.9387  -2.9311  -2.8802  -2.8697  -2.8660  -2.8111  -2.7949
    -2.7704  -2.7686  -2.7585  -2.7557  -2.7347  -2.7308  -2.7099  -2.7041
    -2.6889  -2.6658  -2.6576  -2.6291  -2.6251  -2.6113  -2.6054  -2.5962
    -2.5936  -2.5755  -2.5585  -2.5399  -2.5255  -2.5203  -2.4797  -2.4727
    -2.4510  -2.4419  -2.4210  -2.3938  -2.3596  -2.3527  -2.3329  -2.3003
    -2.2792  -2.2694  -2.2502  -2.2210  -2.2037  -2.1806  -2.1631  -2.1352
    -2.1278  -2.1195  -2.1123  -2.1032  -2.0759  -2.0646  -2.0227  -1.9944
    -1.9765  -1.9626  -1.9501  -1.9313  -1.9162  -1.9096  -1.8922  -1.8633
    -1.8536  -1.8370  -1.8166  -1.8089  -1.8024  -1.7851  -1.7720  -1.7649
    -1.7467  -1.7181  -1.7018  -1.6420  -1.6391  -1.6302  -1.5799  -1.5677
    -1.5628  -1.5337  -1.5115  -1.5010  -1.4899  -1.4817  -1.4491  -1.4340
    -1.4206  -1.4088  -1.3987  -1.3804  -1.3546  -1.3356  -1.3251  -1.3158
    -1.2730  -1.2611  -1.2426  -1.2096  -1.1882  -1.1494  -1.1199  -1.0788
    -1.0108  -0.9063  -0.8871  -0.8712  -0.8487  -0.7247  -0.7152  -0.5427
    -0.4802  -0.3163  -0.2698  -0.1378   0.1813   0.2119   0.2290   0.2460
     0.2520   0.2677   0.2942   0.3067   0.3285   0.3314   0.3517   0.3628
     0.3688   0.3744   0.3912   0.4050   0.4142   0.4158   0.4178   0.4237
     0.4288   0.4320   0.4478   0.4549   0.4574   0.4635   0.4760   0.4911
     0.4936   0.5021   0.5063   0.5140   0.5228   0.5340   0.5342   0.5412
     0.5616   0.5677   0.5762   0.5769   0.5837   0.5964   0.5992   0.6136
     0.6227   0.6245   0.6414   0.6439   0.6479   0.6518   0.6750   0.6790
     0.6827   0.6909   0.6965   0.7058   0.7123   0.7328   0.7374   0.7497
     0.7573   0.7609   0.7625   0.7728   0.7938   0.7972   0.8053   0.8108
     0.8197   0.8210   0.8300   0.8404   0.8515   0.8593   0.8698   0.8699
     0.8793   0.8920   0.9271   0.9379   0.9528   0.9550   0.9586   0.9845
     0.9987   1.0142   1.0983   1.1007   1.1994   1.2216   1.7478   1.7527
     1.7598   1.7728   1.7794   1.7879   1.8058   1.8203   1.8258   1.9045
     1.9203   1.9363   1.9658   1.9831   2.0225   2.0308   2.0457   2.1017
     2.1217   2.1338   2.1460   2.1486   2.1886   2.1944   2.2197   2.2305
     2.2448   2.2574   2.2855   2.2930   2.3027   2.3416   2.3555   2.3612
     2.3746   2.3891   2.3975   2.4152   2.4323   2.4476   2.4566   2.4769
     2.4871   2.5066   2.5094   2.5279   2.5368   2.5566   2.5875   2.6120
     2.6218   2.6355   2.6392   2.6951   2.7766   2.7946   2.8417   2.8624
     2.8913   2.9095   3.3004   3.5031   3.6320   3.6947   3.7582   3.8596
     3.9021   3.9258   3.9308   3.9541   3.9996   4.0690   4.0771   4.0891
     4.1117   4.1419   4.1499   4.1678   4.1844   4.4051   4.4853   4.6383
     4.8326   4.8805   4.9128   4.9366   4.9687   5.0322   5.0487   5.1054
     5.1269   5.1654   5.3943   6.2672   6.3598   6.4966   6.6002   6.6837
     6.7530   6.8326   6.8556   6.9086   6.9603   7.0448   7.0894   7.1822
     7.2423   7.3221   7.3521   7.3964   7.4703   7.5197   7.6166   7.6625
     7.6934   7.7020   7.7424   7.7757   7.8518   7.8618   7.8976   7.9478
     7.9832   8.0080   8.0558   8.0790   8.1159   8.1714   8.2039   8.2207
     8.2234   8.2742   8.3132   8.3350   8.3882   8.4111   8.4219   8.4392
     8.4524   8.4771   8.5073   8.5191   8.5444   8.5662   8.6058   8.6291
     8.6583   8.6914   8.6972   8.7285   8.7463   8.7878   8.8250   8.8552

     the Fermi energy is     1.6617 ev

!    total energy              =   -7738.34983320 Ry
     estimated scf accuracy    <       0.00000084 Ry
     smearing contrib. (-TS)   =      -0.02174367 Ry
     internal energy E=F+TS    =   -7738.32808953 Ry

     The total energy is F=E-TS. E is the sum of the following terms:
     one-electron contribution =  -95249.09677007 Ry
     hartree contribution      =   48240.65573337 Ry
     xc contribution           =   -2218.74146444 Ry
     ewald contribution        =   41490.66453232 Ry
     Dispersion Correction     =      -1.81022337 Ry
     electric field correction =       0.00010266 Ry

     total magnetization       =    86.97 Bohr mag/cell
     absolute magnetization    =    88.48 Bohr mag/cell

     convergence has been achieved in  93 iterations

     negative rho (up, down):  1.049E-03 5.970E-04

     Forces acting on atoms (cartesian axes, Ry/au):

     atom    1 type  1   force =     0.02515328   -0.03089190    0.01825951
     atom    2 type  2   force =    -0.01373307   -0.00150525   -0.01017298
     atom    3 type  1   force =    -0.02319419   -0.01854895    0.01964124
     atom    4 type  1   force =     0.00573683    0.00410837   -0.00657521
     atom    5 type  1   force =    -0.00191044    0.00117999   -0.00545748
     atom    6 type  1   force =     0.00208352    0.00774758   -0.00918783
     atom    7 type  3   force =    -0.00769198    0.00123413   -0.01049837
     atom    8 type  3   force =    -0.03501395    0.05414892   -0.08328938
     atom    9 type  3   force =     0.03413741    0.03817314   -0.06430128
     atom   10 type  3   force =    -0.00305615   -0.00245621   -0.01165119
     atom   11 type  4   force =     0.00670956    0.00557048    0.01397086
     atom   12 type  4   force =    -0.00023999   -0.00295123    0.01478447
     atom   13 type  4   force =     0.00194331    0.00169219    0.01735578
     atom   14 type  4   force =    -0.00051606   -0.00128359    0.01274001
     atom   15 type  4   force =    -0.00069964    0.00454421   -0.00193510
     atom   16 type  4   force =    -0.00041737    0.00261333    0.04037255
     atom   17 type  4   force =     0.00169217    0.00807582    0.03786551
     atom   18 type  4   force =     0.00800322   -0.00450559   -0.00041939
     atom   19 type  4   force =     0.00044506    0.01189851    0.00427110
     atom   20 type  4   force =    -0.00968449   -0.02673290   -0.00368255
     atom   21 type  4   force =    -0.01115280   -0.00043063    0.00065718
     atom   22 type  4   force =    -0.03204239    0.00310773    0.00786730
     atom   23 type  4   force =     0.03202722    0.00059127    0.01409504
     atom   24 type  4   force =     0.00703423   -0.03693280    0.00378711
     atom   25 type  4   force =    -0.00315311    0.00171841    0.00395638
     atom   26 type  4   force =     0.01779695   -0.00687321    0.00079571
     atom   27 type  1   force =    -0.00512932   -0.00877880    0.00280051
     atom   28 type  2   force =    -0.01323447   -0.00023586    0.00437498
     atom   29 type  1   force =     0.00296555   -0.00511987   -0.00139288
     atom   30 type  1   force =     0.00253121    0.00452346   -0.00196315
     atom   31 type  1   force =     0.00153757   -0.00478824    0.00023630
     atom   32 type  1   force =    -0.00067982    0.00132886   -0.00166311
     atom   33 type  3   force =    -0.00672749   -0.00317941   -0.00163445
     atom   34 type  3   force =    -0.00787308    0.00257197   -0.00001624
     atom   35 type  3   force =     0.00442262   -0.00059971    0.00265933
     atom   36 type  3   force =     0.00062304   -0.00043989   -0.00558914
     atom   37 type  4   force =     0.00848967    0.00530847    0.00721488
     atom   38 type  4   force =     0.00375132   -0.00081147   -0.01933670
     atom   39 type  4   force =    -0.00153335    0.00366902   -0.00972380
     atom   40 type  4   force =    -0.00147123   -0.00255259    0.00952427
     atom   41 type  4   force =    -0.00230432    0.00488952   -0.00754564
     atom   42 type  4   force =    -0.00445787   -0.00436360    0.01786775
     atom   43 type  4   force =     0.00769585    0.00336855    0.00774835
     atom   44 type  4   force =     0.01036620   -0.00591238   -0.00640411
     atom   45 type  4   force =     0.00285078    0.00392020    0.00066062
     atom   46 type  4   force =     0.00240677   -0.00020132   -0.00558924
     atom   47 type  4   force =    -0.01286972   -0.00076793   -0.00341437
     atom   48 type  4   force =    -0.01471820    0.00123958    0.00342324
     atom   49 type  4   force =     0.01370691    0.00253984    0.00438512
     atom   50 type  4   force =    -0.00275873   -0.00503759   -0.00050908
     atom   51 type  4   force =    -0.00538105    0.00202105    0.00029326
     atom   52 type  4   force =     0.01556991   -0.00344498   -0.00465772
     atom   53 type  1   force =     0.00038826    0.00028690    0.00016683
     atom   54 type  2   force =    -0.00030727   -0.00039476    0.00011867
     atom   55 type  1   force =    -0.00002409    0.00020915    0.00025187
     atom   56 type  1   force =     0.00007157    0.00003080    0.00026899
     atom   57 type  1   force =     0.00028043   -0.00017988    0.00050994
     atom   58 type  1   force =     0.00036427    0.00014414    0.00054871
     atom   59 type  3   force =     0.00043100   -0.00066147    0.00067887
     atom   60 type  3   force =     0.00000948   -0.00063487    0.00027052
     atom   61 type  3   force =    -0.00005587    0.00004480    0.00027333
     atom   62 type  3   force =    -0.00005742   -0.00022401   -0.00004428
     atom   63 type  4   force =    -0.00024444   -0.00022675    0.00005058
     atom   64 type  4   force =     0.00019888   -0.00055341    0.00025041
     atom   65 type  4   force =     0.00006991    0.00038539    0.00023976
     atom   66 type  4   force =    -0.00016252    0.00009426    0.00003710
     atom   67 type  4   force =    -0.00045592    0.00023612    0.00027521
     atom   68 type  4   force =    -0.00014304    0.00053062   -0.00014895
     atom   69 type  4   force =     0.00030511   -0.00077437   -0.00081839
     atom   70 type  4   force =     0.00028837   -0.00014288    0.00053844
     atom   71 type  4   force =    -0.00002501   -0.00016161    0.00029284
     atom   72 type  4   force =     0.00002649    0.00018996   -0.00037414
     atom   73 type  4   force =     0.00002206    0.00009534   -0.00042894
     atom   74 type  4   force =     0.00028860    0.00008171    0.00021375
     atom   75 type  4   force =     0.00003593    0.00016262    0.00027603
     atom   76 type  4   force =    -0.00012767    0.00024949    0.00056989
     atom   77 type  4   force =    -0.00015314    0.00009279    0.00038019
     atom   78 type  4   force =     0.00018464   -0.00055705   -0.00050522
     atom   79 type  1   force =     0.02514989   -0.03089244    0.01826467
     atom   80 type  2   force =    -0.01372059   -0.00154757   -0.01014789
     atom   81 type  1   force =    -0.02319013   -0.01854026    0.01964917
     atom   82 type  1   force =     0.00572532    0.00410809   -0.00657290
     atom   83 type  1   force =    -0.00192030    0.00118688   -0.00545894
     atom   84 type  1   force =     0.00207225    0.00774651   -0.00919017
     atom   85 type  3   force =    -0.00769901    0.00119952   -0.01044119
     atom   86 type  3   force =    -0.03501183    0.05414864   -0.08328736
     atom   87 type  3   force =     0.03414012    0.03817227   -0.06429945
     atom   88 type  3   force =    -0.00304371   -0.00245958   -0.01165151
     atom   89 type  4   force =     0.00682083    0.00557511    0.01395881
     atom   90 type  4   force =    -0.00014416   -0.00286472    0.01477636
     atom   91 type  4   force =     0.00203136    0.00168333    0.01732699
     atom   92 type  4   force =    -0.00035329   -0.00127819    0.01274285
     atom   93 type  4   force =    -0.00070179    0.00475382   -0.00184417
     atom   94 type  4   force =    -0.00048037    0.00257129    0.04016907
     atom   95 type  4   force =     0.00182375    0.00807783    0.03786726
     atom   96 type  4   force =     0.00779755   -0.00452332   -0.00043904
     atom   97 type  4   force =     0.00052443    0.01195213    0.00417182
     atom   98 type  4   force =    -0.00957988   -0.02656292   -0.00365090
     atom   99 type  4   force =    -0.01116775   -0.00039857    0.00085205
     atom  100 type  4   force =    -0.03207443    0.00300222    0.00774020
     atom  101 type  4   force =     0.03205612    0.00059502    0.01410259
     atom  102 type  4   force =     0.00685634   -0.03693340    0.00379168
     atom  103 type  4   force =    -0.00306235    0.00167226    0.00392075
     atom  104 type  4   force =     0.01792924   -0.00687087    0.00078029
     atom  105 type  1   force =    -0.00532668   -0.00867041    0.00275933
     atom  106 type  2   force =    -0.01343384    0.00023845    0.00449669
     atom  107 type  1   force =     0.00301075   -0.00512817   -0.00136361
     atom  108 type  1   force =     0.00271423    0.00362112   -0.00112468
     atom  109 type  1   force =     0.00140200   -0.00472772    0.00015622
     atom  110 type  1   force =    -0.00100551    0.00133403   -0.00161473
     atom  111 type  3   force =    -0.00682880   -0.00341503   -0.00086669
     atom  112 type  3   force =    -0.00811316    0.00270967   -0.00019867
     atom  113 type  3   force =     0.00441976   -0.00068720    0.00266921
     atom  114 type  3   force =     0.00060650    0.00040011   -0.00510878
     atom  115 type  4   force =     0.00875953    0.00534198    0.00712586
     atom  116 type  4   force =     0.00381108   -0.00091670   -0.01938285
     atom  117 type  4   force =    -0.00131500    0.00371314   -0.00969290
     atom  118 type  4   force =    -0.00125048   -0.00289477    0.00952535
     atom  119 type  4   force =    -0.00317082    0.00390440   -0.00705898
     atom  120 type  4   force =    -0.00415749   -0.00459827    0.01783137
     atom  121 type  4   force =     0.00773084    0.00337416    0.00776616
     atom  122 type  4   force =     0.01027185   -0.00592018   -0.00580824
     atom  123 type  4   force =     0.00306005    0.00362482   -0.00026676
     atom  124 type  4   force =     0.00229436   -0.00009737   -0.00557376
     atom  125 type  4   force =    -0.01278989   -0.00085965   -0.00331386
     atom  126 type  4   force =    -0.01479048    0.00125765    0.00341743
     atom  127 type  4   force =     0.01361573    0.00243021    0.00447666
     atom  128 type  4   force =    -0.00289127   -0.00508250   -0.00047379
     atom  129 type  4   force =    -0.00566125    0.00214987    0.00002455
     atom  130 type  4   force =     0.01577856   -0.00363595   -0.00442303
     atom  131 type  1   force =     0.00036981    0.00011688    0.00042149
     atom  132 type  2   force =    -0.00036689    0.00012469    0.00032731
     atom  133 type  1   force =    -0.00013667    0.00008689    0.00043028
     atom  134 type  1   force =    -0.00038448   -0.00021799   -0.00041737
     atom  135 type  1   force =     0.00045993   -0.00059843    0.00044915
     atom  136 type  1   force =     0.00055007   -0.00011353    0.00048099
     atom  137 type  3   force =    -0.00015421    0.00056652   -0.00001898
     atom  138 type  3   force =    -0.00006106   -0.00028183    0.00038774
     atom  139 type  3   force =     0.00034393   -0.00009431    0.00007816
     atom  140 type  3   force =    -0.00014079   -0.00023408   -0.00030530
     atom  141 type  4   force =     0.00005560    0.00025924    0.00008782
     atom  142 type  4   force =    -0.00008741    0.00008372    0.00038257
     atom  143 type  4   force =     0.00051211   -0.00009481    0.00009230
     atom  144 type  4   force =    -0.00007248    0.00008703   -0.00031073
     atom  145 type  4   force =     0.00045235   -0.00004422    0.00048056
     atom  146 type  4   force =     0.00000002    0.00027362    0.00034291
     atom  147 type  4   force =    -0.00042431   -0.00041541   -0.00027839
     atom  148 type  4   force =     0.00047455    0.00000008    0.00042570
     atom  149 type  4   force =    -0.00021800   -0.00036021    0.00027043
     atom  150 type  4   force =     0.00007836   -0.00043774    0.00012626
     atom  151 type  4   force =     0.00000868   -0.00011077   -0.00004207
     atom  152 type  4   force =     0.00038535   -0.00010077   -0.00007775
     atom  153 type  4   force =     0.00005373    0.00026253   -0.00019404
     atom  154 type  4   force =     0.00042805   -0.00006315   -0.00002550
     atom  155 type  4   force =    -0.00002535    0.00010548   -0.00014535
     atom  156 type  4   force =     0.00001658    0.00009108   -0.00002369
     atom  157 type  4   force =     0.00770914   -0.00613292   -0.00100144
     atom  158 type  5   force =    -0.00658930    0.00544196    0.00205846

     Total force =     0.263066     Total SCF correction =     0.004014
 
     init_run     :      9.41s CPU     10.31s WALL (       1 calls)
     electrons    :   1387.69s CPU   1461.77s WALL (       1 calls)
     forces       :      4.24s CPU      4.71s WALL (       1 calls)
     force_london :      0.12s CPU      0.12s WALL (       1 calls)

     Called by init_run:
     wfcinit      :      5.91s CPU      6.18s WALL (       1 calls)
     potinit      :      0.50s CPU      0.73s WALL (       1 calls)
     hinit0       :      1.55s CPU      1.67s WALL (       1 calls)

     Called by electrons:
     c_bands      :   1092.47s CPU   1131.09s WALL (      93 calls)
     sum_band     :    186.05s CPU    205.23s WALL (      93 calls)
     v_of_rho     :     24.62s CPU     25.98s WALL (      94 calls)
     newd         :     55.69s CPU     70.49s WALL (      94 calls)
     mix_rho      :     27.49s CPU     27.69s WALL (      93 calls)
     energy_londo :      0.10s CPU      0.10s WALL (       1 calls)

     Called by c_bands:
     init_us_2    :      3.83s CPU      3.92s WALL (     376 calls)
     init_us_2:cp :      3.82s CPU      3.92s WALL (     376 calls)
     regterg      :   1066.92s CPU   1105.16s WALL (     189 calls)

     Called by *egterg:
     rdiaghg      :    296.53s CPU    314.28s WALL (     726 calls)
     h_psi        :    427.39s CPU    437.43s WALL (     728 calls)
     s_psi        :     83.81s CPU     83.90s WALL (     728 calls)
     g_psi        :      0.63s CPU      0.64s WALL (     537 calls)

     Called by h_psi:
     h_psi:calbec :    102.66s CPU    110.62s WALL (     728 calls)
     vloc_psi     :    240.18s CPU    241.37s WALL (     728 calls)
     add_vuspsi   :     83.30s CPU     84.16s WALL (     728 calls)

     General routines
     calbec       :    151.46s CPU    163.37s WALL (     922 calls)
     fft          :     17.60s CPU     19.42s WALL (    1705 calls)
     ffts         :     16.44s CPU     16.49s WALL (   11597 calls)
     fftw         :    261.61s CPU    262.83s WALL (  316356 calls)
     interpolate  :      1.69s CPU      1.97s WALL (     188 calls)
 
     Parallel routines
 
     PWSCF        :  23m23.44s CPU  24m39.23s WALL

 
   This run was terminated on:   1: 5:38  18Nov2025            

=------------------------------------------------------------------------------=
   JOB DONE.
=------------------------------------------------------------------------------=
