
     Program PWSCF v.7.2 starts on 17Nov2025 at 21:55:27 

     This program is part of the open-source Quantum ESPRESSO suite
     for quantum simulation of materials; please cite
         "P. Giannozzi et al., J. Phys.:Condens. Matter 21 395502 (2009);
         "P. Giannozzi et al., J. Phys.:Condens. Matter 29 465901 (2017);
         "P. Giannozzi et al., J. Chem. Phys. 152 154105 (2020);
          URL http://www.quantum-espresso.org", 
     in publications or presentations arising from this work. More details at
     http://www.quantum-espresso.org/quote

     Parallel version (MPI), running on    64 processors

     MPI processes distributed on     4 nodes
     342785 MiB available memory on the printing compute node when the environment starts
 
     Reading input from PWINPUT_atm157_yp

     Current dimensions of program PWSCF are:
     Max number of different atomic species (ntypx) = 10
     Max number of k-points (npk) =  40000
     Max angular momentum in pseudopotentials (lmaxx) =  4
     Presently no symmetry can be used with electric field

     file Ni.pbe-n-rrkjus_psl.1.0.0.UPF: wavefunction(s)  3D renormalized
     file Mn.pbe-spn-rrkjus_psl.0.3.1.UPF: wavefunction(s)  3D renormalized
     file O.pbe-rrkjus.UPF: wavefunction(s)  2S renormalized
     file H.pbe-rrkjus.UPF: wavefunction(s)  1S renormalized

     gamma-point specific algorithms are used
 
     R & G space division:  proc/nbgrp/npool/nimage =      64
     Subspace diagonalization in iterative solution of the eigenvalue problem:
     one sub-group per band group will be used
     custom distributed-memory algorithm (size of sub-group:  7*  7 procs)

 
     Parallelization info
     --------------------
     sticks:   dense  smooth     PW     G-vecs:    dense   smooth      PW
     Min         207      82     20                60552    15302    1896
     Max         210      84     22                60574    15336    1950
     Sum       13325    5345   1333              3876045   980655  122653
 
     Using Slab Decomposition
 


     bravais-lattice index     =            0
     lattice parameter (alat)  =      17.4067  a.u.
     unit-cell volume          =   20529.8182 (a.u.)^3
     number of atoms/cell      =          158
     number of atomic types    =            5
     number of electrons       =      1093.00
     number of Kohn-Sham states=          656
     kinetic-energy cutoff     =      50.0000  Ry
     charge density cutoff     =     500.0000  Ry
     scf convergence threshold =      1.0E-06
     mixing beta               =       0.1000
     number of iterations used =            8  local-TF  mixing
     Exchange-correlation=  SLA  PW   PBE  PBE
                           (   1   4   3   4   0   0   0)

     celldm(1)=  17.406729  celldm(2)=   0.000000  celldm(3)=   0.000000
     celldm(4)=   0.000000  celldm(5)=   0.000000  celldm(6)=   0.000000

     crystal axes: (cart. coord. in units of alat)
               a(1) = (   1.000000   0.000000   0.000000 )  
               a(2) = (  -0.001404   1.105696   0.000000 )  
               a(3) = (   0.000000   0.000000   3.520448 )  

     reciprocal axes: (cart. coord. in units 2 pi/alat)
               b(1) = (  1.000000  0.001270  0.000000 )  
               b(2) = (  0.000000  0.904408  0.000000 )  
               b(3) = (  0.000000  0.000000  0.284055 )  


     PseudoPot. # 1 for Ni read from file:
     ~/PSEUDO/Ni.pbe-n-rrkjus_psl.1.0.0.UPF
     MD5 check sum: Not computed, couldn't open file
     Pseudo is Ultrasoft + core correction, Zval = 10.0
     Generated using "atomic" code by A. Dal Corso  v.5.1.2
     Using radial grid of 1195 points,  6 beta functions with: 
                l(1) =   0
                l(2) =   0
                l(3) =   1
                l(4) =   1
                l(5) =   2
                l(6) =   2
     Q(r) pseudized with 0 coefficients 


     PseudoPot. # 2 for Mn read from file:
     ~/PSEUDO/Mn.pbe-spn-rrkjus_psl.0.3.1.UPF
     MD5 check sum: Not computed, couldn't open file
     Pseudo is Ultrasoft + core correction, Zval = 15.0
     Generated using &quot;atomic&quot; code by A. Dal Corso  v.6.2.2
     Using radial grid of 1187 points,  6 beta functions with: 
                l(1) =   0
                l(2) =   0
                l(3) =   1
                l(4) =   1
                l(5) =   2
                l(6) =   2
     Q(r) pseudized with 0 coefficients 


     PseudoPot. # 3 for P  read from file:
     ~/PSEUDO/P.pbe-n-rrkjus_psl.1.0.0.UPF
     MD5 check sum: Not computed, couldn't open file
     Pseudo is Ultrasoft + core correction, Zval =  5.0
     Generated using "atomic" code by A. Dal Corso  v.5.1
     Using radial grid of 1147 points,  6 beta functions with: 
                l(1) =   0
                l(2) =   0
                l(3) =   1
                l(4) =   1
                l(5) =   2
                l(6) =   2
     Q(r) pseudized with 0 coefficients 


     PseudoPot. # 4 for O  read from file:
     ~/PSEUDO/O.pbe-rrkjus.UPF
     MD5 check sum: Not computed, couldn't open file
     Pseudo is Ultrasoft, Zval =  6.0
     Generated by new atomic code, or converted to UPF format
     Using radial grid of 1269 points,  4 beta functions with: 
                l(1) =   0
                l(2) =   0
                l(3) =   1
                l(4) =   1
     Q(r) pseudized with 0 coefficients 


     PseudoPot. # 5 for H  read from file:
     ~/PSEUDO/H.pbe-rrkjus.UPF
     MD5 check sum: Not computed, couldn't open file
     Pseudo is Ultrasoft, Zval =  1.0
     Generated by new atomic code, or converted to UPF format
     Using radial grid of 1061 points,  2 beta functions with: 
                l(1) =   0
                l(2) =   0
     Q(r) pseudized with 0 coefficients 


     atomic species   valence    mass     pseudopotential
     Ni               10.00    58.69300     Ni( 1.00)
     Mn               15.00    54.93800     Mn( 1.00)
     P                 5.00    30.97300     P ( 1.00)
     O                 6.00    15.99900     O ( 1.00)
     H                 1.00     1.00790     H ( 1.00)

     Starting magnetic structure 
     atomic species   magnetization
     Ni              1.000
     Mn              1.000
     P               1.000
     O               1.000
     H               0.000

     No symmetry found



   Cartesian axes

     site n.     atom                  positions (alat units)
         1        Ni     tau(   1) = (   0.2421002   0.8609138   0.1302181  )
         2        Mn     tau(   2) = (   0.4924481   0.7886602   0.4655392  )
         3        Ni     tau(   3) = (   0.0052341   0.3031820   0.1284544  )
         4        Ni     tau(   4) = (   0.2570603   0.2374878   0.4617901  )
         5        Ni     tau(   5) = (   0.4976584   1.1048203   0.2964410  )
         6        Ni     tau(   6) = (   0.2495781   0.5440308   0.2953805  )
         7        P      tau(   7) = (   0.2083492   0.9982113   0.4588145  )
         8        P      tau(   8) = (   0.4584476   0.6559264   0.1347090  )
         9        P      tau(   9) = (   0.2889394   0.1031966   0.1319347  )
        10        P      tau(  10) = (   0.0400379   0.4338094   0.4586283  )
        11        O      tau(  11) = (   0.1314218   0.9248062   0.3189972  )
        12        O      tau(  12) = (   0.3797244   0.7272031   0.2742874  )
        13        O      tau(  13) = (   0.3662315   0.1762062   0.2720888  )
        14        O      tau(  14) = (   0.1171240   0.3646150   0.3169340  )
        15        O      tau(  15) = (   0.1510364   0.9068326   0.5881934  )
        16        O      tau(  16) = (   0.3981989   0.7453439   0.0053495  )
        17        O      tau(  17) = (   0.3490561   0.1888693   0.0010856  )
        18        O      tau(  18) = (   0.0982395   0.3475583   0.5894443  )
        19        O      tau(  19) = (   0.0992163   0.5918099   0.4542505  )
        20        O      tau(  20) = (   0.3467441   1.0504690   0.1405000  )
        21        O      tau(  21) = (   0.3739183   0.4303319   0.4477971  )
        22        O      tau(  22) = (   0.1230967   0.1088895   0.1422960  )
        23        O      tau(  23) = (   0.1242901   0.6635968   0.1442928  )
        24        O      tau(  24) = (   0.4011802   0.4971632   0.1376281  )
        25        O      tau(  25) = (   0.1484006   0.0497464   0.4550965  )
        26        O      tau(  26) = (   0.3736100   0.9942556   0.4492158  )
        27        Ni     tau(  27) = (   0.2413539   0.8509941   0.7820408  )
        28        Mn     tau(  28) = (   0.4917018   0.7787406   1.1173619  )
        29        Ni     tau(  29) = (   0.0044877   0.2932623   0.7802771  )
        30        Ni     tau(  30) = (   0.2563139   0.2275682   1.1136128  )
        31        Ni     tau(  31) = (   0.4969120   1.0949007   0.9482637  )
        32        Ni     tau(  32) = (   0.2488318   0.5341111   0.9472032  )
        33        P      tau(  33) = (   0.2076029   0.9882917   1.1106372  )
        34        P      tau(  34) = (   0.4577012   0.6460068   0.7865316  )
        35        P      tau(  35) = (   0.2881931   0.0932770   0.7837574  )
        36        P      tau(  36) = (   0.0392916   0.4238898   1.1104509  )
        37        O      tau(  37) = (   0.1306755   0.9148866   0.9708199  )
        38        O      tau(  38) = (   0.3789780   0.7172835   0.9261101  )
        39        O      tau(  39) = (   0.3654852   0.1662865   0.9239115  )
        40        O      tau(  40) = (   0.1163776   0.3546954   0.9687567  )
        41        O      tau(  41) = (   0.1502901   0.8969129   1.2400160  )
        42        O      tau(  42) = (   0.3974525   0.7354243   0.6571722  )
        43        O      tau(  43) = (   0.3483097   0.1789497   0.6529083  )
        44        O      tau(  44) = (   0.0974932   0.3376387   1.2412670  )
        45        O      tau(  45) = (   0.0984699   0.5818903   1.1060732  )
        46        O      tau(  46) = (   0.3459978   1.0405493   0.7923226  )
        47        O      tau(  47) = (   0.3731719   0.4204123   1.0996198  )
        48        O      tau(  48) = (   0.1223503   0.0989699   0.7941187  )
        49        O      tau(  49) = (   0.1235438   0.6536772   0.7961155  )
        50        O      tau(  50) = (   0.4004339   0.4872435   0.7894508  )
        51        O      tau(  51) = (   0.1476543   0.0398268   1.1069192  )
        52        O      tau(  52) = (   0.3728637   0.9843360   1.1010385  )
        53        Ni     tau(  53) = (   0.2405000   0.8314791   1.4310848  )
        54        Mn     tau(  54) = (   0.4953493   0.7643247   1.7724492  )
        55        Ni     tau(  55) = (   0.0038518   0.2756365   1.4285360  )
        56        Ni     tau(  56) = (   0.2471345   0.2153113   1.7400474  )
        57        Ni     tau(  57) = (   0.4995752   1.0720933   1.5947286  )
        58        Ni     tau(  58) = (   0.2421013   0.5219868   1.5980514  )
        59        P      tau(  59) = (   0.2104375   0.9681194   1.7574697  )
        60        P      tau(  60) = (   0.4534410   0.6275485   1.4348057  )
        61        P      tau(  61) = (   0.2894259   0.0743283   1.4290817  )
        62        P      tau(  62) = (   0.0298192   0.4013010   1.7598256  )
        63        O      tau(  63) = (   0.1358441   0.9005122   1.6129847  )
        64        O      tau(  64) = (   0.3771008   0.7024676   1.5717788  )
        65        O      tau(  65) = (   0.3674645   0.1471109   1.5680584  )
        66        O      tau(  66) = (   0.1092283   0.3457090   1.6100373  )
        67        O      tau(  67) = (   0.1496755   0.8741583   1.8808047  )
        68        O      tau(  68) = (   0.3923953   0.7169116   1.3059963  )
        69        O      tau(  69) = (   0.3499475   0.1644431   1.3009773  )
        70        O      tau(  70) = (   0.0894679   0.3000020   1.8751501  )
        71        O      tau(  71) = (   0.0835747   0.5628016   1.7646462  )
        72        O      tau(  72) = (   0.3492253   1.0223474   1.4345599  )
        73        O      tau(  73) = (   0.3642103   0.4027294   1.7423561  )
        74        O      tau(  74) = (   0.1229734   0.0811149   1.4416195  )
        75        O      tau(  75) = (   0.1204474   0.6369096   1.4465931  )
        76        O      tau(  76) = (   0.3946534   0.4694481   1.4371785  )
        77        O      tau(  77) = (   0.1552554   0.0214678   1.7549498  )
        78        O      tau(  78) = (   0.3781421   0.9602342   1.7485231  )
        79        Ni     tau(  79) = (   0.7421002   0.8609138   0.1302181  )
        80        Mn     tau(  80) = (   0.9924481   0.7886602   0.4655392  )
        81        Ni     tau(  81) = (   0.5052341   0.3031820   0.1284544  )
        82        Ni     tau(  82) = (   0.7570603   0.2374878   0.4617901  )
        83        Ni     tau(  83) = (   0.9976584   1.1048203   0.2964410  )
        84        Ni     tau(  84) = (   0.7495781   0.5440308   0.2953805  )
        85        P      tau(  85) = (   0.7083492   0.9982113   0.4588145  )
        86        P      tau(  86) = (   0.9584476   0.6559264   0.1347090  )
        87        P      tau(  87) = (   0.7889394   0.1031966   0.1319347  )
        88        P      tau(  88) = (   0.5400379   0.4338094   0.4586283  )
        89        O      tau(  89) = (   0.6314218   0.9248062   0.3189972  )
        90        O      tau(  90) = (   0.8797244   0.7272031   0.2742874  )
        91        O      tau(  91) = (   0.8662315   0.1762062   0.2720888  )
        92        O      tau(  92) = (   0.6171240   0.3646150   0.3169340  )
        93        O      tau(  93) = (   0.6510364   0.9068326   0.5881934  )
        94        O      tau(  94) = (   0.8981989   0.7453439   0.0053495  )
        95        O      tau(  95) = (   0.8490561   0.1888693   0.0010856  )
        96        O      tau(  96) = (   0.5982395   0.3475583   0.5894443  )
        97        O      tau(  97) = (   0.5992163   0.5918099   0.4542505  )
        98        O      tau(  98) = (   0.8467441   1.0504690   0.1405000  )
        99        O      tau(  99) = (   0.8739183   0.4303319   0.4477971  )
       100        O      tau( 100) = (   0.6230967   0.1088895   0.1422960  )
       101        O      tau( 101) = (   0.6242901   0.6635968   0.1442928  )
       102        O      tau( 102) = (   0.9011802   0.4971632   0.1376281  )
       103        O      tau( 103) = (   0.6484006   0.0497464   0.4550965  )
       104        O      tau( 104) = (   0.8736100   0.9942556   0.4492158  )
       105        Ni     tau( 105) = (   0.7413539   0.8509941   0.7820408  )
       106        Mn     tau( 106) = (   0.9917018   0.7787406   1.1173619  )
       107        Ni     tau( 107) = (   0.5044877   0.2932623   0.7802771  )
       108        Ni     tau( 108) = (   0.7563139   0.2275682   1.1136128  )
       109        Ni     tau( 109) = (   0.9969120   1.0949007   0.9482637  )
       110        Ni     tau( 110) = (   0.7488318   0.5341111   0.9472032  )
       111        P      tau( 111) = (   0.7076029   0.9882917   1.1106372  )
       112        P      tau( 112) = (   0.9577012   0.6460068   0.7865316  )
       113        P      tau( 113) = (   0.7881931   0.0932770   0.7837574  )
       114        P      tau( 114) = (   0.5392916   0.4238898   1.1104509  )
       115        O      tau( 115) = (   0.6306755   0.9148866   0.9708199  )
       116        O      tau( 116) = (   0.8789780   0.7172835   0.9261101  )
       117        O      tau( 117) = (   0.8654852   0.1662865   0.9239115  )
       118        O      tau( 118) = (   0.6163776   0.3546954   0.9687567  )
       119        O      tau( 119) = (   0.6502901   0.8969129   1.2400160  )
       120        O      tau( 120) = (   0.8974525   0.7354243   0.6571722  )
       121        O      tau( 121) = (   0.8483097   0.1789497   0.6529083  )
       122        O      tau( 122) = (   0.5974932   0.3376387   1.2412670  )
       123        O      tau( 123) = (   0.5984699   0.5818903   1.1060732  )
       124        O      tau( 124) = (   0.8459978   1.0405493   0.7923226  )
       125        O      tau( 125) = (   0.8731719   0.4204123   1.0996198  )
       126        O      tau( 126) = (   0.6223503   0.0989699   0.7941187  )
       127        O      tau( 127) = (   0.6235438   0.6536772   0.7961155  )
       128        O      tau( 128) = (   0.9004339   0.4872435   0.7894508  )
       129        O      tau( 129) = (   0.6476543   0.0398268   1.1069192  )
       130        O      tau( 130) = (   0.8728637   0.9843360   1.1010385  )
       131        Ni     tau( 131) = (   0.7369169   0.8303788   1.4329327  )
       132        Mn     tau( 132) = (   0.9924005   0.7622218   1.7630345  )
       133        Ni     tau( 133) = (   0.5034179   0.2756585   1.4286710  )
       134        Ni     tau( 134) = (   0.7445338   0.2135857   1.7404923  )
       135        Ni     tau( 135) = (   0.9992947   1.0745006   1.5940287  )
       136        Ni     tau( 136) = (   0.7415282   0.5178646   1.5926001  )
       137        P      tau( 137) = (   0.7110408   0.9653555   1.7633289  )
       138        P      tau( 138) = (   0.9541428   0.6272498   1.4343540  )
       139        P      tau( 139) = (   0.7882006   0.0737553   1.4295411  )
       140        P      tau( 140) = (   0.5313065   0.4052692   1.7579671  )
       141        O      tau( 141) = (   0.6299655   0.8889021   1.6239329  )
       142        O      tau( 142) = (   0.8763186   0.7000804   1.5722760  )
       143        O      tau( 143) = (   0.8661823   0.1476707   1.5678971  )
       144        O      tau( 144) = (   0.6092775   0.3424902   1.6091934  )
       145        O      tau( 145) = (   0.6577452   0.8727635   1.8894301  )
       146        O      tau( 146) = (   0.8931487   0.7181693   1.3070025  )
       147        O      tau( 147) = (   0.8501811   0.1623852   1.3009768  )
       148        O      tau( 148) = (   0.5909310   0.3060790   1.8752837  )
       149        O      tau( 149) = (   0.5915698   0.5653327   1.7515015  )
       150        O      tau( 150) = (   0.8456292   1.0209939   1.4372118  )
       151        O      tau( 151) = (   0.8624603   0.3999669   1.7434469  )
       152        O      tau( 152) = (   0.6217882   0.0804133   1.4417608  )
       153        O      tau( 153) = (   0.6203335   0.6358635   1.4429875  )
       154        O      tau( 154) = (   0.8954317   0.4691053   1.4351315  )
       155        O      tau( 155) = (   0.6536438   0.0182650   1.7541421  )
       156        O      tau( 156) = (   0.8777501   0.9608304   1.7456676  )
       157        O      tau( 157) = (   0.3827920   0.6919782   1.9089598  )
       158        H      tau( 158) = (   0.2940038   0.7492246   1.9272249  )

     -------------------------------------------------
     Parameters for Dispersion (Grimme-D2) Correction:
     -------------------------------------------------
       atom      VdW radius       C_6     

        Ni         2.952        374.666
        Mn         2.952        374.666
        P          3.222        271.980
        O          2.536         24.284
        H          1.892          4.857

     number of k points=     1  Gaussian smearing, width (Ry)=  0.0100
                       cart. coord. in units 2pi/alat
        k(    1) = (   0.0000000   0.0000000   0.0000000), wk =   1.0000000

     Dense  grid:  1938023 G-vectors     FFT dimensions: ( 125, 144, 450)

     Smooth grid:   490328 G-vectors     FFT dimensions: (  80,  90, 288)

     Estimated max dynamical RAM per process >     326.29 MB

     Estimated total dynamical RAM >      20.39 GB

     Check: negative core charge=   -0.000001
     Generating pointlists ...
     new r_m :   0.0887 (alat units)  1.5440 (a.u.) for type    1
     new r_m :   0.0788 (alat units)  1.3725 (a.u.) for type    2
     new r_m :   0.0679 (alat units)  1.1824 (a.u.) for type    3
     new r_m :   0.0442 (alat units)  0.7698 (a.u.) for type    4
     new r_m :   0.0442 (alat units)  0.7698 (a.u.) for type    5

     Initial potential from superposition of free atoms

     starting charge    1092.8893, renormalised to    1093.0000

     negative rho (up, down):  1.402E-03 4.519E-04
 
     Adding external electric field

     Computed dipole along edir(3) : 
        Dipole                1.6270 Ry au,          4.1353 Debye
        Dipole field          0.0010 Ry au, 
 
        Potential amp.       -0.1098 Ry
        Total length         55.1515 bohr
 
 
     Adding external electric field

     Computed dipole along edir(3) : 
        Dipole                1.6270 Ry au,          4.1353 Debye
        Dipole field          0.0010 Ry au, 
 
        Potential amp.       -0.1098 Ry
        Total length         55.1515 bohr
 
     Starting wfcs are  815 randomized atomic wfcs

     total cpu time spent up to now is       11.9 secs

     Self-consistent Calculation

     iteration #  1     ecut=    50.00 Ry     beta= 0.10
     Davidson diagonalization with overlap
     ethr =  1.00E-02,  avg # of iterations =  6.0

     negative rho (up, down):  3.737E-01 2.115E-07
 
     Adding external electric field

     Computed dipole along edir(3) : 
        Dipole               -3.5696 Ry au,         -9.0729 Debye
        Dipole field         -0.0022 Ry au, 
 
        Potential amp.        0.2410 Ry
        Total length         55.1515 bohr
 
 
     Adding external electric field

     Computed dipole along edir(3) : 
        Dipole               -3.5696 Ry au,         -9.0729 Debye
        Dipole field         -0.0022 Ry au, 
 
        Potential amp.        0.2410 Ry
        Total length         55.1515 bohr
 

     total cpu time spent up to now is       42.8 secs

     total energy              =   -7516.52366916 Ry
     estimated scf accuracy    <     738.82638222 Ry

     total magnetization       =   219.00 Bohr mag/cell
     absolute magnetization    =   307.68 Bohr mag/cell

     iteration #  2     ecut=    50.00 Ry     beta= 0.10
     Davidson diagonalization with overlap
     ethr =  1.00E-02,  avg # of iterations =  2.0

     negative rho (up, down):  3.558E-01 1.004E-07
 
     Adding external electric field

     Computed dipole along edir(3) : 
        Dipole               -2.3427 Ry au,         -5.9545 Debye
        Dipole field         -0.0014 Ry au, 
 
        Potential amp.        0.1582 Ry
        Total length         55.1515 bohr
 
 
     Adding external electric field

     Computed dipole along edir(3) : 
        Dipole               -2.3427 Ry au,         -5.9545 Debye
        Dipole field         -0.0014 Ry au, 
 
        Potential amp.        0.1582 Ry
        Total length         55.1515 bohr
 

     total cpu time spent up to now is       61.9 secs

     total energy              =   -7600.27428985 Ry
     estimated scf accuracy    <     215.77207172 Ry

     total magnetization       =   160.05 Bohr mag/cell
     absolute magnetization    =   208.03 Bohr mag/cell

     iteration #  3     ecut=    50.00 Ry     beta= 0.10
     Davidson diagonalization with overlap
     ethr =  1.00E-02,  avg # of iterations =  1.5

     negative rho (up, down):  3.168E-01 7.250E-08
 
     Adding external electric field

     Computed dipole along edir(3) : 
        Dipole               -2.0588 Ry au,         -5.2328 Debye
        Dipole field         -0.0013 Ry au, 
 
        Potential amp.        0.1390 Ry
        Total length         55.1515 bohr
 
 
     Adding external electric field

     Computed dipole along edir(3) : 
        Dipole               -2.0588 Ry au,         -5.2328 Debye
        Dipole field         -0.0013 Ry au, 
 
        Potential amp.        0.1390 Ry
        Total length         55.1515 bohr
 

     total cpu time spent up to now is       76.5 secs

     total energy              =   -7629.84358173 Ry
     estimated scf accuracy    <     100.13292774 Ry

     total magnetization       =   136.23 Bohr mag/cell
     absolute magnetization    =   186.78 Bohr mag/cell

     iteration #  4     ecut=    50.00 Ry     beta= 0.10
     Davidson diagonalization with overlap
     ethr =  9.16E-03,  avg # of iterations =  1.5

     negative rho (up, down):  2.437E-01 1.687E-08
 
     Adding external electric field

     Computed dipole along edir(3) : 
        Dipole               -1.9614 Ry au,         -4.9853 Debye
        Dipole field         -0.0012 Ry au, 
 
        Potential amp.        0.1324 Ry
        Total length         55.1515 bohr
 
 
     Adding external electric field

     Computed dipole along edir(3) : 
        Dipole               -1.9614 Ry au,         -4.9853 Debye
        Dipole field         -0.0012 Ry au, 
 
        Potential amp.        0.1324 Ry
        Total length         55.1515 bohr
 

     total cpu time spent up to now is       91.4 secs

     total energy              =   -7663.93445664 Ry
     estimated scf accuracy    <      82.68840633 Ry

     total magnetization       =   120.26 Bohr mag/cell
     absolute magnetization    =   172.52 Bohr mag/cell

     iteration #  5     ecut=    50.00 Ry     beta= 0.10
     Davidson diagonalization with overlap
     ethr =  7.57E-03,  avg # of iterations =  1.0

     negative rho (up, down):  2.659E-02 9.450E-08
 
     Adding external electric field

     Computed dipole along edir(3) : 
        Dipole               -1.6051 Ry au,         -4.0797 Debye
        Dipole field         -0.0010 Ry au, 
 
        Potential amp.        0.1084 Ry
        Total length         55.1515 bohr
 
 
     Adding external electric field

     Computed dipole along edir(3) : 
        Dipole               -1.6051 Ry au,         -4.0797 Debye
        Dipole field         -0.0010 Ry au, 
 
        Potential amp.        0.1084 Ry
        Total length         55.1515 bohr
 

     total cpu time spent up to now is      105.4 secs

     total energy              =   -7722.96344443 Ry
     estimated scf accuracy    <      65.37016144 Ry

     total magnetization       =    97.19 Bohr mag/cell
     absolute magnetization    =   153.12 Bohr mag/cell

     iteration #  6     ecut=    50.00 Ry     beta= 0.10
     Davidson diagonalization with overlap
     ethr =  5.98E-03,  avg # of iterations =  1.0

     negative rho (up, down):  7.352E-04 1.346E-03
 
     Adding external electric field

     Computed dipole along edir(3) : 
        Dipole               -1.3038 Ry au,         -3.3140 Debye
        Dipole field         -0.0008 Ry au, 
 
        Potential amp.        0.0880 Ry
        Total length         55.1515 bohr
 
 
     Adding external electric field

     Computed dipole along edir(3) : 
        Dipole               -1.3038 Ry au,         -3.3140 Debye
        Dipole field         -0.0008 Ry au, 
 
        Potential amp.        0.0880 Ry
        Total length         55.1515 bohr
 

     total cpu time spent up to now is      119.0 secs

     total energy              =   -7735.57730316 Ry
     estimated scf accuracy    <      14.19252604 Ry

     total magnetization       =    91.00 Bohr mag/cell
     absolute magnetization    =   125.40 Bohr mag/cell

     iteration #  7     ecut=    50.00 Ry     beta= 0.10
     Davidson diagonalization with overlap
     ethr =  1.30E-03,  avg # of iterations =  8.0

     negative rho (up, down):  7.010E-04 1.255E-03
 
     Adding external electric field

     Computed dipole along edir(3) : 
        Dipole               -1.2818 Ry au,         -3.2579 Debye
        Dipole field         -0.0008 Ry au, 
 
        Potential amp.        0.0865 Ry
        Total length         55.1515 bohr
 
 
     Adding external electric field

     Computed dipole along edir(3) : 
        Dipole               -1.2818 Ry au,         -3.2579 Debye
        Dipole field         -0.0008 Ry au, 
 
        Potential amp.        0.0865 Ry
        Total length         55.1515 bohr
 

     total cpu time spent up to now is      145.9 secs

     total energy              =   -7738.52313573 Ry
     estimated scf accuracy    <      39.34258604 Ry

     total magnetization       =    64.36 Bohr mag/cell
     absolute magnetization    =    82.12 Bohr mag/cell

     iteration #  8     ecut=    50.00 Ry     beta= 0.10
     Davidson diagonalization with overlap
     ethr =  1.30E-03,  avg # of iterations =  1.0

     negative rho (up, down):  5.829E-04 9.442E-04
 
     Adding external electric field

     Computed dipole along edir(3) : 
        Dipole               -1.1912 Ry au,         -3.0278 Debye
        Dipole field         -0.0007 Ry au, 
 
        Potential amp.        0.0804 Ry
        Total length         55.1515 bohr
 
 
     Adding external electric field

     Computed dipole along edir(3) : 
        Dipole               -1.1912 Ry au,         -3.0278 Debye
        Dipole field         -0.0007 Ry au, 
 
        Potential amp.        0.0804 Ry
        Total length         55.1515 bohr
 

     total cpu time spent up to now is      159.2 secs

     total energy              =   -7738.40542436 Ry
     estimated scf accuracy    <      35.86416321 Ry

     total magnetization       =    65.54 Bohr mag/cell
     absolute magnetization    =    82.85 Bohr mag/cell

     iteration #  9     ecut=    50.00 Ry     beta= 0.10
     Davidson diagonalization with overlap
     ethr =  1.30E-03,  avg # of iterations =  1.0

     negative rho (up, down):  4.592E-04 7.577E-04
 
     Adding external electric field

     Computed dipole along edir(3) : 
        Dipole               -1.1219 Ry au,         -2.8517 Debye
        Dipole field         -0.0007 Ry au, 
 
        Potential amp.        0.0757 Ry
        Total length         55.1515 bohr
 
 
     Adding external electric field

     Computed dipole along edir(3) : 
        Dipole               -1.1219 Ry au,         -2.8517 Debye
        Dipole field         -0.0007 Ry au, 
 
        Potential amp.        0.0757 Ry
        Total length         55.1515 bohr
 

     total cpu time spent up to now is      172.6 secs

     total energy              =   -7738.30855435 Ry
     estimated scf accuracy    <      27.34637362 Ry

     total magnetization       =    67.79 Bohr mag/cell
     absolute magnetization    =    84.26 Bohr mag/cell

     iteration # 10     ecut=    50.00 Ry     beta= 0.10
     Davidson diagonalization with overlap
     ethr =  1.30E-03,  avg # of iterations =  1.0

     negative rho (up, down):  4.146E-04 7.210E-04
 
     Adding external electric field

     Computed dipole along edir(3) : 
        Dipole               -1.1161 Ry au,         -2.8369 Debye
        Dipole field         -0.0007 Ry au, 
 
        Potential amp.        0.0754 Ry
        Total length         55.1515 bohr
 
 
     Adding external electric field

     Computed dipole along edir(3) : 
        Dipole               -1.1161 Ry au,         -2.8369 Debye
        Dipole field         -0.0007 Ry au, 
 
        Potential amp.        0.0754 Ry
        Total length         55.1515 bohr
 

     total cpu time spent up to now is      186.0 secs

     total energy              =   -7738.26519179 Ry
     estimated scf accuracy    <      22.05568173 Ry

     total magnetization       =    68.94 Bohr mag/cell
     absolute magnetization    =    84.43 Bohr mag/cell

     iteration # 11     ecut=    50.00 Ry     beta= 0.10
     Davidson diagonalization with overlap
     ethr =  1.30E-03,  avg # of iterations =  1.0

     negative rho (up, down):  2.515E-04 5.295E-04
 
     Adding external electric field

     Computed dipole along edir(3) : 
        Dipole               -1.0940 Ry au,         -2.7806 Debye
        Dipole field         -0.0007 Ry au, 
 
        Potential amp.        0.0739 Ry
        Total length         55.1515 bohr
 
 
     Adding external electric field

     Computed dipole along edir(3) : 
        Dipole               -1.0940 Ry au,         -2.7806 Debye
        Dipole field         -0.0007 Ry au, 
 
        Potential amp.        0.0739 Ry
        Total length         55.1515 bohr
 

     total cpu time spent up to now is      198.9 secs

     total energy              =   -7737.67460774 Ry
     estimated scf accuracy    <      20.62069826 Ry

     total magnetization       =    69.05 Bohr mag/cell
     absolute magnetization    =    84.00 Bohr mag/cell

     iteration # 12     ecut=    50.00 Ry     beta= 0.10
     Davidson diagonalization with overlap
     ethr =  1.30E-03,  avg # of iterations =  1.0

     negative rho (up, down):  9.779E-05 3.460E-04
 
     Adding external electric field

     Computed dipole along edir(3) : 
        Dipole               -0.8379 Ry au,         -2.1297 Debye
        Dipole field         -0.0005 Ry au, 
 
        Potential amp.        0.0566 Ry
        Total length         55.1515 bohr
 
 
     Adding external electric field

     Computed dipole along edir(3) : 
        Dipole               -0.8379 Ry au,         -2.1297 Debye
        Dipole field         -0.0005 Ry au, 
 
        Potential amp.        0.0566 Ry
        Total length         55.1515 bohr
 

     total cpu time spent up to now is      212.1 secs

     total energy              =   -7737.99221698 Ry
     estimated scf accuracy    <       3.40133030 Ry

     total magnetization       =    84.35 Bohr mag/cell
     absolute magnetization    =    94.57 Bohr mag/cell

     iteration # 13     ecut=    50.00 Ry     beta= 0.10
     Davidson diagonalization with overlap
     ethr =  3.11E-04,  avg # of iterations =  2.0

     negative rho (up, down):  5.461E-05 2.157E-04
 
     Adding external electric field

     Computed dipole along edir(3) : 
        Dipole               -0.7153 Ry au,         -1.8181 Debye
        Dipole field         -0.0004 Ry au, 
 
        Potential amp.        0.0483 Ry
        Total length         55.1515 bohr
 
 
     Adding external electric field

     Computed dipole along edir(3) : 
        Dipole               -0.7153 Ry au,         -1.8181 Debye
        Dipole field         -0.0004 Ry au, 
 
        Potential amp.        0.0483 Ry
        Total length         55.1515 bohr
 

     total cpu time spent up to now is      226.8 secs

     total energy              =   -7738.08771744 Ry
     estimated scf accuracy    <       0.76611440 Ry

     total magnetization       =    88.25 Bohr mag/cell
     absolute magnetization    =    96.30 Bohr mag/cell

     iteration # 14     ecut=    50.00 Ry     beta= 0.10
     Davidson diagonalization with overlap
     c_bands:  4 eigenvalues not converged
     ethr =  7.01E-05,  avg # of iterations = 11.0

     negative rho (up, down):  1.028E-05 5.505E-05
 
     Adding external electric field

     Computed dipole along edir(3) : 
        Dipole               -0.1850 Ry au,         -0.4702 Debye
        Dipole field         -0.0001 Ry au, 
 
        Potential amp.        0.0125 Ry
        Total length         55.1515 bohr
 
 
     Adding external electric field

     Computed dipole along edir(3) : 
        Dipole               -0.1850 Ry au,         -0.4702 Debye
        Dipole field         -0.0001 Ry au, 
 
        Potential amp.        0.0125 Ry
        Total length         55.1515 bohr
 

     total cpu time spent up to now is      249.8 secs

     total energy              =   -7738.16087707 Ry
     estimated scf accuracy    <       0.70139105 Ry

     total magnetization       =    88.10 Bohr mag/cell
     absolute magnetization    =    95.53 Bohr mag/cell

     iteration # 15     ecut=    50.00 Ry     beta= 0.10
     Davidson diagonalization with overlap
     ethr =  6.42E-05,  avg # of iterations =  3.0

     negative rho (up, down):  9.733E-06 2.552E-05
 
     Adding external electric field

     Computed dipole along edir(3) : 
        Dipole               -0.1660 Ry au,         -0.4219 Debye
        Dipole field         -0.0001 Ry au, 
 
        Potential amp.        0.0112 Ry
        Total length         55.1515 bohr
 
 
     Adding external electric field

     Computed dipole along edir(3) : 
        Dipole               -0.1660 Ry au,         -0.4219 Debye
        Dipole field         -0.0001 Ry au, 
 
        Potential amp.        0.0112 Ry
        Total length         55.1515 bohr
 

     total cpu time spent up to now is      264.8 secs

     total energy              =   -7738.27046787 Ry
     estimated scf accuracy    <       9.34958147 Ry

     total magnetization       =    80.64 Bohr mag/cell
     absolute magnetization    =    86.94 Bohr mag/cell

     iteration # 16     ecut=    50.00 Ry     beta= 0.10
     Davidson diagonalization with overlap
     ethr =  6.42E-05,  avg # of iterations =  2.5

     negative rho (up, down):  9.742E-06 2.629E-05
 
     Adding external electric field

     Computed dipole along edir(3) : 
        Dipole               -0.1653 Ry au,         -0.4202 Debye
        Dipole field         -0.0001 Ry au, 
 
        Potential amp.        0.0112 Ry
        Total length         55.1515 bohr
 
 
     Adding external electric field

     Computed dipole along edir(3) : 
        Dipole               -0.1653 Ry au,         -0.4202 Debye
        Dipole field         -0.0001 Ry au, 
 
        Potential amp.        0.0112 Ry
        Total length         55.1515 bohr
 

     total cpu time spent up to now is      279.3 secs

     total energy              =   -7738.29564243 Ry
     estimated scf accuracy    <       5.71512348 Ry

     total magnetization       =    84.97 Bohr mag/cell
     absolute magnetization    =    90.44 Bohr mag/cell

     iteration # 17     ecut=    50.00 Ry     beta= 0.10
     Davidson diagonalization with overlap
     ethr =  6.42E-05,  avg # of iterations =  1.5

     negative rho (up, down):  6.927E-06 1.431E-05
 
     Adding external electric field

     Computed dipole along edir(3) : 
        Dipole               -0.0388 Ry au,         -0.0985 Debye
        Dipole field         -0.0000 Ry au, 
 
        Potential amp.        0.0026 Ry
        Total length         55.1515 bohr
 
 
     Adding external electric field

     Computed dipole along edir(3) : 
        Dipole               -0.0388 Ry au,         -0.0985 Debye
        Dipole field         -0.0000 Ry au, 
 
        Potential amp.        0.0026 Ry
        Total length         55.1515 bohr
 

     total cpu time spent up to now is      293.0 secs

     total energy              =   -7738.35536525 Ry
     estimated scf accuracy    <       5.94198105 Ry

     total magnetization       =    84.81 Bohr mag/cell
     absolute magnetization    =    90.26 Bohr mag/cell

     iteration # 18     ecut=    50.00 Ry     beta= 0.10
     Davidson diagonalization with overlap
     ethr =  6.42E-05,  avg # of iterations = 10.0

     negative rho (up, down):  3.941E-06 8.186E-06
 
     Adding external electric field

     Computed dipole along edir(3) : 
        Dipole               -0.1065 Ry au,         -0.2707 Debye
        Dipole field         -0.0001 Ry au, 
 
        Potential amp.        0.0072 Ry
        Total length         55.1515 bohr
 
 
     Adding external electric field

     Computed dipole along edir(3) : 
        Dipole               -0.1065 Ry au,         -0.2707 Debye
        Dipole field         -0.0001 Ry au, 
 
        Potential amp.        0.0072 Ry
        Total length         55.1515 bohr
 

     total cpu time spent up to now is      312.1 secs

     total energy              =   -7738.32197506 Ry
     estimated scf accuracy    <       6.71437710 Ry

     total magnetization       =    84.63 Bohr mag/cell
     absolute magnetization    =    89.31 Bohr mag/cell

     iteration # 19     ecut=    50.00 Ry     beta= 0.10
     Davidson diagonalization with overlap
     ethr =  6.42E-05,  avg # of iterations =  1.5

     negative rho (up, down):  1.514E-05 2.997E-05
 
     Adding external electric field

     Computed dipole along edir(3) : 
        Dipole               -0.1413 Ry au,         -0.3592 Debye
        Dipole field         -0.0001 Ry au, 
 
        Potential amp.        0.0095 Ry
        Total length         55.1515 bohr
 
 
     Adding external electric field

     Computed dipole along edir(3) : 
        Dipole               -0.1413 Ry au,         -0.3592 Debye
        Dipole field         -0.0001 Ry au, 
 
        Potential amp.        0.0095 Ry
        Total length         55.1515 bohr
 

     total cpu time spent up to now is      326.0 secs

     total energy              =   -7738.33126371 Ry
     estimated scf accuracy    <       2.88137569 Ry

     total magnetization       =    86.53 Bohr mag/cell
     absolute magnetization    =    90.52 Bohr mag/cell

     iteration # 20     ecut=    50.00 Ry     beta= 0.10
     Davidson diagonalization with overlap
     ethr =  6.42E-05,  avg # of iterations =  2.0

     negative rho (up, down):  2.395E-06 4.726E-06
 
     Adding external electric field

     Computed dipole along edir(3) : 
        Dipole               -0.1745 Ry au,         -0.4435 Debye
        Dipole field         -0.0001 Ry au, 
 
        Potential amp.        0.0118 Ry
        Total length         55.1515 bohr
 
 
     Adding external electric field

     Computed dipole along edir(3) : 
        Dipole               -0.1745 Ry au,         -0.4435 Debye
        Dipole field         -0.0001 Ry au, 
 
        Potential amp.        0.0118 Ry
        Total length         55.1515 bohr
 

     total cpu time spent up to now is      340.7 secs

     total energy              =   -7738.33208241 Ry
     estimated scf accuracy    <       1.54323023 Ry

     total magnetization       =    86.20 Bohr mag/cell
     absolute magnetization    =    89.51 Bohr mag/cell

     iteration # 21     ecut=    50.00 Ry     beta= 0.10
     Davidson diagonalization with overlap
     ethr =  6.42E-05,  avg # of iterations =  1.5

     negative rho (up, down):  3.051E-06 3.977E-05
 
     Adding external electric field

     Computed dipole along edir(3) : 
        Dipole               -0.2486 Ry au,         -0.6319 Debye
        Dipole field         -0.0002 Ry au, 
 
        Potential amp.        0.0168 Ry
        Total length         55.1515 bohr
 
 
     Adding external electric field

     Computed dipole along edir(3) : 
        Dipole               -0.2486 Ry au,         -0.6319 Debye
        Dipole field         -0.0002 Ry au, 
 
        Potential amp.        0.0168 Ry
        Total length         55.1515 bohr
 

     total cpu time spent up to now is      354.8 secs

     total energy              =   -7738.32770439 Ry
     estimated scf accuracy    <       1.26727220 Ry

     total magnetization       =    86.42 Bohr mag/cell
     absolute magnetization    =    89.93 Bohr mag/cell

     iteration # 22     ecut=    50.00 Ry     beta= 0.10
     Davidson diagonalization with overlap
     ethr =  6.42E-05,  avg # of iterations =  1.5

     negative rho (up, down):  2.382E-06 1.075E-05
 
     Adding external electric field

     Computed dipole along edir(3) : 
        Dipole               -0.2597 Ry au,         -0.6601 Debye
        Dipole field         -0.0002 Ry au, 
 
        Potential amp.        0.0175 Ry
        Total length         55.1515 bohr
 
 
     Adding external electric field

     Computed dipole along edir(3) : 
        Dipole               -0.2597 Ry au,         -0.6601 Debye
        Dipole field         -0.0002 Ry au, 
 
        Potential amp.        0.0175 Ry
        Total length         55.1515 bohr
 

     total cpu time spent up to now is      368.6 secs

     total energy              =   -7738.36027387 Ry
     estimated scf accuracy    <       0.88815128 Ry

     total magnetization       =    88.34 Bohr mag/cell
     absolute magnetization    =    90.98 Bohr mag/cell

     iteration # 23     ecut=    50.00 Ry     beta= 0.10
     Davidson diagonalization with overlap
     ethr =  6.42E-05,  avg # of iterations =  2.0

     negative rho (up, down):  3.392E-07 4.706E-07
 
     Adding external electric field

     Computed dipole along edir(3) : 
        Dipole               -0.3011 Ry au,         -0.7653 Debye
        Dipole field         -0.0002 Ry au, 
 
        Potential amp.        0.0203 Ry
        Total length         55.1515 bohr
 
 
     Adding external electric field

     Computed dipole along edir(3) : 
        Dipole               -0.3011 Ry au,         -0.7653 Debye
        Dipole field         -0.0002 Ry au, 
 
        Potential amp.        0.0203 Ry
        Total length         55.1515 bohr
 

     total cpu time spent up to now is      383.6 secs

     total energy              =   -7738.29730388 Ry
     estimated scf accuracy    <       0.91851356 Ry

     total magnetization       =    86.70 Bohr mag/cell
     absolute magnetization    =    88.95 Bohr mag/cell

     iteration # 24     ecut=    50.00 Ry     beta= 0.10
     Davidson diagonalization with overlap
     ethr =  6.42E-05,  avg # of iterations =  1.5

     negative rho (up, down):  3.751E-08 4.301E-08
 
     Adding external electric field

     Computed dipole along edir(3) : 
        Dipole               -0.2110 Ry au,         -0.5364 Debye
        Dipole field         -0.0001 Ry au, 
 
        Potential amp.        0.0142 Ry
        Total length         55.1515 bohr
 
 
     Adding external electric field

     Computed dipole along edir(3) : 
        Dipole               -0.2110 Ry au,         -0.5364 Debye
        Dipole field         -0.0001 Ry au, 
 
        Potential amp.        0.0142 Ry
        Total length         55.1515 bohr
 

     total cpu time spent up to now is      397.7 secs

     total energy              =   -7738.35323902 Ry
     estimated scf accuracy    <       0.24182098 Ry

     total magnetization       =    87.28 Bohr mag/cell
     absolute magnetization    =    89.86 Bohr mag/cell

     iteration # 25     ecut=    50.00 Ry     beta= 0.10
     Davidson diagonalization with overlap
     ethr =  2.21E-05,  avg # of iterations =  2.0

     negative rho (up, down):  1.193E-08 1.498E-08
 
     Adding external electric field

     Computed dipole along edir(3) : 
        Dipole               -0.1739 Ry au,         -0.4421 Debye
        Dipole field         -0.0001 Ry au, 
 
        Potential amp.        0.0117 Ry
        Total length         55.1515 bohr
 
 
     Adding external electric field

     Computed dipole along edir(3) : 
        Dipole               -0.1739 Ry au,         -0.4421 Debye
        Dipole field         -0.0001 Ry au, 
 
        Potential amp.        0.0117 Ry
        Total length         55.1515 bohr
 

     total cpu time spent up to now is      412.4 secs

     total energy              =   -7738.35833635 Ry
     estimated scf accuracy    <       0.45864611 Ry

     total magnetization       =    86.47 Bohr mag/cell
     absolute magnetization    =    88.48 Bohr mag/cell

     iteration # 26     ecut=    50.00 Ry     beta= 0.10
     Davidson diagonalization with overlap
     ethr =  2.21E-05,  avg # of iterations =  1.5

     negative rho (up, down):  1.041E-08 1.194E-08
 
     Adding external electric field

     Computed dipole along edir(3) : 
        Dipole               -0.1554 Ry au,         -0.3950 Debye
        Dipole field         -0.0001 Ry au, 
 
        Potential amp.        0.0105 Ry
        Total length         55.1515 bohr
 
 
     Adding external electric field

     Computed dipole along edir(3) : 
        Dipole               -0.1554 Ry au,         -0.3950 Debye
        Dipole field         -0.0001 Ry au, 
 
        Potential amp.        0.0105 Ry
        Total length         55.1515 bohr
 

     total cpu time spent up to now is      425.9 secs

     total energy              =   -7738.35869767 Ry
     estimated scf accuracy    <       0.40488231 Ry

     total magnetization       =    86.41 Bohr mag/cell
     absolute magnetization    =    88.05 Bohr mag/cell

     iteration # 27     ecut=    50.00 Ry     beta= 0.10
     Davidson diagonalization with overlap
     ethr =  2.21E-05,  avg # of iterations =  1.5
 
     Adding external electric field

     Computed dipole along edir(3) : 
        Dipole               -0.1479 Ry au,         -0.3759 Debye
        Dipole field         -0.0001 Ry au, 
 
        Potential amp.        0.0100 Ry
        Total length         55.1515 bohr
 
 
     Adding external electric field

     Computed dipole along edir(3) : 
        Dipole               -0.1479 Ry au,         -0.3759 Debye
        Dipole field         -0.0001 Ry au, 
 
        Potential amp.        0.0100 Ry
        Total length         55.1515 bohr
 

     total cpu time spent up to now is      440.2 secs

     total energy              =   -7738.35917701 Ry
     estimated scf accuracy    <       0.35221030 Ry

     total magnetization       =    87.08 Bohr mag/cell
     absolute magnetization    =    88.61 Bohr mag/cell

     iteration # 28     ecut=    50.00 Ry     beta= 0.10
     Davidson diagonalization with overlap
     ethr =  2.21E-05,  avg # of iterations =  1.5
 
     Adding external electric field

     Computed dipole along edir(3) : 
        Dipole               -0.1066 Ry au,         -0.2709 Debye
        Dipole field         -0.0001 Ry au, 
 
        Potential amp.        0.0072 Ry
        Total length         55.1515 bohr
 
 
     Adding external electric field

     Computed dipole along edir(3) : 
        Dipole               -0.1066 Ry au,         -0.2709 Debye
        Dipole field         -0.0001 Ry au, 
 
        Potential amp.        0.0072 Ry
        Total length         55.1515 bohr
 

     total cpu time spent up to now is      453.9 secs

     total energy              =   -7738.35855949 Ry
     estimated scf accuracy    <       0.29072732 Ry

     total magnetization       =    87.11 Bohr mag/cell
     absolute magnetization    =    88.57 Bohr mag/cell

     iteration # 29     ecut=    50.00 Ry     beta= 0.10
     Davidson diagonalization with overlap
     ethr =  2.21E-05,  avg # of iterations =  2.0

     negative rho (up, down):  3.090E-09 1.030E-08
 
     Adding external electric field

     Computed dipole along edir(3) : 
        Dipole               -0.1261 Ry au,         -0.3205 Debye
        Dipole field         -0.0001 Ry au, 
 
        Potential amp.        0.0085 Ry
        Total length         55.1515 bohr
 
 
     Adding external electric field

     Computed dipole along edir(3) : 
        Dipole               -0.1261 Ry au,         -0.3205 Debye
        Dipole field         -0.0001 Ry au, 
 
        Potential amp.        0.0085 Ry
        Total length         55.1515 bohr
 

     total cpu time spent up to now is      468.7 secs

     total energy              =   -7738.35618377 Ry
     estimated scf accuracy    <       0.29138450 Ry

     total magnetization       =    87.26 Bohr mag/cell
     absolute magnetization    =    88.74 Bohr mag/cell

     iteration # 30     ecut=    50.00 Ry     beta= 0.10
     Davidson diagonalization with overlap
     ethr =  2.21E-05,  avg # of iterations =  1.5

     negative rho (up, down):  2.584E-08 1.296E-07
 
     Adding external electric field

     Computed dipole along edir(3) : 
        Dipole               -0.1069 Ry au,         -0.2717 Debye
        Dipole field         -0.0001 Ry au, 
 
        Potential amp.        0.0072 Ry
        Total length         55.1515 bohr
 
 
     Adding external electric field

     Computed dipole along edir(3) : 
        Dipole               -0.1069 Ry au,         -0.2717 Debye
        Dipole field         -0.0001 Ry au, 
 
        Potential amp.        0.0072 Ry
        Total length         55.1515 bohr
 

     total cpu time spent up to now is      482.7 secs

     total energy              =   -7738.35589931 Ry
     estimated scf accuracy    <       0.15481186 Ry

     total magnetization       =    86.82 Bohr mag/cell
     absolute magnetization    =    88.38 Bohr mag/cell

     iteration # 31     ecut=    50.00 Ry     beta= 0.10
     Davidson diagonalization with overlap
     ethr =  1.42E-05,  avg # of iterations =  2.0

     negative rho (up, down):  7.295E-05 2.659E-04
 
     Adding external electric field

     Computed dipole along edir(3) : 
        Dipole               -0.1162 Ry au,         -0.2954 Debye
        Dipole field         -0.0001 Ry au, 
 
        Potential amp.        0.0078 Ry
        Total length         55.1515 bohr
 
 
     Adding external electric field

     Computed dipole along edir(3) : 
        Dipole               -0.1162 Ry au,         -0.2954 Debye
        Dipole field         -0.0001 Ry au, 
 
        Potential amp.        0.0078 Ry
        Total length         55.1515 bohr
 

     total cpu time spent up to now is      497.6 secs

     total energy              =   -7738.34940046 Ry
     estimated scf accuracy    <       0.14710859 Ry

     total magnetization       =    86.81 Bohr mag/cell
     absolute magnetization    =    88.40 Bohr mag/cell

     iteration # 32     ecut=    50.00 Ry     beta= 0.10
     Davidson diagonalization with overlap
     ethr =  1.35E-05,  avg # of iterations = 27.5

     negative rho (up, down):  3.857E-07 1.879E-06
 
     Adding external electric field

     Computed dipole along edir(3) : 
        Dipole               -0.1357 Ry au,         -0.3450 Debye
        Dipole field         -0.0001 Ry au, 
 
        Potential amp.        0.0092 Ry
        Total length         55.1515 bohr
 
 
     Adding external electric field

     Computed dipole along edir(3) : 
        Dipole               -0.1357 Ry au,         -0.3450 Debye
        Dipole field         -0.0001 Ry au, 
 
        Potential amp.        0.0092 Ry
        Total length         55.1515 bohr
 

     total cpu time spent up to now is      539.3 secs

     total energy              =   -7738.35219047 Ry
     estimated scf accuracy    <       0.05434332 Ry

     total magnetization       =    86.64 Bohr mag/cell
     absolute magnetization    =    88.38 Bohr mag/cell

     iteration # 33     ecut=    50.00 Ry     beta= 0.10
     Davidson diagonalization with overlap
     c_bands:  1 eigenvalues not converged
     ethr =  4.97E-06,  avg # of iterations = 11.0

     negative rho (up, down):  7.166E-07 3.407E-06
 
     Adding external electric field

     Computed dipole along edir(3) : 
        Dipole               -0.1496 Ry au,         -0.3802 Debye
        Dipole field         -0.0001 Ry au, 
 
        Potential amp.        0.0101 Ry
        Total length         55.1515 bohr
 
 
     Adding external electric field

     Computed dipole along edir(3) : 
        Dipole               -0.1496 Ry au,         -0.3802 Debye
        Dipole field         -0.0001 Ry au, 
 
        Potential amp.        0.0101 Ry
        Total length         55.1515 bohr
 

     total cpu time spent up to now is      559.2 secs

     total energy              =   -7738.35275998 Ry
     estimated scf accuracy    <       0.08955135 Ry

     total magnetization       =    87.03 Bohr mag/cell
     absolute magnetization    =    88.67 Bohr mag/cell

     iteration # 34     ecut=    50.00 Ry     beta= 0.10
     Davidson diagonalization with overlap
     c_bands:  2 eigenvalues not converged
     ethr =  4.97E-06,  avg # of iterations = 11.0

     negative rho (up, down):  1.488E-06 6.893E-06
 
     Adding external electric field

     Computed dipole along edir(3) : 
        Dipole               -0.1590 Ry au,         -0.4041 Debye
        Dipole field         -0.0001 Ry au, 
 
        Potential amp.        0.0107 Ry
        Total length         55.1515 bohr
 
 
     Adding external electric field

     Computed dipole along edir(3) : 
        Dipole               -0.1590 Ry au,         -0.4041 Debye
        Dipole field         -0.0001 Ry au, 
 
        Potential amp.        0.0107 Ry
        Total length         55.1515 bohr
 

     total cpu time spent up to now is      579.2 secs

     total energy              =   -7738.35257762 Ry
     estimated scf accuracy    <       0.06685388 Ry

     total magnetization       =    87.06 Bohr mag/cell
     absolute magnetization    =    88.68 Bohr mag/cell

     iteration # 35     ecut=    50.00 Ry     beta= 0.10
     Davidson diagonalization with overlap
     ethr =  4.97E-06,  avg # of iterations = 18.5

     negative rho (up, down):  3.352E-05 8.855E-05
 
     Adding external electric field

     Computed dipole along edir(3) : 
        Dipole               -0.0881 Ry au,         -0.2240 Debye
        Dipole field         -0.0001 Ry au, 
 
        Potential amp.        0.0059 Ry
        Total length         55.1515 bohr
 
 
     Adding external electric field

     Computed dipole along edir(3) : 
        Dipole               -0.0881 Ry au,         -0.2240 Debye
        Dipole field         -0.0001 Ry au, 
 
        Potential amp.        0.0059 Ry
        Total length         55.1515 bohr
 

     total cpu time spent up to now is      609.4 secs

     total energy              =   -7738.35141480 Ry
     estimated scf accuracy    <       0.03817116 Ry

     total magnetization       =    86.91 Bohr mag/cell
     absolute magnetization    =    88.52 Bohr mag/cell

     iteration # 36     ecut=    50.00 Ry     beta= 0.10
     Davidson diagonalization with overlap
     ethr =  3.49E-06,  avg # of iterations =  3.0

     negative rho (up, down):  6.102E-06 1.345E-05
 
     Adding external electric field

     Computed dipole along edir(3) : 
        Dipole               -0.0953 Ry au,         -0.2422 Debye
        Dipole field         -0.0001 Ry au, 
 
        Potential amp.        0.0064 Ry
        Total length         55.1515 bohr
 
 
     Adding external electric field

     Computed dipole along edir(3) : 
        Dipole               -0.0953 Ry au,         -0.2422 Debye
        Dipole field         -0.0001 Ry au, 
 
        Potential amp.        0.0064 Ry
        Total length         55.1515 bohr
 

     total cpu time spent up to now is      624.8 secs

     total energy              =   -7738.35302197 Ry
     estimated scf accuracy    <       0.06688336 Ry

     total magnetization       =    87.03 Bohr mag/cell
     absolute magnetization    =    88.45 Bohr mag/cell

     iteration # 37     ecut=    50.00 Ry     beta= 0.10
     Davidson diagonalization with overlap
     ethr =  3.49E-06,  avg # of iterations =  1.5

     negative rho (up, down):  7.096E-06 1.422E-05
 
     Adding external electric field

     Computed dipole along edir(3) : 
        Dipole               -0.1124 Ry au,         -0.2858 Debye
        Dipole field         -0.0001 Ry au, 
 
        Potential amp.        0.0076 Ry
        Total length         55.1515 bohr
 
 
     Adding external electric field

     Computed dipole along edir(3) : 
        Dipole               -0.1124 Ry au,         -0.2858 Debye
        Dipole field         -0.0001 Ry au, 
 
        Potential amp.        0.0076 Ry
        Total length         55.1515 bohr
 

     total cpu time spent up to now is      638.7 secs

     total energy              =   -7738.35244978 Ry
     estimated scf accuracy    <       0.08598506 Ry

     total magnetization       =    87.08 Bohr mag/cell
     absolute magnetization    =    88.56 Bohr mag/cell

     iteration # 38     ecut=    50.00 Ry     beta= 0.10
     Davidson diagonalization with overlap
     ethr =  3.49E-06,  avg # of iterations =  2.0

     negative rho (up, down):  1.297E-05 2.903E-05
 
     Adding external electric field

     Computed dipole along edir(3) : 
        Dipole               -0.0867 Ry au,         -0.2204 Debye
        Dipole field         -0.0001 Ry au, 
 
        Potential amp.        0.0059 Ry
        Total length         55.1515 bohr
 
 
     Adding external electric field

     Computed dipole along edir(3) : 
        Dipole               -0.0867 Ry au,         -0.2204 Debye
        Dipole field         -0.0001 Ry au, 
 
        Potential amp.        0.0059 Ry
        Total length         55.1515 bohr
 

     total cpu time spent up to now is      653.3 secs

     total energy              =   -7738.35190388 Ry
     estimated scf accuracy    <       0.04452084 Ry

     total magnetization       =    86.95 Bohr mag/cell
     absolute magnetization    =    88.41 Bohr mag/cell

     iteration # 39     ecut=    50.00 Ry     beta= 0.10
     Davidson diagonalization with overlap
     ethr =  3.49E-06,  avg # of iterations =  3.0

     negative rho (up, down):  3.105E-04 3.992E-04
 
     Adding external electric field

     Computed dipole along edir(3) : 
        Dipole                0.0125 Ry au,          0.0317 Debye
        Dipole field          0.0000 Ry au, 
 
        Potential amp.       -0.0008 Ry
        Total length         55.1515 bohr
 
 
     Adding external electric field

     Computed dipole along edir(3) : 
        Dipole                0.0125 Ry au,          0.0317 Debye
        Dipole field          0.0000 Ry au, 
 
        Potential amp.       -0.0008 Ry
        Total length         55.1515 bohr
 

     total cpu time spent up to now is      668.8 secs

     total energy              =   -7738.35143148 Ry
     estimated scf accuracy    <       0.03125386 Ry

     total magnetization       =    86.93 Bohr mag/cell
     absolute magnetization    =    88.44 Bohr mag/cell

     iteration # 40     ecut=    50.00 Ry     beta= 0.10
     Davidson diagonalization with overlap
     ethr =  2.86E-06,  avg # of iterations =  3.0

     negative rho (up, down):  3.589E-04 4.248E-04
 
     Adding external electric field

     Computed dipole along edir(3) : 
        Dipole                0.0594 Ry au,          0.1510 Debye
        Dipole field          0.0000 Ry au, 
 
        Potential amp.       -0.0040 Ry
        Total length         55.1515 bohr
 
 
     Adding external electric field

     Computed dipole along edir(3) : 
        Dipole                0.0594 Ry au,          0.1510 Debye
        Dipole field          0.0000 Ry au, 
 
        Potential amp.       -0.0040 Ry
        Total length         55.1515 bohr
 

     total cpu time spent up to now is      684.0 secs

     total energy              =   -7738.35105703 Ry
     estimated scf accuracy    <       0.03059172 Ry

     total magnetization       =    86.98 Bohr mag/cell
     absolute magnetization    =    88.52 Bohr mag/cell

     iteration # 41     ecut=    50.00 Ry     beta= 0.10
     Davidson diagonalization with overlap
     ethr =  2.80E-06,  avg # of iterations =  2.0

     negative rho (up, down):  1.960E-04 2.253E-04
 
     Adding external electric field

     Computed dipole along edir(3) : 
        Dipole                0.0988 Ry au,          0.2511 Debye
        Dipole field          0.0001 Ry au, 
 
        Potential amp.       -0.0067 Ry
        Total length         55.1515 bohr
 
 
     Adding external electric field

     Computed dipole along edir(3) : 
        Dipole                0.0988 Ry au,          0.2511 Debye
        Dipole field          0.0001 Ry au, 
 
        Potential amp.       -0.0067 Ry
        Total length         55.1515 bohr
 

     total cpu time spent up to now is      698.6 secs

     total energy              =   -7738.35064475 Ry
     estimated scf accuracy    <       0.02080722 Ry

     total magnetization       =    86.94 Bohr mag/cell
     absolute magnetization    =    88.54 Bohr mag/cell

     iteration # 42     ecut=    50.00 Ry     beta= 0.10
     Davidson diagonalization with overlap
     c_bands:  3 eigenvalues not converged
     c_bands:  3 eigenvalues not converged
     ethr =  1.90E-06,  avg # of iterations = 20.0

     negative rho (up, down):  1.505E-05 2.156E-05
 
     Adding external electric field

     Computed dipole along edir(3) : 
        Dipole                0.1273 Ry au,          0.3236 Debye
        Dipole field          0.0001 Ry au, 
 
        Potential amp.       -0.0086 Ry
        Total length         55.1515 bohr
 
 
     Adding external electric field

     Computed dipole along edir(3) : 
        Dipole                0.1273 Ry au,          0.3236 Debye
        Dipole field          0.0001 Ry au, 
 
        Potential amp.       -0.0086 Ry
        Total length         55.1515 bohr
 

     total cpu time spent up to now is      726.9 secs

     total energy              =   -7738.35022274 Ry
     estimated scf accuracy    <       0.01668892 Ry

     total magnetization       =    86.96 Bohr mag/cell
     absolute magnetization    =    88.58 Bohr mag/cell

     iteration # 43     ecut=    50.00 Ry     beta= 0.10
     Davidson diagonalization with overlap
     c_bands:  4 eigenvalues not converged
     ethr =  1.53E-06,  avg # of iterations = 19.0

     negative rho (up, down):  1.277E-05 2.190E-05
 
     Adding external electric field

     Computed dipole along edir(3) : 
        Dipole                0.1828 Ry au,          0.4646 Debye
        Dipole field          0.0001 Ry au, 
 
        Potential amp.       -0.0123 Ry
        Total length         55.1515 bohr
 
 
     Adding external electric field

     Computed dipole along edir(3) : 
        Dipole                0.1828 Ry au,          0.4646 Debye
        Dipole field          0.0001 Ry au, 
 
        Potential amp.       -0.0123 Ry
        Total length         55.1515 bohr
 

     total cpu time spent up to now is      751.5 secs

     total energy              =   -7738.34957151 Ry
     estimated scf accuracy    <       0.01288842 Ry

     total magnetization       =    86.97 Bohr mag/cell
     absolute magnetization    =    88.58 Bohr mag/cell

     iteration # 44     ecut=    50.00 Ry     beta= 0.10
     Davidson diagonalization with overlap
     c_bands:  4 eigenvalues not converged
     ethr =  1.18E-06,  avg # of iterations = 11.0

     negative rho (up, down):  6.648E-06 1.243E-05
 
     Adding external electric field

     Computed dipole along edir(3) : 
        Dipole                0.2044 Ry au,          0.5196 Debye
        Dipole field          0.0001 Ry au, 
 
        Potential amp.       -0.0138 Ry
        Total length         55.1515 bohr
 
 
     Adding external electric field

     Computed dipole along edir(3) : 
        Dipole                0.2044 Ry au,          0.5196 Debye
        Dipole field          0.0001 Ry au, 
 
        Potential amp.       -0.0138 Ry
        Total length         55.1515 bohr
 

     total cpu time spent up to now is      771.8 secs

     total energy              =   -7738.34946950 Ry
     estimated scf accuracy    <       0.00954286 Ry

     total magnetization       =    86.92 Bohr mag/cell
     absolute magnetization    =    88.51 Bohr mag/cell

     iteration # 45     ecut=    50.00 Ry     beta= 0.10
     Davidson diagonalization with overlap
     ethr =  8.73E-07,  avg # of iterations =  9.0

     negative rho (up, down):  2.928E-05 5.117E-05
 
     Adding external electric field

     Computed dipole along edir(3) : 
        Dipole                0.2651 Ry au,          0.6738 Debye
        Dipole field          0.0002 Ry au, 
 
        Potential amp.       -0.0179 Ry
        Total length         55.1515 bohr
 
 
     Adding external electric field

     Computed dipole along edir(3) : 
        Dipole                0.2651 Ry au,          0.6738 Debye
        Dipole field          0.0002 Ry au, 
 
        Potential amp.       -0.0179 Ry
        Total length         55.1515 bohr
 

     total cpu time spent up to now is      790.2 secs

     total energy              =   -7738.34933532 Ry
     estimated scf accuracy    <       0.00910149 Ry

     total magnetization       =    86.92 Bohr mag/cell
     absolute magnetization    =    88.50 Bohr mag/cell

     iteration # 46     ecut=    50.00 Ry     beta= 0.10
     Davidson diagonalization with overlap
     ethr =  8.33E-07,  avg # of iterations =  2.0

     negative rho (up, down):  3.289E-06 5.464E-06
 
     Adding external electric field

     Computed dipole along edir(3) : 
        Dipole                0.2577 Ry au,          0.6550 Debye
        Dipole field          0.0002 Ry au, 
 
        Potential amp.       -0.0174 Ry
        Total length         55.1515 bohr
 
 
     Adding external electric field

     Computed dipole along edir(3) : 
        Dipole                0.2577 Ry au,          0.6550 Debye
        Dipole field          0.0002 Ry au, 
 
        Potential amp.       -0.0174 Ry
        Total length         55.1515 bohr
 

     total cpu time spent up to now is      805.2 secs

     total energy              =   -7738.34943886 Ry
     estimated scf accuracy    <       0.00676808 Ry

     total magnetization       =    86.84 Bohr mag/cell
     absolute magnetization    =    88.32 Bohr mag/cell

     iteration # 47     ecut=    50.00 Ry     beta= 0.10
     Davidson diagonalization with overlap
     ethr =  6.19E-07,  avg # of iterations =  1.0

     negative rho (up, down):  6.329E-07 1.264E-06
 
     Adding external electric field

     Computed dipole along edir(3) : 
        Dipole                0.2737 Ry au,          0.6957 Debye
        Dipole field          0.0002 Ry au, 
 
        Potential amp.       -0.0185 Ry
        Total length         55.1515 bohr
 
 
     Adding external electric field

     Computed dipole along edir(3) : 
        Dipole                0.2737 Ry au,          0.6957 Debye
        Dipole field          0.0002 Ry au, 
 
        Potential amp.       -0.0185 Ry
        Total length         55.1515 bohr
 

     total cpu time spent up to now is      819.0 secs

     total energy              =   -7738.34921114 Ry
     estimated scf accuracy    <       0.00650613 Ry

     total magnetization       =    86.91 Bohr mag/cell
     absolute magnetization    =    88.38 Bohr mag/cell

     iteration # 48     ecut=    50.00 Ry     beta= 0.10
     Davidson diagonalization with overlap
     ethr =  5.95E-07,  avg # of iterations =  2.0

     negative rho (up, down):  2.432E-07 4.536E-07
 
     Adding external electric field

     Computed dipole along edir(3) : 
        Dipole                0.2652 Ry au,          0.6740 Debye
        Dipole field          0.0002 Ry au, 
 
        Potential amp.       -0.0179 Ry
        Total length         55.1515 bohr
 
 
     Adding external electric field

     Computed dipole along edir(3) : 
        Dipole                0.2652 Ry au,          0.6740 Debye
        Dipole field          0.0002 Ry au, 
 
        Potential amp.       -0.0179 Ry
        Total length         55.1515 bohr
 

     total cpu time spent up to now is      834.2 secs

     total energy              =   -7738.34932223 Ry
     estimated scf accuracy    <       0.00475091 Ry

     total magnetization       =    86.93 Bohr mag/cell
     absolute magnetization    =    88.42 Bohr mag/cell

     iteration # 49     ecut=    50.00 Ry     beta= 0.10
     Davidson diagonalization with overlap
     ethr =  4.35E-07,  avg # of iterations =  1.5

     negative rho (up, down):  3.471E-07 3.616E-07
 
     Adding external electric field

     Computed dipole along edir(3) : 
        Dipole                0.2801 Ry au,          0.7118 Debye
        Dipole field          0.0002 Ry au, 
 
        Potential amp.       -0.0189 Ry
        Total length         55.1515 bohr
 
 
     Adding external electric field

     Computed dipole along edir(3) : 
        Dipole                0.2801 Ry au,          0.7118 Debye
        Dipole field          0.0002 Ry au, 
 
        Potential amp.       -0.0189 Ry
        Total length         55.1515 bohr
 

     total cpu time spent up to now is      847.6 secs

     total energy              =   -7738.34952529 Ry
     estimated scf accuracy    <       0.00423214 Ry

     total magnetization       =    86.97 Bohr mag/cell
     absolute magnetization    =    88.46 Bohr mag/cell

     iteration # 50     ecut=    50.00 Ry     beta= 0.10
     Davidson diagonalization with overlap
     ethr =  3.87E-07,  avg # of iterations =  2.0

     negative rho (up, down):  9.225E-06 7.569E-06
 
     Adding external electric field

     Computed dipole along edir(3) : 
        Dipole                0.2749 Ry au,          0.6987 Debye
        Dipole field          0.0002 Ry au, 
 
        Potential amp.       -0.0186 Ry
        Total length         55.1515 bohr
 
 
     Adding external electric field

     Computed dipole along edir(3) : 
        Dipole                0.2749 Ry au,          0.6987 Debye
        Dipole field          0.0002 Ry au, 
 
        Potential amp.       -0.0186 Ry
        Total length         55.1515 bohr
 

     total cpu time spent up to now is      862.4 secs

     total energy              =   -7738.34955245 Ry
     estimated scf accuracy    <       0.00262817 Ry

     total magnetization       =    86.95 Bohr mag/cell
     absolute magnetization    =    88.44 Bohr mag/cell

     iteration # 51     ecut=    50.00 Ry     beta= 0.10
     Davidson diagonalization with overlap
     ethr =  2.40E-07,  avg # of iterations =  4.5

     negative rho (up, down):  5.334E-06 2.713E-06
 
     Adding external electric field

     Computed dipole along edir(3) : 
        Dipole                0.2695 Ry au,          0.6851 Debye
        Dipole field          0.0002 Ry au, 
 
        Potential amp.       -0.0182 Ry
        Total length         55.1515 bohr
 
 
     Adding external electric field

     Computed dipole along edir(3) : 
        Dipole                0.2695 Ry au,          0.6851 Debye
        Dipole field          0.0002 Ry au, 
 
        Potential amp.       -0.0182 Ry
        Total length         55.1515 bohr
 

     total cpu time spent up to now is      878.5 secs

     total energy              =   -7738.34958691 Ry
     estimated scf accuracy    <       0.00162211 Ry

     total magnetization       =    86.99 Bohr mag/cell
     absolute magnetization    =    88.49 Bohr mag/cell

     iteration # 52     ecut=    50.00 Ry     beta= 0.10
     Davidson diagonalization with overlap
     ethr =  1.48E-07,  avg # of iterations =  2.0

     negative rho (up, down):  1.459E-06 2.308E-07
 
     Adding external electric field

     Computed dipole along edir(3) : 
        Dipole                0.2719 Ry au,          0.6911 Debye
        Dipole field          0.0002 Ry au, 
 
        Potential amp.       -0.0184 Ry
        Total length         55.1515 bohr
 
 
     Adding external electric field

     Computed dipole along edir(3) : 
        Dipole                0.2719 Ry au,          0.6911 Debye
        Dipole field          0.0002 Ry au, 
 
        Potential amp.       -0.0184 Ry
        Total length         55.1515 bohr
 

     total cpu time spent up to now is      893.9 secs

     total energy              =   -7738.34959108 Ry
     estimated scf accuracy    <       0.00104973 Ry

     total magnetization       =    86.98 Bohr mag/cell
     absolute magnetization    =    88.48 Bohr mag/cell

     iteration # 53     ecut=    50.00 Ry     beta= 0.10
     Davidson diagonalization with overlap
     ethr =  9.60E-08,  avg # of iterations =  2.0

     negative rho (up, down):  5.606E-05 2.263E-05
 
     Adding external electric field

     Computed dipole along edir(3) : 
        Dipole                0.2988 Ry au,          0.7596 Debye
        Dipole field          0.0002 Ry au, 
 
        Potential amp.       -0.0202 Ry
        Total length         55.1515 bohr
 
 
     Adding external electric field

     Computed dipole along edir(3) : 
        Dipole                0.2988 Ry au,          0.7596 Debye
        Dipole field          0.0002 Ry au, 
 
        Potential amp.       -0.0202 Ry
        Total length         55.1515 bohr
 

     total cpu time spent up to now is      908.2 secs

     total energy              =   -7738.34962672 Ry
     estimated scf accuracy    <       0.00079149 Ry

     total magnetization       =    86.99 Bohr mag/cell
     absolute magnetization    =    88.48 Bohr mag/cell

     iteration # 54     ecut=    50.00 Ry     beta= 0.10
     Davidson diagonalization with overlap
     ethr =  7.24E-08,  avg # of iterations =  2.0

     negative rho (up, down):  3.031E-04 1.925E-04
 
     Adding external electric field

     Computed dipole along edir(3) : 
        Dipole                0.3220 Ry au,          0.8184 Debye
        Dipole field          0.0002 Ry au, 
 
        Potential amp.       -0.0217 Ry
        Total length         55.1515 bohr
 
 
     Adding external electric field

     Computed dipole along edir(3) : 
        Dipole                0.3220 Ry au,          0.8184 Debye
        Dipole field          0.0002 Ry au, 
 
        Potential amp.       -0.0217 Ry
        Total length         55.1515 bohr
 

     total cpu time spent up to now is      923.0 secs

     total energy              =   -7738.34967606 Ry
     estimated scf accuracy    <       0.00054043 Ry

     total magnetization       =    86.99 Bohr mag/cell
     absolute magnetization    =    88.47 Bohr mag/cell

     iteration # 55     ecut=    50.00 Ry     beta= 0.10
     Davidson diagonalization with overlap
     ethr =  4.94E-08,  avg # of iterations =  2.0

     negative rho (up, down):  4.456E-04 2.908E-04
 
     Adding external electric field

     Computed dipole along edir(3) : 
        Dipole                0.3392 Ry au,          0.8623 Debye
        Dipole field          0.0002 Ry au, 
 
        Potential amp.       -0.0229 Ry
        Total length         55.1515 bohr
 
 
     Adding external electric field

     Computed dipole along edir(3) : 
        Dipole                0.3392 Ry au,          0.8623 Debye
        Dipole field          0.0002 Ry au, 
 
        Potential amp.       -0.0229 Ry
        Total length         55.1515 bohr
 

     total cpu time spent up to now is      937.7 secs

     total energy              =   -7738.34970924 Ry
     estimated scf accuracy    <       0.00040655 Ry

     total magnetization       =    86.97 Bohr mag/cell
     absolute magnetization    =    88.45 Bohr mag/cell

     iteration # 56     ecut=    50.00 Ry     beta= 0.10
     Davidson diagonalization with overlap
     ethr =  3.72E-08,  avg # of iterations =  2.0

     negative rho (up, down):  7.788E-04 5.000E-04
 
     Adding external electric field

     Computed dipole along edir(3) : 
        Dipole                0.3661 Ry au,          0.9305 Debye
        Dipole field          0.0002 Ry au, 
 
        Potential amp.       -0.0247 Ry
        Total length         55.1515 bohr
 
 
     Adding external electric field

     Computed dipole along edir(3) : 
        Dipole                0.3661 Ry au,          0.9305 Debye
        Dipole field          0.0002 Ry au, 
 
        Potential amp.       -0.0247 Ry
        Total length         55.1515 bohr
 

     total cpu time spent up to now is      952.2 secs

     total energy              =   -7738.34974235 Ry
     estimated scf accuracy    <       0.00027532 Ry

     total magnetization       =    86.97 Bohr mag/cell
     absolute magnetization    =    88.44 Bohr mag/cell

     iteration # 57     ecut=    50.00 Ry     beta= 0.10
     Davidson diagonalization with overlap
     ethr =  2.52E-08,  avg # of iterations =  2.0

     negative rho (up, down):  9.148E-04 5.559E-04
 
     Adding external electric field

     Computed dipole along edir(3) : 
        Dipole                0.3767 Ry au,          0.9575 Debye
        Dipole field          0.0002 Ry au, 
 
        Potential amp.       -0.0254 Ry
        Total length         55.1515 bohr
 
 
     Adding external electric field

     Computed dipole along edir(3) : 
        Dipole                0.3767 Ry au,          0.9575 Debye
        Dipole field          0.0002 Ry au, 
 
        Potential amp.       -0.0254 Ry
        Total length         55.1515 bohr
 

     total cpu time spent up to now is      966.6 secs

     total energy              =   -7738.34976453 Ry
     estimated scf accuracy    <       0.00015363 Ry

     total magnetization       =    86.96 Bohr mag/cell
     absolute magnetization    =    88.44 Bohr mag/cell

     iteration # 58     ecut=    50.00 Ry     beta= 0.10
     Davidson diagonalization with overlap
     ethr =  1.41E-08,  avg # of iterations =  2.0

     negative rho (up, down):  1.012E-03 6.375E-04
 
     Adding external electric field

     Computed dipole along edir(3) : 
[...]
    -5.9681  -5.9442  -5.9221  -5.9168  -5.9019  -5.8784  -5.8748  -5.8441
    -5.8154  -5.8131  -5.7952  -5.7703  -5.7459  -5.7386  -5.7009  -5.6955
    -5.6871  -5.6538  -5.6109  -5.5887  -5.5796  -5.5450  -5.5271  -5.5071
    -5.4978  -5.4904  -5.4709  -5.4604  -5.4233  -5.4140  -5.3925  -5.3686
    -5.3008  -5.2399  -5.2302  -5.2055  -5.1951  -5.1822  -5.1620  -5.1046
    -5.0402  -5.0303  -5.0084  -4.9653  -4.9610  -4.9395  -4.9202  -4.8667
    -4.8219  -4.7770  -4.7665  -4.7549  -4.7510  -4.7043  -4.6736  -4.6645
    -4.5773  -4.5421  -4.4988  -4.4885  -4.4328  -4.4240  -4.3978  -4.3764
    -4.3668  -4.3400  -4.2234  -4.2145  -4.1891  -4.1654  -4.1362  -4.1088
    -4.0971  -4.0898  -4.0700  -3.9975  -3.9722  -3.9504  -3.9303  -3.9151
    -3.8683  -3.8312  -3.8242  -3.8002  -3.7941  -3.7659  -3.7358  -3.6976
    -3.6755  -3.6433  -3.6212  -3.6134  -3.6103  -3.5886  -3.5882  -3.5696
    -3.5381  -3.5195  -3.5086  -3.4865  -3.4819  -3.4652  -3.4529  -3.4216
    -3.4034  -3.3947  -3.3798  -3.3638  -3.3391  -3.3040  -3.2874  -3.2633
    -3.2366  -3.2346  -3.2160  -3.2055  -3.1940  -3.1466  -3.1265  -3.1005
    -3.0520  -3.0478  -3.0401  -3.0312  -3.0298  -3.0229  -3.0148  -2.9737
    -2.9436  -2.9376  -2.9302  -2.8791  -2.8684  -2.8647  -2.8099  -2.7936
    -2.7695  -2.7677  -2.7573  -2.7549  -2.7334  -2.7298  -2.7091  -2.7029
    -2.6875  -2.6645  -2.6564  -2.6279  -2.6238  -2.6100  -2.6043  -2.5952
    -2.5924  -2.5743  -2.5574  -2.5387  -2.5245  -2.5192  -2.4785  -2.4714
    -2.4497  -2.4409  -2.4200  -2.3925  -2.3590  -2.3517  -2.3317  -2.2994
    -2.2780  -2.2682  -2.2489  -2.2202  -2.2024  -2.1793  -2.1627  -2.1339
    -2.1265  -2.1184  -2.1114  -2.1019  -2.0750  -2.0635  -2.0216  -1.9938
    -1.9753  -1.9618  -1.9490  -1.9301  -1.9150  -1.9083  -1.8914  -1.8624
    -1.8523  -1.8358  -1.8154  -1.8077  -1.8011  -1.7853  -1.7709  -1.7638
    -1.7461  -1.7179  -1.7005  -1.6408  -1.6379  -1.6289  -1.5786  -1.5664
    -1.5616  -1.5333  -1.5104  -1.5001  -1.4886  -1.4804  -1.4477  -1.4333
    -1.4193  -1.4076  -1.3978  -1.3791  -1.3533  -1.3343  -1.3244  -1.3149
    -1.2718  -1.2597  -1.2417  -1.2096  -1.1868  -1.1512  -1.1185  -1.0776
    -1.0097  -0.9050  -0.8880  -0.8704  -0.8476  -0.7244  -0.7140  -0.5559
    -0.4790  -0.3151  -0.2685  -0.1365   0.1828   0.2134   0.2305   0.2475
     0.2534   0.2690   0.2956   0.3082   0.3300   0.3326   0.3530   0.3641
     0.3702   0.3757   0.3926   0.4065   0.4155   0.4171   0.4192   0.4250
     0.4302   0.4332   0.4492   0.4563   0.4588   0.4649   0.4774   0.4925
     0.4950   0.5035   0.5077   0.5154   0.5241   0.5355   0.5356   0.5425
     0.5630   0.5691   0.5776   0.5783   0.5850   0.5978   0.6007   0.6150
     0.6240   0.6259   0.6427   0.6452   0.6493   0.6532   0.6762   0.6804
     0.6841   0.6923   0.6978   0.7071   0.7137   0.7341   0.7387   0.7510
     0.7587   0.7622   0.7638   0.7742   0.7951   0.7986   0.8067   0.8122
     0.8210   0.8224   0.8313   0.8418   0.8529   0.8607   0.8712   0.8713
     0.8807   0.8934   0.9285   0.9392   0.9541   0.9562   0.9600   0.9858
     0.9999   1.0152   1.0996   1.1018   1.2005   1.2226   1.7492   1.7540
     1.7611   1.7741   1.7807   1.7892   1.8072   1.8216   1.8272   1.9059
     1.9217   1.9377   1.9672   1.9845   2.0238   2.0321   2.0471   2.1030
     2.1229   2.1351   2.1473   2.1498   2.1899   2.1958   2.2211   2.2319
     2.2461   2.2585   2.2868   2.2943   2.3040   2.3428   2.3568   2.3624
     2.3759   2.3904   2.3987   2.4164   2.4335   2.4486   2.4579   2.4782
     2.4884   2.5079   2.5105   2.5290   2.5381   2.5579   2.5887   2.6132
     2.6231   2.6368   2.6404   2.6965   2.7777   2.7958   2.8428   2.8634
     2.8926   2.9107   3.3084   3.5073   3.6334   3.6960   3.7657   3.8608
     3.9033   3.9270   3.9320   3.9556   4.0008   4.0702   4.0783   4.0903
     4.1129   4.1433   4.1510   4.1691   4.1856   4.4107   4.4923   4.6400
     4.8336   4.8816   4.9140   4.9377   4.9698   5.0334   5.0499   5.1067
     5.1281   5.1666   5.3955   6.2684   6.3611   6.4979   6.6014   6.6848
     6.7540   6.8339   6.8568   6.9095   6.9615   7.0461   7.0907   7.1834
     7.2433   7.3231   7.3534   7.3976   7.4713   7.5199   7.6174   7.6632
     7.6948   7.7032   7.7436   7.7769   7.8530   7.8631   7.8989   7.9491
     7.9844   8.0092   8.0570   8.0804   8.1168   8.1726   8.2053   8.2220
     8.2243   8.2754   8.3144   8.3363   8.3893   8.4124   8.4229   8.4400
     8.4535   8.4778   8.5086   8.5202   8.5455   8.5673   8.6070   8.6304
     8.6596   8.6928   8.6984   8.7297   8.7478   8.7856   8.8282   8.8637

     the Fermi energy is     1.6630 ev

!    total energy              =   -7738.34980029 Ry
     estimated scf accuracy    <       0.00000075 Ry
     smearing contrib. (-TS)   =      -0.02174583 Ry
     internal energy E=F+TS    =   -7738.32805445 Ry

     The total energy is F=E-TS. E is the sum of the following terms:
     one-electron contribution =  -95249.29980805 Ry
     hartree contribution      =   48240.72548408 Ry
     xc contribution           =   -2218.74346293 Ry
     ewald contribution        =   41490.79983725 Ry
     Dispersion Correction     =      -1.81020538 Ry
     electric field correction =       0.00010059 Ry

     total magnetization       =    86.97 Bohr mag/cell
     absolute magnetization    =    88.48 Bohr mag/cell

     convergence has been achieved in  71 iterations

     negative rho (up, down):  1.049E-03 5.972E-04

     Forces acting on atoms (cartesian axes, Ry/au):

     atom    1 type  1   force =     0.02519411   -0.03098043    0.01841040
     atom    2 type  2   force =    -0.01367383   -0.00142957   -0.01007667
     atom    3 type  1   force =    -0.02324970   -0.01852277    0.01981982
     atom    4 type  1   force =     0.00570249    0.00417421   -0.00645963
     atom    5 type  1   force =    -0.00190632    0.00116134   -0.00527505
     atom    6 type  1   force =     0.00209425    0.00773815   -0.00904202
     atom    7 type  3   force =    -0.00769494    0.00123737   -0.01047928
     atom    8 type  3   force =    -0.03501546    0.05414896   -0.08326522
     atom    9 type  3   force =     0.03414524    0.03817293   -0.06427219
     atom   10 type  3   force =    -0.00305147   -0.00245685   -0.01163482
     atom   11 type  4   force =     0.00674139    0.00561542    0.01404867
     atom   12 type  4   force =    -0.00021970   -0.00298454    0.01474867
     atom   13 type  4   force =     0.00191019    0.00165135    0.01732657
     atom   14 type  4   force =    -0.00054844   -0.00123599    0.01284427
     atom   15 type  4   force =    -0.00064057    0.00460359   -0.00199319
     atom   16 type  4   force =    -0.00039562    0.00257526    0.04049057
     atom   17 type  4   force =     0.00167844    0.00804657    0.03796941
     atom   18 type  4   force =     0.00793970   -0.00444117   -0.00051387
     atom   19 type  4   force =     0.00040635    0.01178795    0.00427797
     atom   20 type  4   force =    -0.00971913   -0.02667264   -0.00364530
     atom   21 type  4   force =    -0.01101722   -0.00044729    0.00067274
     atom   22 type  4   force =    -0.03196392    0.00311504    0.00790065
     atom   23 type  4   force =     0.03193101    0.00059735    0.01412892
     atom   24 type  4   force =     0.00707923   -0.03685496    0.00383212
     atom   25 type  4   force =    -0.00309314    0.00161578    0.00396464
     atom   26 type  4   force =     0.01768481   -0.00686655    0.00080590
     atom   27 type  1   force =    -0.00514263   -0.00885853    0.00266377
     atom   28 type  2   force =    -0.01322094   -0.00018357    0.00423222
     atom   29 type  1   force =     0.00296373   -0.00505066   -0.00155533
     atom   30 type  1   force =     0.00249572    0.00454420   -0.00201727
     atom   31 type  1   force =     0.00152625   -0.00477542    0.00016430
     atom   32 type  1   force =    -0.00071040    0.00135180   -0.00179591
     atom   33 type  3   force =    -0.00672681   -0.00317172   -0.00162212
     atom   34 type  3   force =    -0.00787199    0.00256848    0.00000644
     atom   35 type  3   force =     0.00442884   -0.00059929    0.00268069
     atom   36 type  3   force =     0.00062699   -0.00044422   -0.00557200
     atom   37 type  4   force =     0.00852015    0.00534855    0.00725660
     atom   38 type  4   force =     0.00376912   -0.00085159   -0.01941576
     atom   39 type  4   force =    -0.00156329    0.00363557   -0.00978444
     atom   40 type  4   force =    -0.00150299   -0.00251285    0.00958710
     atom   41 type  4   force =    -0.00228010    0.00491440   -0.00758558
     atom   42 type  4   force =    -0.00441383   -0.00441753    0.01798852
     atom   43 type  4   force =     0.00764093    0.00331963    0.00786741
     atom   44 type  4   force =     0.01033547   -0.00588634   -0.00646354
     atom   45 type  4   force =     0.00283029    0.00385086    0.00064025
     atom   46 type  4   force =     0.00235649   -0.00010772   -0.00557335
     atom   47 type  4   force =    -0.01278802   -0.00078166   -0.00342475
     atom   48 type  4   force =    -0.01460801    0.00125246    0.00343692
     atom   49 type  4   force =     0.01356618    0.00254470    0.00440196
     atom   50 type  4   force =    -0.00270421   -0.00492676   -0.00048476
     atom   51 type  4   force =    -0.00534338    0.00196545    0.00028012
     atom   52 type  4   force =     0.01550897   -0.00342968   -0.00466885
     atom   53 type  1   force =     0.00032671    0.00029525   -0.00013467
     atom   54 type  2   force =     0.00089117    0.00102079   -0.00165406
     atom   55 type  1   force =     0.00000254    0.00020955    0.00017260
     atom   56 type  1   force =     0.00003795    0.00004028    0.00015727
     atom   57 type  1   force =     0.00027942    0.00008321    0.00028760
     atom   58 type  1   force =     0.00021994   -0.00002527    0.00029654
     atom   59 type  3   force =     0.00055346   -0.00034386    0.00030271
     atom   60 type  3   force =     0.00002270   -0.00064000    0.00028347
     atom   61 type  3   force =    -0.00004755    0.00004930    0.00029251
     atom   62 type  3   force =    -0.00006065   -0.00021316   -0.00006526
     atom   63 type  4   force =    -0.00026148   -0.00025265    0.00011411
     atom   64 type  4   force =     0.00013557   -0.00055517    0.00031256
     atom   65 type  4   force =     0.00005821    0.00041319    0.00024254
     atom   66 type  4   force =    -0.00016342    0.00010350    0.00006290
     atom   67 type  4   force =    -0.00060196    0.00032652    0.00054937
     atom   68 type  4   force =    -0.00015063    0.00052482   -0.00012750
     atom   69 type  4   force =     0.00027842   -0.00078997   -0.00078340
     atom   70 type  4   force =     0.00031394   -0.00016609    0.00054793
     atom   71 type  4   force =     0.00002353   -0.00015083    0.00028594
     atom   72 type  4   force =     0.00001489    0.00019388   -0.00039419
     atom   73 type  4   force =    -0.00004133    0.00024308   -0.00033377
     atom   74 type  4   force =     0.00031927    0.00009560    0.00021253
     atom   75 type  4   force =     0.00002828    0.00015246    0.00027522
     atom   76 type  4   force =    -0.00012786    0.00025211    0.00057287
     atom   77 type  4   force =    -0.00017539    0.00008476    0.00040909
     atom   78 type  4   force =     0.00016724   -0.00041924   -0.00063234
     atom   79 type  1   force =     0.02518880   -0.03097942    0.01841583
     atom   80 type  2   force =    -0.01368214   -0.00147777   -0.01002349
     atom   81 type  1   force =    -0.02323798   -0.01851866    0.01982142
     atom   82 type  1   force =     0.00569745    0.00417394   -0.00645260
     atom   83 type  1   force =    -0.00192405    0.00116628   -0.00527766
     atom   84 type  1   force =     0.00208727    0.00774075   -0.00904043
     atom   85 type  3   force =    -0.00770156    0.00120305   -0.01042338
     atom   86 type  3   force =    -0.03501485    0.05414918   -0.08326316
     atom   87 type  3   force =     0.03414782    0.03817261   -0.06426990
     atom   88 type  3   force =    -0.00303979   -0.00246083   -0.01163584
     atom   89 type  4   force =     0.00685360    0.00562131    0.01403786
     atom   90 type  4   force =    -0.00012585   -0.00289998    0.01473901
     atom   91 type  4   force =     0.00199953    0.00164258    0.01729855
     atom   92 type  4   force =    -0.00038428   -0.00123036    0.01284435
     atom   93 type  4   force =    -0.00064022    0.00481250   -0.00190277
     atom   94 type  4   force =    -0.00045990    0.00253486    0.04028418
     atom   95 type  4   force =     0.00180788    0.00804781    0.03797063
     atom   96 type  4   force =     0.00773301   -0.00445742   -0.00053463
     atom   97 type  4   force =     0.00048749    0.01184688    0.00417812
     atom   98 type  4   force =    -0.00961277   -0.02650421   -0.00361300
     atom   99 type  4   force =    -0.01102968   -0.00041430    0.00086750
     atom  100 type  4   force =    -0.03199449    0.00301027    0.00777546
     atom  101 type  4   force =     0.03195837    0.00059825    0.01413688
     atom  102 type  4   force =     0.00689917   -0.03685619    0.00383664
     atom  103 type  4   force =    -0.00300200    0.00156922    0.00392703
     atom  104 type  4   force =     0.01781308   -0.00686322    0.00079114
     atom  105 type  1   force =    -0.00529028   -0.00875654    0.00260817
     atom  106 type  2   force =    -0.01339506    0.00030871    0.00433940
     atom  107 type  1   force =     0.00300759   -0.00506746   -0.00153920
     atom  108 type  1   force =     0.00271290    0.00365067   -0.00118811
     atom  109 type  1   force =     0.00139442   -0.00473507    0.00010058
     atom  110 type  1   force =    -0.00096694    0.00136665   -0.00175872
     atom  111 type  3   force =    -0.00683534   -0.00341305   -0.00084343
     atom  112 type  3   force =    -0.00810871    0.00270302   -0.00017880
     atom  113 type  3   force =     0.00442612   -0.00068699    0.00269129
     atom  114 type  3   force =     0.00061379    0.00039811   -0.00509345
     atom  115 type  4   force =     0.00879006    0.00537671    0.00715946
     atom  116 type  4   force =     0.00384332   -0.00095869   -0.01945819
     atom  117 type  4   force =    -0.00134374    0.00367998   -0.00975386
     atom  118 type  4   force =    -0.00127816   -0.00285834    0.00958490
     atom  119 type  4   force =    -0.00313716    0.00393015   -0.00709076
     atom  120 type  4   force =    -0.00411176   -0.00465336    0.01795826
     atom  121 type  4   force =     0.00767671    0.00332283    0.00788874
     atom  122 type  4   force =     0.01024597   -0.00589813   -0.00586329
     atom  123 type  4   force =     0.00305319    0.00356151   -0.00028395
     atom  124 type  4   force =     0.00224155   -0.00000084   -0.00555698
     atom  125 type  4   force =    -0.01270174   -0.00087326   -0.00332552
     atom  126 type  4   force =    -0.01468224    0.00127094    0.00343046
     atom  127 type  4   force =     0.01348506    0.00243517    0.00449165
     atom  128 type  4   force =    -0.00283112   -0.00496521   -0.00044616
     atom  129 type  4   force =    -0.00562328    0.00209985    0.00000778
     atom  130 type  4   force =     0.01571726   -0.00362965   -0.00443651
     atom  131 type  1   force =     0.00048347    0.00008399    0.00011112
     atom  132 type  2   force =    -0.00042216   -0.00005188    0.00010160
     atom  133 type  1   force =    -0.00014416    0.00007648    0.00030872
     atom  134 type  1   force =    -0.00031719   -0.00025472   -0.00053265
     atom  135 type  1   force =     0.00042594   -0.00045000    0.00027017
     atom  136 type  1   force =     0.00069077   -0.00025857    0.00021315
     atom  137 type  3   force =    -0.00022026    0.00048923   -0.00008151
     atom  138 type  3   force =    -0.00008588   -0.00027036    0.00041832
     atom  139 type  3   force =     0.00034621   -0.00010202    0.00009819
     atom  140 type  3   force =     0.00003079   -0.00032437   -0.00039191
     atom  141 type  4   force =     0.00016810    0.00029242   -0.00005363
     atom  142 type  4   force =    -0.00007759    0.00007363    0.00036033
     atom  143 type  4   force =     0.00051184   -0.00008527    0.00008685
     atom  144 type  4   force =    -0.00008448    0.00007707   -0.00029447
     atom  145 type  4   force =     0.00048828   -0.00008743    0.00062896
     atom  146 type  4   force =     0.00001814    0.00025726    0.00037533
     atom  147 type  4   force =    -0.00044845   -0.00042906   -0.00024116
     atom  148 type  4   force =     0.00045956   -0.00002425    0.00047196
     atom  149 type  4   force =    -0.00053639   -0.00037848    0.00052873
     atom  150 type  4   force =     0.00008608   -0.00041211    0.00011076
     atom  151 type  4   force =    -0.00001017   -0.00012804   -0.00005392
     atom  152 type  4   force =     0.00040690   -0.00007747   -0.00008774
     atom  153 type  4   force =     0.00005912    0.00024880   -0.00020687
     atom  154 type  4   force =     0.00044897   -0.00005653   -0.00002682
     atom  155 type  4   force =    -0.00004749    0.00023627   -0.00014384
     atom  156 type  4   force =     0.00014606    0.00012104   -0.00002304
     atom  157 type  4   force =     0.00667486   -0.00854086    0.00104819
     atom  158 type  5   force =    -0.00683050    0.00556122    0.00199446

     Total force =     0.263095     Total SCF correction =     0.003430
 
     init_run     :      8.81s CPU      9.56s WALL (       1 calls)
     electrons    :   1101.89s CPU   1157.47s WALL (       1 calls)
     forces       :      4.78s CPU      5.21s WALL (       1 calls)
     force_london :      0.12s CPU      0.12s WALL (       1 calls)

     Called by init_run:
     wfcinit      :      5.16s CPU      5.38s WALL (       1 calls)
     potinit      :      0.55s CPU      0.75s WALL (       1 calls)
     hinit0       :      1.62s CPU      1.73s WALL (       1 calls)

     Called by electrons:
     c_bands      :    877.77s CPU    907.39s WALL (      71 calls)
     sum_band     :    141.79s CPU    155.31s WALL (      71 calls)
     v_of_rho     :     19.47s CPU     20.68s WALL (      72 calls)
     newd         :     41.25s CPU     52.42s WALL (      72 calls)
     mix_rho      :     20.64s CPU     20.92s WALL (      71 calls)
     energy_londo :      0.12s CPU      0.12s WALL (       1 calls)

     Called by c_bands:
     init_us_2    :      2.65s CPU      2.72s WALL (     288 calls)
     init_us_2:cp :      2.64s CPU      2.72s WALL (     288 calls)
     regterg      :    857.87s CPU    887.21s WALL (     145 calls)

     Called by *egterg:
     rdiaghg      :    261.98s CPU    276.98s WALL (     689 calls)
     h_psi        :    332.24s CPU    338.36s WALL (     691 calls)
     s_psi        :     65.78s CPU     65.83s WALL (     691 calls)
     g_psi        :      0.49s CPU      0.49s WALL (     544 calls)

     Called by h_psi:
     h_psi:calbec :     81.25s CPU     86.34s WALL (     691 calls)
     vloc_psi     :    184.70s CPU    185.64s WALL (     691 calls)
     add_vuspsi   :     65.47s CPU     65.54s WALL (     691 calls)

     General routines
     calbec       :    119.85s CPU    127.34s WALL (     841 calls)
     fft          :     14.48s CPU     16.27s WALL (    1309 calls)
     ffts         :     12.90s CPU     12.94s WALL (    8825 calls)
     fftw         :    207.69s CPU    208.65s WALL (  244430 calls)
     interpolate  :      1.52s CPU      1.60s WALL (     144 calls)
 
     Parallel routines
 
     PWSCF        :  18m37.69s CPU  19m34.73s WALL

 
   This run was terminated on:  22:15: 1  17Nov2025            

=------------------------------------------------------------------------------=
   JOB DONE.
=------------------------------------------------------------------------------=
