
     Program PWSCF v.7.2 starts on 18Nov2025 at  0:23:35 

     This program is part of the open-source Quantum ESPRESSO suite
     for quantum simulation of materials; please cite
         "P. Giannozzi et al., J. Phys.:Condens. Matter 21 395502 (2009);
         "P. Giannozzi et al., J. Phys.:Condens. Matter 29 465901 (2017);
         "P. Giannozzi et al., J. Chem. Phys. 152 154105 (2020);
          URL http://www.quantum-espresso.org", 
     in publications or presentations arising from this work. More details at
     http://www.quantum-espresso.org/quote

     Parallel version (MPI), running on    64 processors

     MPI processes distributed on     4 nodes
     342712 MiB available memory on the printing compute node when the environment starts
 
     Reading input from PWINPUT_atm158_yp

     Current dimensions of program PWSCF are:
     Max number of different atomic species (ntypx) = 10
     Max number of k-points (npk) =  40000
     Max angular momentum in pseudopotentials (lmaxx) =  4
     Presently no symmetry can be used with electric field

     file Ni.pbe-n-rrkjus_psl.1.0.0.UPF: wavefunction(s)  3D renormalized
     file Mn.pbe-spn-rrkjus_psl.0.3.1.UPF: wavefunction(s)  3D renormalized
     file O.pbe-rrkjus.UPF: wavefunction(s)  2S renormalized
     file H.pbe-rrkjus.UPF: wavefunction(s)  1S renormalized

     gamma-point specific algorithms are used
 
     R & G space division:  proc/nbgrp/npool/nimage =      64
     Subspace diagonalization in iterative solution of the eigenvalue problem:
     one sub-group per band group will be used
     custom distributed-memory algorithm (size of sub-group:  7*  7 procs)

 
     Parallelization info
     --------------------
     sticks:   dense  smooth     PW     G-vecs:    dense   smooth      PW
     Min         207      82     20                60552    15302    1896
     Max         210      84     22                60574    15336    1950
     Sum       13325    5345   1333              3876045   980655  122653
 
     Using Slab Decomposition
 


     bravais-lattice index     =            0
     lattice parameter (alat)  =      17.4067  a.u.
     unit-cell volume          =   20529.8182 (a.u.)^3
     number of atoms/cell      =          158
     number of atomic types    =            5
     number of electrons       =      1093.00
     number of Kohn-Sham states=          656
     kinetic-energy cutoff     =      50.0000  Ry
     charge density cutoff     =     500.0000  Ry
     scf convergence threshold =      1.0E-06
     mixing beta               =       0.1000
     number of iterations used =            8  local-TF  mixing
     Exchange-correlation=  SLA  PW   PBE  PBE
                           (   1   4   3   4   0   0   0)

     celldm(1)=  17.406729  celldm(2)=   0.000000  celldm(3)=   0.000000
     celldm(4)=   0.000000  celldm(5)=   0.000000  celldm(6)=   0.000000

     crystal axes: (cart. coord. in units of alat)
               a(1) = (   1.000000   0.000000   0.000000 )  
               a(2) = (  -0.001404   1.105696   0.000000 )  
               a(3) = (   0.000000   0.000000   3.520448 )  

     reciprocal axes: (cart. coord. in units 2 pi/alat)
               b(1) = (  1.000000  0.001270  0.000000 )  
               b(2) = (  0.000000  0.904408  0.000000 )  
               b(3) = (  0.000000  0.000000  0.284055 )  


     PseudoPot. # 1 for Ni read from file:
     ~/PSEUDO/Ni.pbe-n-rrkjus_psl.1.0.0.UPF
     MD5 check sum: Not computed, couldn't open file
     Pseudo is Ultrasoft + core correction, Zval = 10.0
     Generated using "atomic" code by A. Dal Corso  v.5.1.2
     Using radial grid of 1195 points,  6 beta functions with: 
                l(1) =   0
                l(2) =   0
                l(3) =   1
                l(4) =   1
                l(5) =   2
                l(6) =   2
     Q(r) pseudized with 0 coefficients 


     PseudoPot. # 2 for Mn read from file:
     ~/PSEUDO/Mn.pbe-spn-rrkjus_psl.0.3.1.UPF
     MD5 check sum: Not computed, couldn't open file
     Pseudo is Ultrasoft + core correction, Zval = 15.0
     Generated using &quot;atomic&quot; code by A. Dal Corso  v.6.2.2
     Using radial grid of 1187 points,  6 beta functions with: 
                l(1) =   0
                l(2) =   0
                l(3) =   1
                l(4) =   1
                l(5) =   2
                l(6) =   2
     Q(r) pseudized with 0 coefficients 


     PseudoPot. # 3 for P  read from file:
     ~/PSEUDO/P.pbe-n-rrkjus_psl.1.0.0.UPF
     MD5 check sum: Not computed, couldn't open file
     Pseudo is Ultrasoft + core correction, Zval =  5.0
     Generated using "atomic" code by A. Dal Corso  v.5.1
     Using radial grid of 1147 points,  6 beta functions with: 
                l(1) =   0
                l(2) =   0
                l(3) =   1
                l(4) =   1
                l(5) =   2
                l(6) =   2
     Q(r) pseudized with 0 coefficients 


     PseudoPot. # 4 for O  read from file:
     ~/PSEUDO/O.pbe-rrkjus.UPF
     MD5 check sum: Not computed, couldn't open file
     Pseudo is Ultrasoft, Zval =  6.0
     Generated by new atomic code, or converted to UPF format
     Using radial grid of 1269 points,  4 beta functions with: 
                l(1) =   0
                l(2) =   0
                l(3) =   1
                l(4) =   1
     Q(r) pseudized with 0 coefficients 


     PseudoPot. # 5 for H  read from file:
     ~/PSEUDO/H.pbe-rrkjus.UPF
     MD5 check sum: Not computed, couldn't open file
     Pseudo is Ultrasoft, Zval =  1.0
     Generated by new atomic code, or converted to UPF format
     Using radial grid of 1061 points,  2 beta functions with: 
                l(1) =   0
                l(2) =   0
     Q(r) pseudized with 0 coefficients 


     atomic species   valence    mass     pseudopotential
     Ni               10.00    58.69300     Ni( 1.00)
     Mn               15.00    54.93800     Mn( 1.00)
     P                 5.00    30.97300     P ( 1.00)
     O                 6.00    15.99900     O ( 1.00)
     H                 1.00     1.00790     H ( 1.00)

     Starting magnetic structure 
     atomic species   magnetization
     Ni              1.000
     Mn              1.000
     P               1.000
     O               1.000
     H               0.000

     No symmetry found



   Cartesian axes

     site n.     atom                  positions (alat units)
         1        Ni     tau(   1) = (   0.2421002   0.8609138   0.1302181  )
         2        Mn     tau(   2) = (   0.4924481   0.7886602   0.4655392  )
         3        Ni     tau(   3) = (   0.0052341   0.3031820   0.1284544  )
         4        Ni     tau(   4) = (   0.2570603   0.2374878   0.4617901  )
         5        Ni     tau(   5) = (   0.4976584   1.1048203   0.2964410  )
         6        Ni     tau(   6) = (   0.2495781   0.5440308   0.2953805  )
         7        P      tau(   7) = (   0.2083492   0.9982113   0.4588145  )
         8        P      tau(   8) = (   0.4584476   0.6559264   0.1347090  )
         9        P      tau(   9) = (   0.2889394   0.1031966   0.1319347  )
        10        P      tau(  10) = (   0.0400379   0.4338094   0.4586283  )
        11        O      tau(  11) = (   0.1314218   0.9248062   0.3189972  )
        12        O      tau(  12) = (   0.3797244   0.7272031   0.2742874  )
        13        O      tau(  13) = (   0.3662315   0.1762062   0.2720888  )
        14        O      tau(  14) = (   0.1171240   0.3646150   0.3169340  )
        15        O      tau(  15) = (   0.1510364   0.9068326   0.5881934  )
        16        O      tau(  16) = (   0.3981989   0.7453439   0.0053495  )
        17        O      tau(  17) = (   0.3490561   0.1888693   0.0010856  )
        18        O      tau(  18) = (   0.0982395   0.3475583   0.5894443  )
        19        O      tau(  19) = (   0.0992163   0.5918099   0.4542505  )
        20        O      tau(  20) = (   0.3467441   1.0504690   0.1405000  )
        21        O      tau(  21) = (   0.3739183   0.4303319   0.4477971  )
        22        O      tau(  22) = (   0.1230967   0.1088895   0.1422960  )
        23        O      tau(  23) = (   0.1242901   0.6635968   0.1442928  )
        24        O      tau(  24) = (   0.4011802   0.4971632   0.1376281  )
        25        O      tau(  25) = (   0.1484006   0.0497464   0.4550965  )
        26        O      tau(  26) = (   0.3736100   0.9942556   0.4492158  )
        27        Ni     tau(  27) = (   0.2413539   0.8509941   0.7820408  )
        28        Mn     tau(  28) = (   0.4917018   0.7787406   1.1173619  )
        29        Ni     tau(  29) = (   0.0044877   0.2932623   0.7802771  )
        30        Ni     tau(  30) = (   0.2563139   0.2275682   1.1136128  )
        31        Ni     tau(  31) = (   0.4969120   1.0949007   0.9482637  )
        32        Ni     tau(  32) = (   0.2488318   0.5341111   0.9472032  )
        33        P      tau(  33) = (   0.2076029   0.9882917   1.1106372  )
        34        P      tau(  34) = (   0.4577012   0.6460068   0.7865316  )
        35        P      tau(  35) = (   0.2881931   0.0932770   0.7837574  )
        36        P      tau(  36) = (   0.0392916   0.4238898   1.1104509  )
        37        O      tau(  37) = (   0.1306755   0.9148866   0.9708199  )
        38        O      tau(  38) = (   0.3789780   0.7172835   0.9261101  )
        39        O      tau(  39) = (   0.3654852   0.1662865   0.9239115  )
        40        O      tau(  40) = (   0.1163776   0.3546954   0.9687567  )
        41        O      tau(  41) = (   0.1502901   0.8969129   1.2400160  )
        42        O      tau(  42) = (   0.3974525   0.7354243   0.6571722  )
        43        O      tau(  43) = (   0.3483097   0.1789497   0.6529083  )
        44        O      tau(  44) = (   0.0974932   0.3376387   1.2412670  )
        45        O      tau(  45) = (   0.0984699   0.5818903   1.1060732  )
        46        O      tau(  46) = (   0.3459978   1.0405493   0.7923226  )
        47        O      tau(  47) = (   0.3731719   0.4204123   1.0996198  )
        48        O      tau(  48) = (   0.1223503   0.0989699   0.7941187  )
        49        O      tau(  49) = (   0.1235438   0.6536772   0.7961155  )
        50        O      tau(  50) = (   0.4004339   0.4872435   0.7894508  )
        51        O      tau(  51) = (   0.1476543   0.0398268   1.1069192  )
        52        O      tau(  52) = (   0.3728637   0.9843360   1.1010385  )
        53        Ni     tau(  53) = (   0.2405000   0.8314791   1.4310848  )
        54        Mn     tau(  54) = (   0.4953493   0.7643247   1.7724492  )
        55        Ni     tau(  55) = (   0.0038518   0.2756365   1.4285360  )
        56        Ni     tau(  56) = (   0.2471345   0.2153113   1.7400474  )
        57        Ni     tau(  57) = (   0.4995752   1.0720933   1.5947286  )
        58        Ni     tau(  58) = (   0.2421013   0.5219868   1.5980514  )
        59        P      tau(  59) = (   0.2104375   0.9681194   1.7574697  )
        60        P      tau(  60) = (   0.4534410   0.6275485   1.4348057  )
        61        P      tau(  61) = (   0.2894259   0.0743283   1.4290817  )
        62        P      tau(  62) = (   0.0298192   0.4013010   1.7598256  )
        63        O      tau(  63) = (   0.1358441   0.9005122   1.6129847  )
        64        O      tau(  64) = (   0.3771008   0.7024676   1.5717788  )
        65        O      tau(  65) = (   0.3674645   0.1471109   1.5680584  )
        66        O      tau(  66) = (   0.1092283   0.3457090   1.6100373  )
        67        O      tau(  67) = (   0.1496755   0.8741583   1.8808047  )
        68        O      tau(  68) = (   0.3923953   0.7169116   1.3059963  )
        69        O      tau(  69) = (   0.3499475   0.1644431   1.3009773  )
        70        O      tau(  70) = (   0.0894679   0.3000020   1.8751501  )
        71        O      tau(  71) = (   0.0835747   0.5628016   1.7646462  )
        72        O      tau(  72) = (   0.3492253   1.0223474   1.4345599  )
        73        O      tau(  73) = (   0.3642103   0.4027294   1.7423561  )
        74        O      tau(  74) = (   0.1229734   0.0811149   1.4416195  )
        75        O      tau(  75) = (   0.1204474   0.6369096   1.4465931  )
        76        O      tau(  76) = (   0.3946534   0.4694481   1.4371785  )
        77        O      tau(  77) = (   0.1552554   0.0214678   1.7549498  )
        78        O      tau(  78) = (   0.3781421   0.9602342   1.7485231  )
        79        Ni     tau(  79) = (   0.7421002   0.8609138   0.1302181  )
        80        Mn     tau(  80) = (   0.9924481   0.7886602   0.4655392  )
        81        Ni     tau(  81) = (   0.5052341   0.3031820   0.1284544  )
        82        Ni     tau(  82) = (   0.7570603   0.2374878   0.4617901  )
        83        Ni     tau(  83) = (   0.9976584   1.1048203   0.2964410  )
        84        Ni     tau(  84) = (   0.7495781   0.5440308   0.2953805  )
        85        P      tau(  85) = (   0.7083492   0.9982113   0.4588145  )
        86        P      tau(  86) = (   0.9584476   0.6559264   0.1347090  )
        87        P      tau(  87) = (   0.7889394   0.1031966   0.1319347  )
        88        P      tau(  88) = (   0.5400379   0.4338094   0.4586283  )
        89        O      tau(  89) = (   0.6314218   0.9248062   0.3189972  )
        90        O      tau(  90) = (   0.8797244   0.7272031   0.2742874  )
        91        O      tau(  91) = (   0.8662315   0.1762062   0.2720888  )
        92        O      tau(  92) = (   0.6171240   0.3646150   0.3169340  )
        93        O      tau(  93) = (   0.6510364   0.9068326   0.5881934  )
        94        O      tau(  94) = (   0.8981989   0.7453439   0.0053495  )
        95        O      tau(  95) = (   0.8490561   0.1888693   0.0010856  )
        96        O      tau(  96) = (   0.5982395   0.3475583   0.5894443  )
        97        O      tau(  97) = (   0.5992163   0.5918099   0.4542505  )
        98        O      tau(  98) = (   0.8467441   1.0504690   0.1405000  )
        99        O      tau(  99) = (   0.8739183   0.4303319   0.4477971  )
       100        O      tau( 100) = (   0.6230967   0.1088895   0.1422960  )
       101        O      tau( 101) = (   0.6242901   0.6635968   0.1442928  )
       102        O      tau( 102) = (   0.9011802   0.4971632   0.1376281  )
       103        O      tau( 103) = (   0.6484006   0.0497464   0.4550965  )
       104        O      tau( 104) = (   0.8736100   0.9942556   0.4492158  )
       105        Ni     tau( 105) = (   0.7413539   0.8509941   0.7820408  )
       106        Mn     tau( 106) = (   0.9917018   0.7787406   1.1173619  )
       107        Ni     tau( 107) = (   0.5044877   0.2932623   0.7802771  )
       108        Ni     tau( 108) = (   0.7563139   0.2275682   1.1136128  )
       109        Ni     tau( 109) = (   0.9969120   1.0949007   0.9482637  )
       110        Ni     tau( 110) = (   0.7488318   0.5341111   0.9472032  )
       111        P      tau( 111) = (   0.7076029   0.9882917   1.1106372  )
       112        P      tau( 112) = (   0.9577012   0.6460068   0.7865316  )
       113        P      tau( 113) = (   0.7881931   0.0932770   0.7837574  )
       114        P      tau( 114) = (   0.5392916   0.4238898   1.1104509  )
       115        O      tau( 115) = (   0.6306755   0.9148866   0.9708199  )
       116        O      tau( 116) = (   0.8789780   0.7172835   0.9261101  )
       117        O      tau( 117) = (   0.8654852   0.1662865   0.9239115  )
       118        O      tau( 118) = (   0.6163776   0.3546954   0.9687567  )
       119        O      tau( 119) = (   0.6502901   0.8969129   1.2400160  )
       120        O      tau( 120) = (   0.8974525   0.7354243   0.6571722  )
       121        O      tau( 121) = (   0.8483097   0.1789497   0.6529083  )
       122        O      tau( 122) = (   0.5974932   0.3376387   1.2412670  )
       123        O      tau( 123) = (   0.5984699   0.5818903   1.1060732  )
       124        O      tau( 124) = (   0.8459978   1.0405493   0.7923226  )
       125        O      tau( 125) = (   0.8731719   0.4204123   1.0996198  )
       126        O      tau( 126) = (   0.6223503   0.0989699   0.7941187  )
       127        O      tau( 127) = (   0.6235438   0.6536772   0.7961155  )
       128        O      tau( 128) = (   0.9004339   0.4872435   0.7894508  )
       129        O      tau( 129) = (   0.6476543   0.0398268   1.1069192  )
       130        O      tau( 130) = (   0.8728637   0.9843360   1.1010385  )
       131        Ni     tau( 131) = (   0.7369169   0.8303788   1.4329327  )
       132        Mn     tau( 132) = (   0.9924005   0.7622218   1.7630345  )
       133        Ni     tau( 133) = (   0.5034179   0.2756585   1.4286710  )
       134        Ni     tau( 134) = (   0.7445338   0.2135857   1.7404923  )
       135        Ni     tau( 135) = (   0.9992947   1.0745006   1.5940287  )
       136        Ni     tau( 136) = (   0.7415282   0.5178646   1.5926001  )
       137        P      tau( 137) = (   0.7110408   0.9653555   1.7633289  )
       138        P      tau( 138) = (   0.9541428   0.6272498   1.4343540  )
       139        P      tau( 139) = (   0.7882006   0.0737553   1.4295411  )
       140        P      tau( 140) = (   0.5313065   0.4052692   1.7579671  )
       141        O      tau( 141) = (   0.6299655   0.8889021   1.6239329  )
       142        O      tau( 142) = (   0.8763186   0.7000804   1.5722760  )
       143        O      tau( 143) = (   0.8661823   0.1476707   1.5678971  )
       144        O      tau( 144) = (   0.6092775   0.3424902   1.6091934  )
       145        O      tau( 145) = (   0.6577452   0.8727635   1.8894301  )
       146        O      tau( 146) = (   0.8931487   0.7181693   1.3070025  )
       147        O      tau( 147) = (   0.8501811   0.1623852   1.3009768  )
       148        O      tau( 148) = (   0.5909310   0.3060790   1.8752837  )
       149        O      tau( 149) = (   0.5915698   0.5653327   1.7515015  )
       150        O      tau( 150) = (   0.8456292   1.0209939   1.4372118  )
       151        O      tau( 151) = (   0.8624603   0.3999669   1.7434469  )
       152        O      tau( 152) = (   0.6217882   0.0804133   1.4417608  )
       153        O      tau( 153) = (   0.6203335   0.6358635   1.4429875  )
       154        O      tau( 154) = (   0.8954317   0.4691053   1.4351315  )
       155        O      tau( 155) = (   0.6536438   0.0182650   1.7541421  )
       156        O      tau( 156) = (   0.8777501   0.9608304   1.7456676  )
       157        O      tau( 157) = (   0.3827920   0.6908925   1.9089598  )
       158        H      tau( 158) = (   0.2940038   0.7503102   1.9272249  )

     -------------------------------------------------
     Parameters for Dispersion (Grimme-D2) Correction:
     -------------------------------------------------
       atom      VdW radius       C_6     

        Ni         2.952        374.666
        Mn         2.952        374.666
        P          3.222        271.980
        O          2.536         24.284
        H          1.892          4.857

     number of k points=     1  Gaussian smearing, width (Ry)=  0.0100
                       cart. coord. in units 2pi/alat
        k(    1) = (   0.0000000   0.0000000   0.0000000), wk =   1.0000000

     Dense  grid:  1938023 G-vectors     FFT dimensions: ( 125, 144, 450)

     Smooth grid:   490328 G-vectors     FFT dimensions: (  80,  90, 288)

     Estimated max dynamical RAM per process >     326.29 MB

     Estimated total dynamical RAM >      20.39 GB

     Check: negative core charge=   -0.000001
     Generating pointlists ...
     new r_m :   0.0887 (alat units)  1.5440 (a.u.) for type    1
     new r_m :   0.0790 (alat units)  1.3755 (a.u.) for type    2
     new r_m :   0.0679 (alat units)  1.1824 (a.u.) for type    3
     new r_m :   0.0447 (alat units)  0.7782 (a.u.) for type    4
     new r_m :   0.0447 (alat units)  0.7782 (a.u.) for type    5

     Initial potential from superposition of free atoms

     starting charge    1092.8893, renormalised to    1093.0000

     negative rho (up, down):  1.402E-03 4.532E-04
 
     Adding external electric field

     Computed dipole along edir(3) : 
        Dipole                1.6270 Ry au,          4.1353 Debye
        Dipole field          0.0010 Ry au, 
 
        Potential amp.       -0.1098 Ry
        Total length         55.1515 bohr
 
 
     Adding external electric field

     Computed dipole along edir(3) : 
        Dipole                1.6270 Ry au,          4.1353 Debye
        Dipole field          0.0010 Ry au, 
 
        Potential amp.       -0.1098 Ry
        Total length         55.1515 bohr
 
     Starting wfcs are  815 randomized atomic wfcs

     total cpu time spent up to now is       11.5 secs

     Self-consistent Calculation

     iteration #  1     ecut=    50.00 Ry     beta= 0.10
     Davidson diagonalization with overlap
     ethr =  1.00E-02,  avg # of iterations =  6.0

     negative rho (up, down):  3.993E-01 1.362E-06
 
     Adding external electric field

     Computed dipole along edir(3) : 
        Dipole               -3.0283 Ry au,         -7.6972 Debye
        Dipole field         -0.0019 Ry au, 
 
        Potential amp.        0.2045 Ry
        Total length         55.1515 bohr
 
 
     Adding external electric field

     Computed dipole along edir(3) : 
        Dipole               -3.0283 Ry au,         -7.6972 Debye
        Dipole field         -0.0019 Ry au, 
 
        Potential amp.        0.2045 Ry
        Total length         55.1515 bohr
 

     total cpu time spent up to now is       42.3 secs

     total energy              =   -7520.47973475 Ry
     estimated scf accuracy    <     739.12300747 Ry

     total magnetization       =   219.00 Bohr mag/cell
     absolute magnetization    =   307.69 Bohr mag/cell

     iteration #  2     ecut=    50.00 Ry     beta= 0.10
     Davidson diagonalization with overlap
     ethr =  1.00E-02,  avg # of iterations =  2.0

     negative rho (up, down):  3.641E-01 1.303E-06
 
     Adding external electric field

     Computed dipole along edir(3) : 
        Dipole               -2.2909 Ry au,         -5.8229 Debye
        Dipole field         -0.0014 Ry au, 
 
        Potential amp.        0.1547 Ry
        Total length         55.1515 bohr
 
 
     Adding external electric field

     Computed dipole along edir(3) : 
        Dipole               -2.2909 Ry au,         -5.8229 Debye
        Dipole field         -0.0014 Ry au, 
 
        Potential amp.        0.1547 Ry
        Total length         55.1515 bohr
 

     total cpu time spent up to now is       60.5 secs

     total energy              =   -7603.92284553 Ry
     estimated scf accuracy    <     149.69501120 Ry

     total magnetization       =   151.83 Bohr mag/cell
     absolute magnetization    =   202.53 Bohr mag/cell

     iteration #  3     ecut=    50.00 Ry     beta= 0.10
     Davidson diagonalization with overlap
     ethr =  1.00E-02,  avg # of iterations =  1.5

     negative rho (up, down):  3.158E-01 1.448E-06
 
     Adding external electric field

     Computed dipole along edir(3) : 
        Dipole               -1.8948 Ry au,         -4.8162 Debye
        Dipole field         -0.0012 Ry au, 
 
        Potential amp.        0.1279 Ry
        Total length         55.1515 bohr
 
 
     Adding external electric field

     Computed dipole along edir(3) : 
        Dipole               -1.8948 Ry au,         -4.8162 Debye
        Dipole field         -0.0012 Ry au, 
 
        Potential amp.        0.1279 Ry
        Total length         55.1515 bohr
 

     total cpu time spent up to now is       75.3 secs

     total energy              =   -7637.41228256 Ry
     estimated scf accuracy    <      99.21728739 Ry

     total magnetization       =   130.24 Bohr mag/cell
     absolute magnetization    =   181.83 Bohr mag/cell

     iteration #  4     ecut=    50.00 Ry     beta= 0.10
     Davidson diagonalization with overlap
     ethr =  9.08E-03,  avg # of iterations =  1.5

     negative rho (up, down):  2.396E-01 1.128E-06
 
     Adding external electric field

     Computed dipole along edir(3) : 
        Dipole               -1.8646 Ry au,         -4.7392 Debye
        Dipole field         -0.0011 Ry au, 
 
        Potential amp.        0.1259 Ry
        Total length         55.1515 bohr
 
 
     Adding external electric field

     Computed dipole along edir(3) : 
        Dipole               -1.8646 Ry au,         -4.7392 Debye
        Dipole field         -0.0011 Ry au, 
 
        Potential amp.        0.1259 Ry
        Total length         55.1515 bohr
 

     total cpu time spent up to now is       89.6 secs

     total energy              =   -7670.04007583 Ry
     estimated scf accuracy    <      79.02959058 Ry

     total magnetization       =   113.01 Bohr mag/cell
     absolute magnetization    =   166.83 Bohr mag/cell

     iteration #  5     ecut=    50.00 Ry     beta= 0.10
     Davidson diagonalization with overlap
     ethr =  7.23E-03,  avg # of iterations =  1.0

     negative rho (up, down):  2.620E-03 1.915E-06
 
     Adding external electric field

     Computed dipole along edir(3) : 
        Dipole               -1.2319 Ry au,         -3.1312 Debye
        Dipole field         -0.0008 Ry au, 
 
        Potential amp.        0.0832 Ry
        Total length         55.1515 bohr
 
 
     Adding external electric field

     Computed dipole along edir(3) : 
        Dipole               -1.2319 Ry au,         -3.1312 Debye
        Dipole field         -0.0008 Ry au, 
 
        Potential amp.        0.0832 Ry
        Total length         55.1515 bohr
 

     total cpu time spent up to now is      103.1 secs

     total energy              =   -7730.59061142 Ry
     estimated scf accuracy    <      60.86879834 Ry

     total magnetization       =    97.00 Bohr mag/cell
     absolute magnetization    =   149.80 Bohr mag/cell

     iteration #  6     ecut=    50.00 Ry     beta= 0.10
     Davidson diagonalization with overlap
     ethr =  5.57E-03,  avg # of iterations =  1.5

     negative rho (up, down):  8.789E-05 6.315E-05
 
     Adding external electric field

     Computed dipole along edir(3) : 
        Dipole               -0.8641 Ry au,         -2.1962 Debye
        Dipole field         -0.0005 Ry au, 
 
        Potential amp.        0.0583 Ry
        Total length         55.1515 bohr
 
 
     Adding external electric field

     Computed dipole along edir(3) : 
        Dipole               -0.8641 Ry au,         -2.1962 Debye
        Dipole field         -0.0005 Ry au, 
 
        Potential amp.        0.0583 Ry
        Total length         55.1515 bohr
 

     total cpu time spent up to now is      117.6 secs

     total energy              =   -7736.79318226 Ry
     estimated scf accuracy    <      13.97935286 Ry

     total magnetization       =    80.94 Bohr mag/cell
     absolute magnetization    =   108.81 Bohr mag/cell

     iteration #  7     ecut=    50.00 Ry     beta= 0.10
     Davidson diagonalization with overlap
     ethr =  1.28E-03,  avg # of iterations =  6.0

     negative rho (up, down):  6.405E-05 5.896E-05
 
     Adding external electric field

     Computed dipole along edir(3) : 
        Dipole               -0.9303 Ry au,         -2.3645 Debye
        Dipole field         -0.0006 Ry au, 
 
        Potential amp.        0.0628 Ry
        Total length         55.1515 bohr
 
 
     Adding external electric field

     Computed dipole along edir(3) : 
        Dipole               -0.9303 Ry au,         -2.3645 Debye
        Dipole field         -0.0006 Ry au, 
 
        Potential amp.        0.0628 Ry
        Total length         55.1515 bohr
 

     total cpu time spent up to now is      140.1 secs

     total energy              =   -7738.05663480 Ry
     estimated scf accuracy    <      17.02001894 Ry

     total magnetization       =    71.15 Bohr mag/cell
     absolute magnetization    =    90.73 Bohr mag/cell

     iteration #  8     ecut=    50.00 Ry     beta= 0.10
     Davidson diagonalization with overlap
     ethr =  1.28E-03,  avg # of iterations =  1.0

     negative rho (up, down):  1.197E-04 1.423E-04
 
     Adding external electric field

     Computed dipole along edir(3) : 
        Dipole               -0.9513 Ry au,         -2.4179 Debye
        Dipole field         -0.0006 Ry au, 
 
        Potential amp.        0.0642 Ry
        Total length         55.1515 bohr
 
 
     Adding external electric field

     Computed dipole along edir(3) : 
        Dipole               -0.9513 Ry au,         -2.4179 Debye
        Dipole field         -0.0006 Ry au, 
 
        Potential amp.        0.0642 Ry
        Total length         55.1515 bohr
 

     total cpu time spent up to now is      153.6 secs

     total energy              =   -7737.74764630 Ry
     estimated scf accuracy    <      24.62805705 Ry

     total magnetization       =    69.01 Bohr mag/cell
     absolute magnetization    =    88.13 Bohr mag/cell

     iteration #  9     ecut=    50.00 Ry     beta= 0.10
     Davidson diagonalization with overlap
     ethr =  1.28E-03,  avg # of iterations =  1.5

     negative rho (up, down):  4.025E-04 5.118E-04
 
     Adding external electric field

     Computed dipole along edir(3) : 
        Dipole               -0.8876 Ry au,         -2.2561 Debye
        Dipole field         -0.0005 Ry au, 
 
        Potential amp.        0.0599 Ry
        Total length         55.1515 bohr
 
 
     Adding external electric field

     Computed dipole along edir(3) : 
        Dipole               -0.8876 Ry au,         -2.2561 Debye
        Dipole field         -0.0005 Ry au, 
 
        Potential amp.        0.0599 Ry
        Total length         55.1515 bohr
 

     total cpu time spent up to now is      167.9 secs

     total energy              =   -7736.97392987 Ry
     estimated scf accuracy    <      13.36577430 Ry

     total magnetization       =    72.88 Bohr mag/cell
     absolute magnetization    =    89.44 Bohr mag/cell

     iteration # 10     ecut=    50.00 Ry     beta= 0.10
     Davidson diagonalization with overlap
     ethr =  1.22E-03,  avg # of iterations =  2.0

     negative rho (up, down):  2.494E-04 3.728E-04
 
     Adding external electric field

     Computed dipole along edir(3) : 
        Dipole               -0.8842 Ry au,         -2.2474 Debye
        Dipole field         -0.0005 Ry au, 
 
        Potential amp.        0.0597 Ry
        Total length         55.1515 bohr
 
 
     Adding external electric field

     Computed dipole along edir(3) : 
        Dipole               -0.8842 Ry au,         -2.2474 Debye
        Dipole field         -0.0005 Ry au, 
 
        Potential amp.        0.0597 Ry
        Total length         55.1515 bohr
 

     total cpu time spent up to now is      182.7 secs

     total energy              =   -7738.00475756 Ry
     estimated scf accuracy    <       8.16540063 Ry

     total magnetization       =    88.58 Bohr mag/cell
     absolute magnetization    =    99.30 Bohr mag/cell

     iteration # 11     ecut=    50.00 Ry     beta= 0.10
     Davidson diagonalization with overlap
     ethr =  7.47E-04,  avg # of iterations =  1.5

     negative rho (up, down):  1.319E-04 2.882E-04
 
     Adding external electric field

     Computed dipole along edir(3) : 
        Dipole               -0.7852 Ry au,         -1.9957 Debye
        Dipole field         -0.0005 Ry au, 
 
        Potential amp.        0.0530 Ry
        Total length         55.1515 bohr
 
 
     Adding external electric field

     Computed dipole along edir(3) : 
        Dipole               -0.7852 Ry au,         -1.9957 Debye
        Dipole field         -0.0005 Ry au, 
 
        Potential amp.        0.0530 Ry
        Total length         55.1515 bohr
 

     total cpu time spent up to now is      195.8 secs

     total energy              =   -7738.04158513 Ry
     estimated scf accuracy    <       2.20268860 Ry

     total magnetization       =    87.97 Bohr mag/cell
     absolute magnetization    =    98.42 Bohr mag/cell

     iteration # 12     ecut=    50.00 Ry     beta= 0.10
     Davidson diagonalization with overlap
     ethr =  2.02E-04,  avg # of iterations =  6.0

     negative rho (up, down):  1.068E-05 5.975E-05
 
     Adding external electric field

     Computed dipole along edir(3) : 
        Dipole               -0.5369 Ry au,         -1.3645 Debye
        Dipole field         -0.0003 Ry au, 
 
        Potential amp.        0.0362 Ry
        Total length         55.1515 bohr
 
 
     Adding external electric field

     Computed dipole along edir(3) : 
        Dipole               -0.5369 Ry au,         -1.3645 Debye
        Dipole field         -0.0003 Ry au, 
 
        Potential amp.        0.0362 Ry
        Total length         55.1515 bohr
 

     total cpu time spent up to now is      212.4 secs

     total energy              =   -7737.96381567 Ry
     estimated scf accuracy    <       1.67607084 Ry

     total magnetization       =    88.15 Bohr mag/cell
     absolute magnetization    =    97.83 Bohr mag/cell

     iteration # 13     ecut=    50.00 Ry     beta= 0.10
     Davidson diagonalization with overlap
     ethr =  1.53E-04,  avg # of iterations =  2.0

     negative rho (up, down):  4.178E-06 3.998E-05
 
     Adding external electric field

     Computed dipole along edir(3) : 
        Dipole               -0.5193 Ry au,         -1.3200 Debye
        Dipole field         -0.0003 Ry au, 
 
        Potential amp.        0.0351 Ry
        Total length         55.1515 bohr
 
 
     Adding external electric field

     Computed dipole along edir(3) : 
        Dipole               -0.5193 Ry au,         -1.3200 Debye
        Dipole field         -0.0003 Ry au, 
 
        Potential amp.        0.0351 Ry
        Total length         55.1515 bohr
 

     total cpu time spent up to now is      226.9 secs

     total energy              =   -7738.02215001 Ry
     estimated scf accuracy    <       0.82474514 Ry

     total magnetization       =    86.66 Bohr mag/cell
     absolute magnetization    =    95.73 Bohr mag/cell

     iteration # 14     ecut=    50.00 Ry     beta= 0.10
     Davidson diagonalization with overlap
     ethr =  7.55E-05,  avg # of iterations = 11.5

     negative rho (up, down):  4.752E-06 3.800E-05
 
     Adding external electric field

     Computed dipole along edir(3) : 
        Dipole               -0.5322 Ry au,         -1.3528 Debye
        Dipole field         -0.0003 Ry au, 
 
        Potential amp.        0.0359 Ry
        Total length         55.1515 bohr
 
 
     Adding external electric field

     Computed dipole along edir(3) : 
        Dipole               -0.5322 Ry au,         -1.3528 Debye
        Dipole field         -0.0003 Ry au, 
 
        Potential amp.        0.0359 Ry
        Total length         55.1515 bohr
 

     total cpu time spent up to now is      253.8 secs

     total energy              =   -7738.03581173 Ry
     estimated scf accuracy    <       1.58746471 Ry

     total magnetization       =    84.27 Bohr mag/cell
     absolute magnetization    =    93.03 Bohr mag/cell

     iteration # 15     ecut=    50.00 Ry     beta= 0.10
     Davidson diagonalization with overlap
     ethr =  7.55E-05,  avg # of iterations =  1.0

     negative rho (up, down):  6.471E-06 1.753E-05
 
     Adding external electric field

     Computed dipole along edir(3) : 
        Dipole               -0.7765 Ry au,         -1.9736 Debye
        Dipole field         -0.0005 Ry au, 
 
        Potential amp.        0.0524 Ry
        Total length         55.1515 bohr
 
 
     Adding external electric field

     Computed dipole along edir(3) : 
        Dipole               -0.7765 Ry au,         -1.9736 Debye
        Dipole field         -0.0005 Ry au, 
 
        Potential amp.        0.0524 Ry
        Total length         55.1515 bohr
 

     total cpu time spent up to now is      266.4 secs

     total energy              =   -7738.16160544 Ry
     estimated scf accuracy    <       1.05129148 Ry

     total magnetization       =    85.37 Bohr mag/cell
     absolute magnetization    =    93.92 Bohr mag/cell

     iteration # 16     ecut=    50.00 Ry     beta= 0.10
     Davidson diagonalization with overlap
     ethr =  7.55E-05,  avg # of iterations =  2.0

     negative rho (up, down):  1.230E-05 1.869E-05
 
     Adding external electric field

     Computed dipole along edir(3) : 
        Dipole               -0.8849 Ry au,         -2.2491 Debye
        Dipole field         -0.0005 Ry au, 
 
        Potential amp.        0.0597 Ry
        Total length         55.1515 bohr
 
 
     Adding external electric field

     Computed dipole along edir(3) : 
        Dipole               -0.8849 Ry au,         -2.2491 Debye
        Dipole field         -0.0005 Ry au, 
 
        Potential amp.        0.0597 Ry
        Total length         55.1515 bohr
 

     total cpu time spent up to now is      280.8 secs

     total energy              =   -7738.35675947 Ry
     estimated scf accuracy    <       1.17070793 Ry

     total magnetization       =    87.29 Bohr mag/cell
     absolute magnetization    =    92.92 Bohr mag/cell

     iteration # 17     ecut=    50.00 Ry     beta= 0.10
     Davidson diagonalization with overlap
     ethr =  7.55E-05,  avg # of iterations =  2.0

     negative rho (up, down):  8.788E-06 1.291E-05
 
     Adding external electric field

     Computed dipole along edir(3) : 
        Dipole               -0.8552 Ry au,         -2.1736 Debye
        Dipole field         -0.0005 Ry au, 
 
        Potential amp.        0.0577 Ry
        Total length         55.1515 bohr
 
 
     Adding external electric field

     Computed dipole along edir(3) : 
        Dipole               -0.8552 Ry au,         -2.1736 Debye
        Dipole field         -0.0005 Ry au, 
 
        Potential amp.        0.0577 Ry
        Total length         55.1515 bohr
 

     total cpu time spent up to now is      295.5 secs

     total energy              =   -7738.36280323 Ry
     estimated scf accuracy    <       2.82560703 Ry

     total magnetization       =    86.98 Bohr mag/cell
     absolute magnetization    =    90.74 Bohr mag/cell

     iteration # 18     ecut=    50.00 Ry     beta= 0.10
     Davidson diagonalization with overlap
     ethr =  7.55E-05,  avg # of iterations =  1.0

     negative rho (up, down):  4.976E-06 7.041E-06
 
     Adding external electric field

     Computed dipole along edir(3) : 
        Dipole               -0.8072 Ry au,         -2.0516 Debye
        Dipole field         -0.0005 Ry au, 
 
        Potential amp.        0.0545 Ry
        Total length         55.1515 bohr
 
 
     Adding external electric field

     Computed dipole along edir(3) : 
        Dipole               -0.8072 Ry au,         -2.0516 Debye
        Dipole field         -0.0005 Ry au, 
 
        Potential amp.        0.0545 Ry
        Total length         55.1515 bohr
 

     total cpu time spent up to now is      308.2 secs

     total energy              =   -7738.35474382 Ry
     estimated scf accuracy    <       1.84748325 Ry

     total magnetization       =    87.02 Bohr mag/cell
     absolute magnetization    =    90.82 Bohr mag/cell

     iteration # 19     ecut=    50.00 Ry     beta= 0.10
     Davidson diagonalization with overlap
     ethr =  7.55E-05,  avg # of iterations =  1.5

     negative rho (up, down):  1.625E-05 1.092E-05
 
     Adding external electric field

     Computed dipole along edir(3) : 
        Dipole               -0.8312 Ry au,         -2.1127 Debye
        Dipole field         -0.0005 Ry au, 
 
        Potential amp.        0.0561 Ry
        Total length         55.1515 bohr
 
 
     Adding external electric field

     Computed dipole along edir(3) : 
        Dipole               -0.8312 Ry au,         -2.1127 Debye
        Dipole field         -0.0005 Ry au, 
 
        Potential amp.        0.0561 Ry
        Total length         55.1515 bohr
 

     total cpu time spent up to now is      321.7 secs

     total energy              =   -7738.38564889 Ry
     estimated scf accuracy    <       0.78232219 Ry

     total magnetization       =    87.93 Bohr mag/cell
     absolute magnetization    =    91.54 Bohr mag/cell

     iteration # 20     ecut=    50.00 Ry     beta= 0.10
     Davidson diagonalization with overlap
     ethr =  7.16E-05,  avg # of iterations =  1.5

     negative rho (up, down):  1.383E-06 6.109E-06
 
     Adding external electric field

     Computed dipole along edir(3) : 
        Dipole               -0.6347 Ry au,         -1.6132 Debye
        Dipole field         -0.0004 Ry au, 
 
        Potential amp.        0.0429 Ry
        Total length         55.1515 bohr
 
 
     Adding external electric field

     Computed dipole along edir(3) : 
        Dipole               -0.6347 Ry au,         -1.6132 Debye
        Dipole field         -0.0004 Ry au, 
 
        Potential amp.        0.0429 Ry
        Total length         55.1515 bohr
 

     total cpu time spent up to now is      334.7 secs

     total energy              =   -7738.34217305 Ry
     estimated scf accuracy    <       2.22907187 Ry

     total magnetization       =    86.29 Bohr mag/cell
     absolute magnetization    =    88.85 Bohr mag/cell

     iteration # 21     ecut=    50.00 Ry     beta= 0.10
     Davidson diagonalization with overlap
     ethr =  7.16E-05,  avg # of iterations =  1.0

     negative rho (up, down):  8.696E-08 3.628E-06
 
     Adding external electric field

     Computed dipole along edir(3) : 
        Dipole               -0.4926 Ry au,         -1.2521 Debye
        Dipole field         -0.0003 Ry au, 
 
        Potential amp.        0.0333 Ry
        Total length         55.1515 bohr
 
 
     Adding external electric field

     Computed dipole along edir(3) : 
        Dipole               -0.4926 Ry au,         -1.2521 Debye
        Dipole field         -0.0003 Ry au, 
 
        Potential amp.        0.0333 Ry
        Total length         55.1515 bohr
 

     total cpu time spent up to now is      347.4 secs

     total energy              =   -7738.33158197 Ry
     estimated scf accuracy    <       0.61642356 Ry

     total magnetization       =    87.24 Bohr mag/cell
     absolute magnetization    =    89.36 Bohr mag/cell

     iteration # 22     ecut=    50.00 Ry     beta= 0.10
     Davidson diagonalization with overlap
     ethr =  5.64E-05,  avg # of iterations =  1.5

     negative rho (up, down):  1.772E-08 3.004E-06
 
     Adding external electric field

     Computed dipole along edir(3) : 
        Dipole               -0.4285 Ry au,         -1.0891 Debye
        Dipole field         -0.0003 Ry au, 
 
        Potential amp.        0.0289 Ry
        Total length         55.1515 bohr
 
 
     Adding external electric field

     Computed dipole along edir(3) : 
        Dipole               -0.4285 Ry au,         -1.0891 Debye
        Dipole field         -0.0003 Ry au, 
 
        Potential amp.        0.0289 Ry
        Total length         55.1515 bohr
 

     total cpu time spent up to now is      361.0 secs

     total energy              =   -7738.34303949 Ry
     estimated scf accuracy    <       0.12540546 Ry

     total magnetization       =    87.52 Bohr mag/cell
     absolute magnetization    =    89.49 Bohr mag/cell

     iteration # 23     ecut=    50.00 Ry     beta= 0.10
     Davidson diagonalization with overlap
     ethr =  1.15E-05,  avg # of iterations = 12.0

     negative rho (up, down):  0.000E+00 1.205E-06
 
     Adding external electric field

     Computed dipole along edir(3) : 
        Dipole               -0.2965 Ry au,         -0.7536 Debye
        Dipole field         -0.0002 Ry au, 
 
        Potential amp.        0.0200 Ry
        Total length         55.1515 bohr
 
 
     Adding external electric field

     Computed dipole along edir(3) : 
        Dipole               -0.2965 Ry au,         -0.7536 Debye
        Dipole field         -0.0002 Ry au, 
 
        Potential amp.        0.0200 Ry
        Total length         55.1515 bohr
 

     total cpu time spent up to now is      388.9 secs

     total energy              =   -7738.33376792 Ry
     estimated scf accuracy    <       0.12703399 Ry

     total magnetization       =    87.65 Bohr mag/cell
     absolute magnetization    =    89.37 Bohr mag/cell

     iteration # 24     ecut=    50.00 Ry     beta= 0.10
     Davidson diagonalization with overlap
     ethr =  1.15E-05,  avg # of iterations =  2.0

     negative rho (up, down):  0.000E+00 2.421E-06
 
     Adding external electric field

     Computed dipole along edir(3) : 
        Dipole               -0.3256 Ry au,         -0.8277 Debye
        Dipole field         -0.0002 Ry au, 
 
        Potential amp.        0.0220 Ry
        Total length         55.1515 bohr
 
 
     Adding external electric field

     Computed dipole along edir(3) : 
        Dipole               -0.3256 Ry au,         -0.8277 Debye
        Dipole field         -0.0002 Ry au, 
 
        Potential amp.        0.0220 Ry
        Total length         55.1515 bohr
 

     total cpu time spent up to now is      403.6 secs

     total energy              =   -7738.33823406 Ry
     estimated scf accuracy    <       0.30998516 Ry

     total magnetization       =    86.35 Bohr mag/cell
     absolute magnetization    =    88.06 Bohr mag/cell

     iteration # 25     ecut=    50.00 Ry     beta= 0.10
     Davidson diagonalization with overlap
     ethr =  1.15E-05,  avg # of iterations =  2.0

     negative rho (up, down):  1.063E-09 2.828E-06
 
     Adding external electric field

     Computed dipole along edir(3) : 
        Dipole               -0.3320 Ry au,         -0.8439 Debye
        Dipole field         -0.0002 Ry au, 
 
        Potential amp.        0.0224 Ry
        Total length         55.1515 bohr
 
 
     Adding external electric field

     Computed dipole along edir(3) : 
        Dipole               -0.3320 Ry au,         -0.8439 Debye
        Dipole field         -0.0002 Ry au, 
 
        Potential amp.        0.0224 Ry
        Total length         55.1515 bohr
 

     total cpu time spent up to now is      425.5 secs

     total energy              =   -7738.33988174 Ry
     estimated scf accuracy    <       0.13812315 Ry

     total magnetization       =    86.82 Bohr mag/cell
     absolute magnetization    =    88.46 Bohr mag/cell

     iteration # 26     ecut=    50.00 Ry     beta= 0.10
     Davidson diagonalization with overlap
     ethr =  1.15E-05,  avg # of iterations =  2.0

     negative rho (up, down):  5.374E-09 8.238E-07
 
     Adding external electric field

     Computed dipole along edir(3) : 
        Dipole               -0.2972 Ry au,         -0.7553 Debye
        Dipole field         -0.0002 Ry au, 
 
        Potential amp.        0.0201 Ry
        Total length         55.1515 bohr
 
 
     Adding external electric field

     Computed dipole along edir(3) : 
        Dipole               -0.2972 Ry au,         -0.7553 Debye
        Dipole field         -0.0002 Ry au, 
 
        Potential amp.        0.0201 Ry
        Total length         55.1515 bohr
 

     total cpu time spent up to now is      439.6 secs

     total energy              =   -7738.34725930 Ry
     estimated scf accuracy    <       0.06793430 Ry

     total magnetization       =    87.29 Bohr mag/cell
     absolute magnetization    =    88.85 Bohr mag/cell

     iteration # 27     ecut=    50.00 Ry     beta= 0.10
     Davidson diagonalization with overlap
     ethr =  6.22E-06,  avg # of iterations =  2.0

     negative rho (up, down):  5.290E-07 3.447E-07
 
     Adding external electric field

     Computed dipole along edir(3) : 
        Dipole               -0.2228 Ry au,         -0.5662 Debye
        Dipole field         -0.0001 Ry au, 
 
        Potential amp.        0.0150 Ry
        Total length         55.1515 bohr
 
 
     Adding external electric field

     Computed dipole along edir(3) : 
        Dipole               -0.2228 Ry au,         -0.5662 Debye
        Dipole field         -0.0001 Ry au, 
 
        Potential amp.        0.0150 Ry
        Total length         55.1515 bohr
 

     total cpu time spent up to now is      454.2 secs

     total energy              =   -7738.35217206 Ry
     estimated scf accuracy    <       0.05107727 Ry

     total magnetization       =    87.37 Bohr mag/cell
     absolute magnetization    =    88.85 Bohr mag/cell

     iteration # 28     ecut=    50.00 Ry     beta= 0.10
     Davidson diagonalization with overlap
     ethr =  4.67E-06,  avg # of iterations =  2.0

     negative rho (up, down):  3.152E-06 1.687E-06
 
     Adding external electric field

     Computed dipole along edir(3) : 
        Dipole               -0.2472 Ry au,         -0.6283 Debye
        Dipole field         -0.0002 Ry au, 
 
        Potential amp.        0.0167 Ry
        Total length         55.1515 bohr
 
 
     Adding external electric field

     Computed dipole along edir(3) : 
        Dipole               -0.2472 Ry au,         -0.6283 Debye
        Dipole field         -0.0002 Ry au, 
 
        Potential amp.        0.0167 Ry
        Total length         55.1515 bohr
 

     total cpu time spent up to now is      468.7 secs

     total energy              =   -7738.35352904 Ry
     estimated scf accuracy    <       0.03795670 Ry

     total magnetization       =    87.47 Bohr mag/cell
     absolute magnetization    =    88.84 Bohr mag/cell

     iteration # 29     ecut=    50.00 Ry     beta= 0.10
     Davidson diagonalization with overlap
     ethr =  3.47E-06,  avg # of iterations =  2.0

     negative rho (up, down):  9.179E-06 4.894E-06
 
     Adding external electric field

     Computed dipole along edir(3) : 
        Dipole               -0.1875 Ry au,         -0.4765 Debye
        Dipole field         -0.0001 Ry au, 
 
        Potential amp.        0.0127 Ry
        Total length         55.1515 bohr
 
 
     Adding external electric field

     Computed dipole along edir(3) : 
        Dipole               -0.1875 Ry au,         -0.4765 Debye
        Dipole field         -0.0001 Ry au, 
 
        Potential amp.        0.0127 Ry
        Total length         55.1515 bohr
 

     total cpu time spent up to now is      483.8 secs

     total energy              =   -7738.35242927 Ry
     estimated scf accuracy    <       0.05037218 Ry

     total magnetization       =    87.75 Bohr mag/cell
     absolute magnetization    =    89.17 Bohr mag/cell

     iteration # 30     ecut=    50.00 Ry     beta= 0.10
     Davidson diagonalization with overlap
     ethr =  3.47E-06,  avg # of iterations =  2.0

     negative rho (up, down):  6.585E-06 3.653E-06
 
     Adding external electric field

     Computed dipole along edir(3) : 
        Dipole               -0.1363 Ry au,         -0.3466 Debye
        Dipole field         -0.0001 Ry au, 
 
        Potential amp.        0.0092 Ry
        Total length         55.1515 bohr
 
 
     Adding external electric field

     Computed dipole along edir(3) : 
        Dipole               -0.1363 Ry au,         -0.3466 Debye
        Dipole field         -0.0001 Ry au, 
 
        Potential amp.        0.0092 Ry
        Total length         55.1515 bohr
 

     total cpu time spent up to now is      498.0 secs

     total energy              =   -7738.35181508 Ry
     estimated scf accuracy    <       0.02889608 Ry

     total magnetization       =    87.39 Bohr mag/cell
     absolute magnetization    =    88.84 Bohr mag/cell

     iteration # 31     ecut=    50.00 Ry     beta= 0.10
     Davidson diagonalization with overlap
     c_bands:  5 eigenvalues not converged
     ethr =  2.64E-06,  avg # of iterations = 11.0

     negative rho (up, down):  2.367E-06 1.185E-06
 
     Adding external electric field

     Computed dipole along edir(3) : 
        Dipole               -0.1387 Ry au,         -0.3526 Debye
        Dipole field         -0.0001 Ry au, 
 
        Potential amp.        0.0094 Ry
        Total length         55.1515 bohr
 
 
     Adding external electric field

     Computed dipole along edir(3) : 
        Dipole               -0.1387 Ry au,         -0.3526 Debye
        Dipole field         -0.0001 Ry au, 
 
        Potential amp.        0.0094 Ry
        Total length         55.1515 bohr
 

     total cpu time spent up to now is      517.7 secs

     total energy              =   -7738.35259766 Ry
     estimated scf accuracy    <       0.03464830 Ry

     total magnetization       =    87.10 Bohr mag/cell
     absolute magnetization    =    88.58 Bohr mag/cell

     iteration # 32     ecut=    50.00 Ry     beta= 0.10
     Davidson diagonalization with overlap
     ethr =  2.64E-06,  avg # of iterations = 21.0

     negative rho (up, down):  4.294E-04 3.246E-04
 
     Adding external electric field

     Computed dipole along edir(3) : 
        Dipole                0.0134 Ry au,          0.0340 Debye
        Dipole field          0.0000 Ry au, 
 
        Potential amp.       -0.0009 Ry
        Total length         55.1515 bohr
 
 
     Adding external electric field

     Computed dipole along edir(3) : 
        Dipole                0.0134 Ry au,          0.0340 Debye
        Dipole field          0.0000 Ry au, 
 
        Potential amp.       -0.0009 Ry
        Total length         55.1515 bohr
 

     total cpu time spent up to now is      550.6 secs

     total energy              =   -7738.35164600 Ry
     estimated scf accuracy    <       0.06094586 Ry

     total magnetization       =    86.87 Bohr mag/cell
     absolute magnetization    =    88.34 Bohr mag/cell

     iteration # 33     ecut=    50.00 Ry     beta= 0.10
     Davidson diagonalization with overlap
     ethr =  2.64E-06,  avg # of iterations =  5.0

     negative rho (up, down):  2.466E-03 2.227E-03
 
     Adding external electric field

     Computed dipole along edir(3) : 
        Dipole                0.0183 Ry au,          0.0464 Debye
        Dipole field          0.0000 Ry au, 
 
        Potential amp.       -0.0012 Ry
        Total length         55.1515 bohr
 
 
     Adding external electric field

     Computed dipole along edir(3) : 
        Dipole                0.0183 Ry au,          0.0464 Debye
        Dipole field          0.0000 Ry au, 
 
        Potential amp.       -0.0012 Ry
        Total length         55.1515 bohr
 

     total cpu time spent up to now is      567.2 secs

     total energy              =   -7738.34721905 Ry
     estimated scf accuracy    <       0.19464188 Ry

     total magnetization       =    86.42 Bohr mag/cell
     absolute magnetization    =    87.92 Bohr mag/cell

     iteration # 34     ecut=    50.00 Ry     beta= 0.10
     Davidson diagonalization with overlap
     ethr =  2.64E-06,  avg # of iterations =  3.0

     negative rho (up, down):  4.149E-03 3.989E-03
 
     Adding external electric field

     Computed dipole along edir(3) : 
        Dipole                0.1250 Ry au,          0.3177 Debye
        Dipole field          0.0001 Ry au, 
 
        Potential amp.       -0.0084 Ry
        Total length         55.1515 bohr
 
 
     Adding external electric field

     Computed dipole along edir(3) : 
        Dipole                0.1250 Ry au,          0.3177 Debye
        Dipole field          0.0001 Ry au, 
 
        Potential amp.       -0.0084 Ry
        Total length         55.1515 bohr
 

     total cpu time spent up to now is      582.0 secs

     total energy              =   -7738.34958616 Ry
     estimated scf accuracy    <       0.02781805 Ry

     total magnetization       =    87.50 Bohr mag/cell
     absolute magnetization    =    88.94 Bohr mag/cell

     iteration # 35     ecut=    50.00 Ry     beta= 0.10
     Davidson diagonalization with overlap
     ethr =  2.55E-06,  avg # of iterations =  2.0

     negative rho (up, down):  6.036E-03 5.897E-03
 
     Adding external electric field

     Computed dipole along edir(3) : 
        Dipole                0.2146 Ry au,          0.5455 Debye
        Dipole field          0.0001 Ry au, 
 
        Potential amp.       -0.0145 Ry
        Total length         55.1515 bohr
 
 
     Adding external electric field

     Computed dipole along edir(3) : 
        Dipole                0.2146 Ry au,          0.5455 Debye
        Dipole field          0.0001 Ry au, 
 
        Potential amp.       -0.0145 Ry
        Total length         55.1515 bohr
 

     total cpu time spent up to now is      596.5 secs

     total energy              =   -7738.35018060 Ry
     estimated scf accuracy    <       0.02482660 Ry

     total magnetization       =    86.98 Bohr mag/cell
     absolute magnetization    =    88.43 Bohr mag/cell

     iteration # 36     ecut=    50.00 Ry     beta= 0.10
     Davidson diagonalization with overlap
     c_bands:  1 eigenvalues not converged
     ethr =  2.27E-06,  avg # of iterations = 21.0

     negative rho (up, down):  6.109E-03 6.038E-03
 
     Adding external electric field

     Computed dipole along edir(3) : 
        Dipole                0.2122 Ry au,          0.5393 Debye
        Dipole field          0.0001 Ry au, 
 
        Potential amp.       -0.0143 Ry
        Total length         55.1515 bohr
 
 
     Adding external electric field

     Computed dipole along edir(3) : 
        Dipole                0.2122 Ry au,          0.5393 Debye
        Dipole field          0.0001 Ry au, 
 
        Potential amp.       -0.0143 Ry
        Total length         55.1515 bohr
 

     total cpu time spent up to now is      627.6 secs

     total energy              =   -7738.35067671 Ry
     estimated scf accuracy    <       0.13097114 Ry

     total magnetization       =    86.45 Bohr mag/cell
     absolute magnetization    =    87.88 Bohr mag/cell

     iteration # 37     ecut=    50.00 Ry     beta= 0.10
     Davidson diagonalization with overlap
     ethr =  2.27E-06,  avg # of iterations =  2.5

     negative rho (up, down):  7.282E-03 6.610E-03
 
     Adding external electric field

     Computed dipole along edir(3) : 
        Dipole                0.1636 Ry au,          0.4158 Debye
        Dipole field          0.0001 Ry au, 
 
        Potential amp.       -0.0110 Ry
        Total length         55.1515 bohr
 
 
     Adding external electric field

     Computed dipole along edir(3) : 
        Dipole                0.1636 Ry au,          0.4158 Debye
        Dipole field          0.0001 Ry au, 
 
        Potential amp.       -0.0110 Ry
        Total length         55.1515 bohr
 

     total cpu time spent up to now is      642.8 secs

     total energy              =   -7738.34791475 Ry
     estimated scf accuracy    <       0.09839637 Ry

     total magnetization       =    86.57 Bohr mag/cell
     absolute magnetization    =    87.99 Bohr mag/cell

     iteration # 38     ecut=    50.00 Ry     beta= 0.10
     Davidson diagonalization with overlap
     ethr =  2.27E-06,  avg # of iterations =  2.0

     negative rho (up, down):  7.281E-03 6.420E-03
 
     Adding external electric field

     Computed dipole along edir(3) : 
        Dipole                0.1772 Ry au,          0.4504 Debye
        Dipole field          0.0001 Ry au, 
 
        Potential amp.       -0.0120 Ry
        Total length         55.1515 bohr
 
 
     Adding external electric field

     Computed dipole along edir(3) : 
        Dipole                0.1772 Ry au,          0.4504 Debye
        Dipole field          0.0001 Ry au, 
 
        Potential amp.       -0.0120 Ry
        Total length         55.1515 bohr
 

     total cpu time spent up to now is      657.3 secs

     total energy              =   -7738.34840887 Ry
     estimated scf accuracy    <       0.01326242 Ry

     total magnetization       =    87.26 Bohr mag/cell
     absolute magnetization    =    88.71 Bohr mag/cell

     iteration # 39     ecut=    50.00 Ry     beta= 0.10
     Davidson diagonalization with overlap
     ethr =  1.21E-06,  avg # of iterations =  1.5

     negative rho (up, down):  6.774E-03 5.821E-03
 
     Adding external electric field

     Computed dipole along edir(3) : 
        Dipole                0.2479 Ry au,          0.6301 Debye
        Dipole field          0.0002 Ry au, 
 
        Potential amp.       -0.0167 Ry
        Total length         55.1515 bohr
 
 
     Adding external electric field

     Computed dipole along edir(3) : 
        Dipole                0.2479 Ry au,          0.6301 Debye
        Dipole field          0.0002 Ry au, 
 
        Potential amp.       -0.0167 Ry
        Total length         55.1515 bohr
 

     total cpu time spent up to now is      670.9 secs

     total energy              =   -7738.34763245 Ry
     estimated scf accuracy    <       0.01253050 Ry

     total magnetization       =    87.24 Bohr mag/cell
     absolute magnetization    =    88.69 Bohr mag/cell

     iteration # 40     ecut=    50.00 Ry     beta= 0.10
     Davidson diagonalization with overlap
     ethr =  1.15E-06,  avg # of iterations =  2.0

     negative rho (up, down):  2.958E-03 3.213E-03
 
     Adding external electric field

     Computed dipole along edir(3) : 
        Dipole                0.2943 Ry au,          0.7480 Debye
        Dipole field          0.0002 Ry au, 
 
        Potential amp.       -0.0199 Ry
        Total length         55.1515 bohr
 
 
     Adding external electric field

     Computed dipole along edir(3) : 
        Dipole                0.2943 Ry au,          0.7480 Debye
        Dipole field          0.0002 Ry au, 
 
        Potential amp.       -0.0199 Ry
        Total length         55.1515 bohr
 

     total cpu time spent up to now is      685.3 secs

     total energy              =   -7738.34928357 Ry
     estimated scf accuracy    <       0.02931959 Ry

     total magnetization       =    86.92 Bohr mag/cell
     absolute magnetization    =    88.33 Bohr mag/cell

     iteration # 41     ecut=    50.00 Ry     beta= 0.10
     Davidson diagonalization with overlap
     ethr =  1.15E-06,  avg # of iterations =  2.5

     negative rho (up, down):  2.256E-03 2.562E-03
 
     Adding external electric field

     Computed dipole along edir(3) : 
        Dipole                0.2952 Ry au,          0.7504 Debye
        Dipole field          0.0002 Ry au, 
 
        Potential amp.       -0.0199 Ry
        Total length         55.1515 bohr
 
 
     Adding external electric field

     Computed dipole along edir(3) : 
        Dipole                0.2952 Ry au,          0.7504 Debye
        Dipole field          0.0002 Ry au, 
 
        Potential amp.       -0.0199 Ry
        Total length         55.1515 bohr
 

     total cpu time spent up to now is      699.3 secs

     total energy              =   -7738.34903852 Ry
     estimated scf accuracy    <       0.01531236 Ry

     total magnetization       =    86.79 Bohr mag/cell
     absolute magnetization    =    88.23 Bohr mag/cell

     iteration # 42     ecut=    50.00 Ry     beta= 0.10
     Davidson diagonalization with overlap
     ethr =  1.15E-06,  avg # of iterations =  2.0

     negative rho (up, down):  2.697E-03 2.987E-03
 
     Adding external electric field

     Computed dipole along edir(3) : 
        Dipole                0.3146 Ry au,          0.7997 Debye
        Dipole field          0.0002 Ry au, 
 
        Potential amp.       -0.0212 Ry
        Total length         55.1515 bohr
 
 
     Adding external electric field

     Computed dipole along edir(3) : 
        Dipole                0.3146 Ry au,          0.7997 Debye
        Dipole field          0.0002 Ry au, 
 
        Potential amp.       -0.0212 Ry
        Total length         55.1515 bohr
 

     total cpu time spent up to now is      713.0 secs

     total energy              =   -7738.34946772 Ry
     estimated scf accuracy    <       0.00736146 Ry

     total magnetization       =    87.11 Bohr mag/cell
     absolute magnetization    =    88.59 Bohr mag/cell

     iteration # 43     ecut=    50.00 Ry     beta= 0.10
     Davidson diagonalization with overlap
     ethr =  6.74E-07,  avg # of iterations =  2.0

     negative rho (up, down):  3.586E-03 3.694E-03
 
     Adding external electric field

     Computed dipole along edir(3) : 
        Dipole                0.3705 Ry au,          0.9417 Debye
        Dipole field          0.0002 Ry au, 
 
        Potential amp.       -0.0250 Ry
        Total length         55.1515 bohr
 
 
     Adding external electric field

     Computed dipole along edir(3) : 
        Dipole                0.3705 Ry au,          0.9417 Debye
        Dipole field          0.0002 Ry au, 
 
        Potential amp.       -0.0250 Ry
        Total length         55.1515 bohr
 

     total cpu time spent up to now is      727.3 secs

     total energy              =   -7738.34940984 Ry
     estimated scf accuracy    <       0.00731288 Ry

     total magnetization       =    87.11 Bohr mag/cell
     absolute magnetization    =    88.59 Bohr mag/cell

     iteration # 44     ecut=    50.00 Ry     beta= 0.10
     Davidson diagonalization with overlap
     ethr =  6.69E-07,  avg # of iterations =  2.0

     negative rho (up, down):  7.832E-04 8.285E-04
 
     Adding external electric field

     Computed dipole along edir(3) : 
        Dipole                0.3342 Ry au,          0.8495 Debye
        Dipole field          0.0002 Ry au, 
 
        Potential amp.       -0.0226 Ry
        Total length         55.1515 bohr
 
 
     Adding external electric field

     Computed dipole along edir(3) : 
        Dipole                0.3342 Ry au,          0.8495 Debye
        Dipole field          0.0002 Ry au, 
 
        Potential amp.       -0.0226 Ry
        Total length         55.1515 bohr
 

     total cpu time spent up to now is      741.7 secs

     total energy              =   -7738.34937786 Ry
     estimated scf accuracy    <       0.00285257 Ry

     total magnetization       =    86.95 Bohr mag/cell
     absolute magnetization    =    88.43 Bohr mag/cell

     iteration # 45     ecut=    50.00 Ry     beta= 0.10
     Davidson diagonalization with overlap
     c_bands:  3 eigenvalues not converged
     ethr =  2.61E-07,  avg # of iterations = 11.0

     negative rho (up, down):  4.577E-05 1.892E-05
 
     Adding external electric field

     Computed dipole along edir(3) : 
        Dipole                0.3219 Ry au,          0.8181 Debye
        Dipole field          0.0002 Ry au, 
 
        Potential amp.       -0.0217 Ry
        Total length         55.1515 bohr
 
 
     Adding external electric field

     Computed dipole along edir(3) : 
        Dipole                0.3219 Ry au,          0.8181 Debye
        Dipole field          0.0002 Ry au, 
 
        Potential amp.       -0.0217 Ry
        Total length         55.1515 bohr
 

     total cpu time spent up to now is      761.6 secs

     total energy              =   -7738.34951333 Ry
     estimated scf accuracy    <       0.00182345 Ry

     total magnetization       =    86.99 Bohr mag/cell
     absolute magnetization    =    88.50 Bohr mag/cell

     iteration # 46     ecut=    50.00 Ry     beta= 0.10
     Davidson diagonalization with overlap
     c_bands:  2 eigenvalues not converged
     ethr =  1.67E-07,  avg # of iterations = 18.5

     negative rho (up, down):  1.041E-05 1.997E-06
 
     Adding external electric field

     Computed dipole along edir(3) : 
        Dipole                0.3204 Ry au,          0.8144 Debye
        Dipole field          0.0002 Ry au, 
 
        Potential amp.       -0.0216 Ry
        Total length         55.1515 bohr
 
 
     Adding external electric field

     Computed dipole along edir(3) : 
        Dipole                0.3204 Ry au,          0.8144 Debye
        Dipole field          0.0002 Ry au, 
 
        Potential amp.       -0.0216 Ry
        Total length         55.1515 bohr
 

     total cpu time spent up to now is      786.1 secs

     total energy              =   -7738.34958045 Ry
     estimated scf accuracy    <       0.00121769 Ry

     total magnetization       =    86.98 Bohr mag/cell
     absolute magnetization    =    88.51 Bohr mag/cell

     iteration # 47     ecut=    50.00 Ry     beta= 0.10
     Davidson diagonalization with overlap
     ethr =  1.11E-07,  avg # of iterations =  4.5

     negative rho (up, down):  9.062E-06 3.672E-06
 
     Adding external electric field

     Computed dipole along edir(3) : 
        Dipole                0.3311 Ry au,          0.8416 Debye
        Dipole field          0.0002 Ry au, 
 
        Potential amp.       -0.0224 Ry
        Total length         55.1515 bohr
 
 
     Adding external electric field

     Computed dipole along edir(3) : 
        Dipole                0.3311 Ry au,          0.8416 Debye
        Dipole field          0.0002 Ry au, 
 
        Potential amp.       -0.0224 Ry
        Total length         55.1515 bohr
 

     total cpu time spent up to now is      801.6 secs

     total energy              =   -7738.34963752 Ry
     estimated scf accuracy    <       0.00086081 Ry

     total magnetization       =    87.00 Bohr mag/cell
     absolute magnetization    =    88.53 Bohr mag/cell

     iteration # 48     ecut=    50.00 Ry     beta= 0.10
     Davidson diagonalization with overlap
     ethr =  7.88E-08,  avg # of iterations =  6.0

     negative rho (up, down):  8.772E-06 3.126E-06
 
     Adding external electric field

     Computed dipole along edir(3) : 
        Dipole                0.3385 Ry au,          0.8604 Debye
        Dipole field          0.0002 Ry au, 
 
        Potential amp.       -0.0229 Ry
        Total length         55.1515 bohr
 
 
     Adding external electric field

     Computed dipole along edir(3) : 
        Dipole                0.3385 Ry au,          0.8604 Debye
        Dipole field          0.0002 Ry au, 
 
        Potential amp.       -0.0229 Ry
        Total length         55.1515 bohr
 

     total cpu time spent up to now is      817.9 secs

     total energy              =   -7738.34968340 Ry
     estimated scf accuracy    <       0.00049834 Ry

     total magnetization       =    86.98 Bohr mag/cell
     absolute magnetization    =    88.49 Bohr mag/cell

     iteration # 49     ecut=    50.00 Ry     beta= 0.10
     Davidson diagonalization with overlap
     ethr =  4.56E-08,  avg # of iterations =  2.0

     negative rho (up, down):  2.380E-05 6.570E-06
 
     Adding external electric field

     Computed dipole along edir(3) : 
        Dipole                0.3528 Ry au,          0.8968 Debye
        Dipole field          0.0002 Ry au, 
 
        Potential amp.       -0.0238 Ry
        Total length         55.1515 bohr
 
 
     Adding external electric field

     Computed dipole along edir(3) : 
        Dipole                0.3528 Ry au,          0.8968 Debye
        Dipole field          0.0002 Ry au, 
 
        Potential amp.       -0.0238 Ry
        Total length         55.1515 bohr
 

     total cpu time spent up to now is      832.6 secs

     total energy              =   -7738.34973089 Ry
     estimated scf accuracy    <       0.00030496 Ry

     total magnetization       =    86.99 Bohr mag/cell
     absolute magnetization    =    88.49 Bohr mag/cell

     iteration # 50     ecut=    50.00 Ry     beta= 0.10
     Davidson diagonalization with overlap
     ethr =  2.79E-08,  avg # of iterations =  2.0

     negative rho (up, down):  1.114E-04 4.357E-05
 
     Adding external electric field

     Computed dipole along edir(3) : 
        Dipole                0.3736 Ry au,          0.9497 Debye
        Dipole field          0.0002 Ry au, 
 
        Potential amp.       -0.0252 Ry
        Total length         55.1515 bohr
 
 
     Adding external electric field

     Computed dipole along edir(3) : 
        Dipole                0.3736 Ry au,          0.9497 Debye
        Dipole field          0.0002 Ry au, 
 
        Potential amp.       -0.0252 Ry
        Total length         55.1515 bohr
 

     total cpu time spent up to now is      847.2 secs

     total energy              =   -7738.34979301 Ry
     estimated scf accuracy    <       0.00021074 Ry

     total magnetization       =    86.98 Bohr mag/cell
     absolute magnetization    =    88.49 Bohr mag/cell

     iteration # 51     ecut=    50.00 Ry     beta= 0.10
     Davidson diagonalization with overlap
     ethr =  1.93E-08,  avg # of iterations =  8.0

     negative rho (up, down):  2.173E-04 9.764E-05
 
     Adding external electric field

     Computed dipole along edir(3) : 
        Dipole                0.3817 Ry au,          0.9702 Debye
        Dipole field          0.0002 Ry au, 
 
        Potential amp.       -0.0258 Ry
        Total length         55.1515 bohr
 
 
     Adding external electric field

     Computed dipole along edir(3) : 
        Dipole                0.3817 Ry au,          0.9702 Debye
        Dipole field          0.0002 Ry au, 
 
        Potential amp.       -0.0258 Ry
        Total length         55.1515 bohr
 

     total cpu time spent up to now is      865.1 secs

     total energy              =   -7738.34981579 Ry
     estimated scf accuracy    <       0.00013342 Ry

     total magnetization       =    86.97 Bohr mag/cell
     absolute magnetization    =    88.48 Bohr mag/cell

     iteration # 52     ecut=    50.00 Ry     beta= 0.10
     Davidson diagonalization with overlap
     ethr =  1.22E-08,  avg # of iterations =  1.5

     negative rho (up, down):  2.638E-04 1.086E-04
 
     Adding external electric field

     Computed dipole along edir(3) : 
        Dipole                0.3854 Ry au,          0.9797 Debye
        Dipole field          0.0002 Ry au, 
 
        Potential amp.       -0.0260 Ry
        Total length         55.1515 bohr
 
 
     Adding external electric field

     Computed dipole along edir(3) : 
        Dipole                0.3854 Ry au,          0.9797 Debye
        Dipole field          0.0002 Ry au, 
 
        Potential amp.       -0.0260 Ry
        Total length         55.1515 bohr
 

     total cpu time spent up to now is      878.9 secs

     total energy              =   -7738.34982835 Ry
     estimated scf accuracy    <       0.00010501 Ry

     total magnetization       =    86.97 Bohr mag/cell
     absolute magnetization    =    88.48 Bohr mag/cell

     iteration # 53     ecut=    50.00 Ry     beta= 0.10
     Davidson diagonalization with overlap
     ethr =  9.61E-09,  avg # of iterations =  2.0

     negative rho (up, down):  5.268E-04 2.463E-04
 
     Adding external electric field

     Computed dipole along edir(3) : 
        Dipole                0.3930 Ry au,          0.9990 Debye
        Dipole field          0.0002 Ry au, 
 
        Potential amp.       -0.0265 Ry
        Total length         55.1515 bohr
 
 
     Adding external electric field

     Computed dipole along edir(3) : 
        Dipole                0.3930 Ry au,          0.9990 Debye
        Dipole field          0.0002 Ry au, 
 
        Potential amp.       -0.0265 Ry
        Total length         55.1515 bohr
 

     total cpu time spent up to now is      893.9 secs

     total energy              =   -7738.34983648 Ry
     estimated scf accuracy    <       0.00008245 Ry

     total magnetization       =    86.97 Bohr mag/cell
     absolute magnetization    =    88.48 Bohr mag/cell

     iteration # 54     ecut=    50.00 Ry     beta= 0.10
     Davidson diagonalization with overlap
     ethr =  7.54E-09,  avg # of iterations =  1.5

     negative rho (up, down):  6.207E-04 2.452E-04
 
     Adding external electric field

     Computed dipole along edir(3) : 
        Dipole                0.4003 Ry au,          1.0174 Debye
        Dipole field          0.0002 Ry au, 
 
        Potential amp.       -0.0270 Ry
        Total length         55.1515 bohr
 
 
     Adding external electric field

     Computed dipole along edir(3) : 
        Dipole                0.4003 Ry au,          1.0174 Debye
        Dipole field          0.0002 Ry au, 
 
        Potential amp.       -0.0270 Ry
        Total length         55.1515 bohr
 

     total cpu time spent up to now is      907.4 secs

     total energy              =   -7738.34984309 Ry
     estimated scf accuracy    <       0.00005238 Ry

     total magnetization       =    86.98 Bohr mag/cell
     absolute magnetization    =    88.49 Bohr mag/cell

     iteration # 55     ecut=    50.00 Ry     beta= 0.10
     Davidson diagonalization with overlap
     ethr =  4.79E-09,  avg # of iterations =  2.0

     negative rho (up, down):  8.676E-04 4.195E-04
 
     Adding external electric field

     Computed dipole along edir(3) : 
        Dipole                0.4054 Ry au,          1.0303 Debye
        Dipole field          0.0002 Ry au, 
 
        Potential amp.       -0.0274 Ry
        Total length         55.1515 bohr
 
 
     Adding external electric field

     Computed dipole along edir(3) : 
        Dipole                0.4054 Ry au,          1.0303 Debye
        Dipole field          0.0002 Ry au, 
 
        Potential amp.       -0.0274 Ry
        Total length         55.1515 bohr
 

     total cpu time spent up to now is      922.4 secs

     total energy              =   -7738.34984614 Ry
     estimated scf accuracy    <       0.00004255 Ry

     total magnetization       =    86.97 Bohr mag/cell
     absolute magnetization    =    88.49 Bohr mag/cell

     iteration # 56     ecut=    50.00 Ry     beta= 0.10
     Davidson diagonalization with overlap
     ethr =  3.89E-09,  avg # of iterations =  1.0

     negative rho (up, down):  1.198E-03 7.224E-04
 
     Adding external electric field

     Computed dipole along edir(3) : 
        Dipole                0.4089 Ry au,          1.0394 Debye
        Dipole field          0.0003 Ry au, 
 
        Potential amp.       -0.0276 Ry
        Total length         55.1515 bohr
 
 
     Adding external electric field

     Computed dipole along edir(3) : 
        Dipole                0.4089 Ry au,          1.0394 Debye
        Dipole field          0.0003 Ry au, 
 
        Potential amp.       -0.0276 Ry
        Total length         55.1515 bohr
 

     total cpu time spent up to now is      935.4 secs

     total energy              =   -7738.34984697 Ry
     estimated scf accuracy    <       0.00003513 Ry

     total magnetization       =    86.97 Bohr mag/cell
     absolute magnetization    =    88.49 Bohr mag/cell

     iteration # 57     ecut=    50.00 Ry     beta= 0.10
     Davidson diagonalization with overlap
     ethr =  3.21E-09,  avg # of iterations =  1.5

     negative rho (up, down):  1.280E-03 8.234E-04
 
     Adding external electric field

     Computed dipole along edir(3) : 
        Dipole                0.4109 Ry au,          1.0445 Debye
        Dipole field          0.0003 Ry au, 
 
        Potential amp.       -0.0277 Ry
        Total length         55.1515 bohr
 
 
     Adding external electric field

     Computed dipole along edir(3) : 
        Dipole                0.4109 Ry au,          1.0445 Debye
        Dipole field          0.0003 Ry au, 
 
        Potential amp.       -0.0277 Ry
        Total length         55.1515 bohr
 

     total cpu time spent up to now is      949.1 secs

     total energy              =   -7738.34984969 Ry
     estimated scf accuracy    <       0.00001530 Ry

     total magnetization       =    86.97 Bohr mag/cell
     absolute magnetization    =    88.49 Bohr mag/cell

     iteration # 58     ecut=    50.00 Ry     beta= 0.10
     Davidson diagonalization with overlap
     ethr =  1.40E-09,  avg # of iterations =  1.5

     negative rho (up, down):  1.218E-03 7.992E-04
 
     Adding external electric field

     Computed dipole along edir(3) : 
        Dipole                0.4121 Ry au,          1.0474 Debye
[...]
    -5.9686  -5.9445  -5.9224  -5.9173  -5.9022  -5.8786  -5.8751  -5.8444
    -5.8156  -5.8131  -5.7956  -5.7705  -5.7464  -5.7386  -5.7014  -5.6958
    -5.6874  -5.6542  -5.6115  -5.5890  -5.5797  -5.5448  -5.5273  -5.5073
    -5.4983  -5.4904  -5.4707  -5.4607  -5.4231  -5.4143  -5.3927  -5.3688
    -5.2999  -5.2392  -5.2299  -5.2060  -5.1947  -5.1826  -5.1524  -5.1050
    -5.0406  -5.0305  -5.0044  -4.9654  -4.9549  -4.9390  -4.9205  -4.8670
    -4.8223  -4.7709  -4.7649  -4.7551  -4.7454  -4.7044  -4.6735  -4.6635
    -4.5778  -4.5429  -4.4981  -4.4889  -4.4328  -4.4241  -4.3980  -4.3765
    -4.3668  -4.3403  -4.2238  -4.2148  -4.1902  -4.1657  -4.1367  -4.1089
    -4.0975  -4.0902  -4.0704  -3.9979  -3.9726  -3.9506  -3.9306  -3.9145
    -3.8687  -3.8301  -3.8247  -3.8006  -3.7946  -3.7664  -3.7356  -3.6978
    -3.6761  -3.6430  -3.6218  -3.6134  -3.6104  -3.5892  -3.5884  -3.5698
    -3.5380  -3.5198  -3.5090  -3.4866  -3.4822  -3.4658  -3.4531  -3.4221
    -3.4032  -3.3951  -3.3801  -3.3622  -3.3397  -3.3045  -3.2878  -3.2639
    -3.2371  -3.2350  -3.2163  -3.2057  -3.1943  -3.1471  -3.1268  -3.1004
    -3.0524  -3.0481  -3.0404  -3.0316  -3.0302  -3.0230  -3.0151  -2.9741
    -2.9431  -2.9377  -2.9287  -2.8794  -2.8686  -2.8650  -2.8101  -2.7939
    -2.7694  -2.7669  -2.7577  -2.7544  -2.7338  -2.7295  -2.7089  -2.7032
    -2.6877  -2.6649  -2.6567  -2.6282  -2.6241  -2.6103  -2.6046  -2.5949
    -2.5927  -2.5747  -2.5579  -2.5391  -2.5250  -2.5194  -2.4787  -2.4718
    -2.4501  -2.4415  -2.4201  -2.3928  -2.3595  -2.3518  -2.3322  -2.3001
    -2.2786  -2.2687  -2.2492  -2.2203  -2.2030  -2.1797  -2.1634  -2.1345
    -2.1269  -2.1190  -2.1113  -2.1022  -2.0748  -2.0635  -2.0216  -1.9934
    -1.9756  -1.9625  -1.9497  -1.9307  -1.9153  -1.9088  -1.8926  -1.8627
    -1.8526  -1.8364  -1.8160  -1.8084  -1.8017  -1.7885  -1.7716  -1.7644
    -1.7461  -1.7186  -1.7007  -1.6411  -1.6383  -1.6293  -1.5793  -1.5670
    -1.5624  -1.5330  -1.5108  -1.5004  -1.4892  -1.4808  -1.4481  -1.4344
    -1.4198  -1.4081  -1.3981  -1.3795  -1.3535  -1.3349  -1.3248  -1.3148
    -1.2720  -1.2602  -1.2419  -1.2100  -1.1873  -1.1541  -1.1187  -1.0781
    -1.0105  -0.9057  -0.8902  -0.8704  -0.8484  -0.7241  -0.7146  -0.5320
    -0.4798  -0.3159  -0.2693  -0.1372   0.1826   0.2131   0.2300   0.2472
     0.2528   0.2685   0.2954   0.3078   0.3296   0.3324   0.3524   0.3638
     0.3698   0.3754   0.3922   0.4061   0.4150   0.4166   0.4187   0.4246
     0.4297   0.4330   0.4488   0.4559   0.4584   0.4644   0.4769   0.4920
     0.4946   0.5030   0.5072   0.5149   0.5238   0.5350   0.5350   0.5420
     0.5625   0.5685   0.5771   0.5779   0.5845   0.5972   0.6002   0.6145
     0.6236   0.6254   0.6422   0.6446   0.6487   0.6526   0.6759   0.6799
     0.6837   0.6918   0.6974   0.7067   0.7132   0.7336   0.7382   0.7503
     0.7582   0.7616   0.7634   0.7739   0.7946   0.7981   0.8061   0.8117
     0.8204   0.8220   0.8307   0.8412   0.8524   0.8602   0.8707   0.8708
     0.8803   0.8928   0.9279   0.9387   0.9534   0.9557   0.9594   0.9851
     0.9995   1.0147   1.0990   1.1014   1.2001   1.2221   1.7487   1.7535
     1.7607   1.7736   1.7802   1.7888   1.8069   1.8213   1.8268   1.9056
     1.9214   1.9374   1.9669   1.9842   2.0236   2.0318   2.0468   2.1026
     2.1225   2.1348   2.1469   2.1494   2.1896   2.1955   2.2206   2.2316
     2.2458   2.2581   2.2864   2.2939   2.3037   2.3424   2.3563   2.3622
     2.3754   2.3901   2.3980   2.4159   2.4330   2.4485   2.4575   2.4778
     2.4879   2.5075   2.5100   2.5286   2.5375   2.5575   2.5882   2.6126
     2.6226   2.6362   2.6398   2.6961   2.7773   2.7954   2.8425   2.8630
     2.8920   2.9102   3.3067   3.5078   3.6334   3.6957   3.7666   3.8603
     3.9030   3.9267   3.9316   3.9554   4.0001   4.0698   4.0779   4.0898
     4.1124   4.1426   4.1503   4.1684   4.1849   4.4123   4.4921   4.6395
     4.8330   4.8812   4.9133   4.9375   4.9694   5.0329   5.0492   5.1059
     5.1275   5.1659   5.3948   6.2677   6.3605   6.4972   6.6010   6.6841
     6.7533   6.8334   6.8565   6.9083   6.9612   7.0457   7.0899   7.1829
     7.2431   7.3230   7.3532   7.3969   7.4709   7.5191   7.6173   7.6633
     7.6942   7.7027   7.7434   7.7765   7.8524   7.8625   7.8984   7.9485
     7.9836   8.0083   8.0569   8.0800   8.1162   8.1722   8.2050   8.2199
     8.2226   8.2751   8.3140   8.3352   8.3890   8.4118   8.4225   8.4397
     8.4533   8.4775   8.5080   8.5196   8.5447   8.5669   8.6067   8.6300
     8.6594   8.6922   8.6974   8.7301   8.7481   8.7991   8.8284   8.8630

     the Fermi energy is     1.6626 ev

!    total energy              =   -7738.34984968 Ry
     estimated scf accuracy    <       0.00000096 Ry
     smearing contrib. (-TS)   =      -0.02174735 Ry
     internal energy E=F+TS    =   -7738.32810232 Ry

     The total energy is F=E-TS. E is the sum of the following terms:
     one-electron contribution =  -95248.88405106 Ry
     hartree contribution      =   48240.47298718 Ry
     xc contribution           =   -2218.73431956 Ry
     ewald contribution        =   41490.62737786 Ry
     Dispersion Correction     =      -1.81019426 Ry
     electric field correction =       0.00009751 Ry

     total magnetization       =    86.97 Bohr mag/cell
     absolute magnetization    =    88.48 Bohr mag/cell

     convergence has been achieved in  63 iterations

     negative rho (up, down):  1.049E-03 5.970E-04

     Forces acting on atoms (cartesian axes, Ry/au):

     atom    1 type  1   force =     0.02500707   -0.03089044    0.01850271
     atom    2 type  2   force =    -0.01373637   -0.00157973   -0.00993007
     atom    3 type  1   force =    -0.02306324   -0.01831866    0.01993441
     atom    4 type  1   force =     0.00571822    0.00420541   -0.00640164
     atom    5 type  1   force =    -0.00189412    0.00110203   -0.00512681
     atom    6 type  1   force =     0.00206195    0.00773227   -0.00887120
     atom    7 type  3   force =    -0.00769685    0.00123709   -0.01046562
     atom    8 type  3   force =    -0.03501420    0.05414743   -0.08325178
     atom    9 type  3   force =     0.03414765    0.03817822   -0.06425825
     atom   10 type  3   force =    -0.00305435   -0.00246221   -0.01162179
     atom   11 type  4   force =     0.00677192    0.00564094    0.01414387
     atom   12 type  4   force =    -0.00017633   -0.00302982    0.01473583
     atom   13 type  4   force =     0.00188486    0.00162737    0.01731582
     atom   14 type  4   force =    -0.00057512   -0.00118867    0.01293360
     atom   15 type  4   force =    -0.00060118    0.00464294   -0.00208282
     atom   16 type  4   force =    -0.00037822    0.00255028    0.04055975
     atom   17 type  4   force =     0.00166351    0.00803828    0.03800526
     atom   18 type  4   force =     0.00789017   -0.00437641   -0.00058953
     atom   19 type  4   force =     0.00034713    0.01169561    0.00428348
     atom   20 type  4   force =    -0.00974626   -0.02663947   -0.00360564
     atom   21 type  4   force =    -0.01091084   -0.00044339    0.00068688
     atom   22 type  4   force =    -0.03192013    0.00311962    0.00793727
     atom   23 type  4   force =     0.03185703    0.00059864    0.01417766
     atom   24 type  4   force =     0.00710910   -0.03680040    0.00388167
     atom   25 type  4   force =    -0.00305271    0.00154149    0.00397055
     atom   26 type  4   force =     0.01758595   -0.00688633    0.00082090
     atom   27 type  1   force =    -0.00514716   -0.00898110    0.00268233
     atom   28 type  2   force =    -0.01323598   -0.00036652    0.00405301
     atom   29 type  1   force =     0.00296692   -0.00494123   -0.00148161
     atom   30 type  1   force =     0.00256679    0.00463987   -0.00235492
     atom   31 type  1   force =     0.00154026   -0.00480101   -0.00000825
     atom   32 type  1   force =    -0.00067487    0.00138149   -0.00197225
     atom   33 type  3   force =    -0.00673611   -0.00317610   -0.00160264
     atom   34 type  3   force =    -0.00786853    0.00256427    0.00002577
     atom   35 type  3   force =     0.00442922   -0.00059824    0.00270163
     atom   36 type  3   force =     0.00062354   -0.00044048   -0.00554668
     atom   37 type  4   force =     0.00855463    0.00537601    0.00730318
     atom   38 type  4   force =     0.00381468   -0.00091285   -0.01949691
     atom   39 type  4   force =    -0.00158680    0.00360374   -0.00984584
     atom   40 type  4   force =    -0.00152900   -0.00245786    0.00964369
     atom   41 type  4   force =    -0.00226374    0.00491209   -0.00760469
     atom   42 type  4   force =    -0.00434834   -0.00448476    0.01810527
     atom   43 type  4   force =     0.00759702    0.00328150    0.00796409
     atom   44 type  4   force =     0.01034718   -0.00588488   -0.00648392
     atom   45 type  4   force =     0.00279898    0.00379072    0.00060840
     atom   46 type  4   force =     0.00232060   -0.00002874   -0.00555423
     atom   47 type  4   force =    -0.01271087   -0.00077360   -0.00345618
     atom   48 type  4   force =    -0.01451100    0.00125941    0.00345540
     atom   49 type  4   force =     0.01342378    0.00254678    0.00442586
     atom   50 type  4   force =    -0.00264479   -0.00478603   -0.00044403
     atom   51 type  4   force =    -0.00532478    0.00193380    0.00025849
     atom   52 type  4   force =     0.01545671   -0.00345402   -0.00468255
     atom   53 type  1   force =     0.00047548    0.00018356   -0.00024771
     atom   54 type  2   force =     0.00038533   -0.00078521   -0.00007678
     atom   55 type  1   force =    -0.00005305    0.00026162   -0.00018116
     atom   56 type  1   force =     0.00021625   -0.00016617    0.00003508
     atom   57 type  1   force =     0.00053067   -0.00039193    0.00027101
     atom   58 type  1   force =     0.00045320    0.00040158   -0.00001738
     atom   59 type  3   force =     0.00071320    0.00022733   -0.00040924
     atom   60 type  3   force =     0.00002605   -0.00064429    0.00035802
     atom   61 type  3   force =    -0.00003608    0.00007000    0.00031073
     atom   62 type  3   force =     0.00001592   -0.00008116    0.00001120
     atom   63 type  4   force =    -0.00023207   -0.00025377    0.00027332
     atom   64 type  4   force =     0.00016128   -0.00049942    0.00025912
     atom   65 type  4   force =     0.00010506    0.00041785    0.00030400
     atom   66 type  4   force =    -0.00011753    0.00000349   -0.00010311
     atom   67 type  4   force =     0.00007483   -0.00003296    0.00131000
     atom   68 type  4   force =    -0.00012866    0.00052516   -0.00012656
     atom   69 type  4   force =     0.00029916   -0.00078377   -0.00082975
     atom   70 type  4   force =     0.00035245   -0.00038793    0.00083414
     atom   71 type  4   force =    -0.00000638   -0.00006657    0.00027435
     atom   72 type  4   force =     0.00003138    0.00015959   -0.00038405
     atom   73 type  4   force =    -0.00016560    0.00009997   -0.00041114
     atom   74 type  4   force =     0.00023134    0.00005878    0.00019256
     atom   75 type  4   force =     0.00006990    0.00018898    0.00022930
     atom   76 type  4   force =    -0.00013000    0.00022589    0.00051888
     atom   77 type  4   force =    -0.00025271   -0.00000535    0.00052638
     atom   78 type  4   force =    -0.00005481   -0.00054885   -0.00030158
     atom   79 type  1   force =     0.02500585   -0.03088771    0.01850494
     atom   80 type  2   force =    -0.01372485   -0.00162888   -0.00989845
     atom   81 type  1   force =    -0.02305760   -0.01831533    0.01993278
     atom   82 type  1   force =     0.00572274    0.00420145   -0.00638877
     atom   83 type  1   force =    -0.00191134    0.00110028   -0.00512366
     atom   84 type  1   force =     0.00207106    0.00773105   -0.00887154
     atom   85 type  3   force =    -0.00770464    0.00120158   -0.01040851
     atom   86 type  3   force =    -0.03501242    0.05414674   -0.08325076
     atom   87 type  3   force =     0.03415112    0.03817689   -0.06425647
     atom   88 type  3   force =    -0.00304138   -0.00246476   -0.01162360
     atom   89 type  4   force =     0.00688452    0.00564762    0.01413067
     atom   90 type  4   force =    -0.00007716   -0.00294561    0.01472873
     atom   91 type  4   force =     0.00197480    0.00161744    0.01728834
     atom   92 type  4   force =    -0.00041069   -0.00118529    0.01293349
     atom   93 type  4   force =    -0.00059989    0.00485452   -0.00199065
     atom   94 type  4   force =    -0.00044209    0.00250952    0.04035397
     atom   95 type  4   force =     0.00179422    0.00803987    0.03800631
     atom   96 type  4   force =     0.00768464   -0.00439432   -0.00060775
     atom   97 type  4   force =     0.00043333    0.01175432    0.00418579
     atom   98 type  4   force =    -0.00964014   -0.02646950   -0.00357366
     atom   99 type  4   force =    -0.01092089   -0.00041105    0.00088169
     atom  100 type  4   force =    -0.03195032    0.00301487    0.00781139
     atom  101 type  4   force =     0.03188684    0.00060072    0.01418499
     atom  102 type  4   force =     0.00693004   -0.03680128    0.00388707
     atom  103 type  4   force =    -0.00296063    0.00149531    0.00393393
     atom  104 type  4   force =     0.01771288   -0.00688743    0.00080594
     atom  105 type  1   force =    -0.00532061   -0.00886776    0.00263054
     atom  106 type  2   force =    -0.01341944    0.00012569    0.00411894
     atom  107 type  1   force =     0.00301890   -0.00494476   -0.00144138
     atom  108 type  1   force =     0.00269874    0.00373754   -0.00151989
     atom  109 type  1   force =     0.00138843   -0.00475353   -0.00010479
     atom  110 type  1   force =    -0.00100521    0.00139170   -0.00193608
     atom  111 type  3   force =    -0.00683477   -0.00341482   -0.00081776
     atom  112 type  3   force =    -0.00810549    0.00270003   -0.00015569
     atom  113 type  3   force =     0.00442688   -0.00068480    0.00271139
     atom  114 type  3   force =     0.00060768    0.00039702   -0.00506745
     atom  115 type  4   force =     0.00881458    0.00539915    0.00721484
     atom  116 type  4   force =     0.00387742   -0.00101657   -0.01953885
     atom  117 type  4   force =    -0.00136908    0.00364701   -0.00981646
     atom  118 type  4   force =    -0.00131011   -0.00279844    0.00964973
     atom  119 type  4   force =    -0.00313162    0.00393422   -0.00712277
     atom  120 type  4   force =    -0.00404595   -0.00471941    0.01807035
     atom  121 type  4   force =     0.00763067    0.00328424    0.00798569
     atom  122 type  4   force =     0.01024475   -0.00588622   -0.00589461
     atom  123 type  4   force =     0.00300229    0.00349671   -0.00031421
     atom  124 type  4   force =     0.00220448    0.00007881   -0.00553770
     atom  125 type  4   force =    -0.01264319   -0.00086606   -0.00335659
     atom  126 type  4   force =    -0.01458157    0.00127775    0.00345090
     atom  127 type  4   force =     0.01333580    0.00243721    0.00451860
     atom  128 type  4   force =    -0.00277752   -0.00482928   -0.00040921
     atom  129 type  4   force =    -0.00560595    0.00205946   -0.00001254
     atom  130 type  4   force =     0.01566402   -0.00364323   -0.00445327
     atom  131 type  1   force =     0.00023776    0.00009241    0.00029051
     atom  132 type  2   force =    -0.00095820   -0.00001441   -0.00008374
     atom  133 type  1   force =    -0.00010215    0.00013207    0.00004229
     atom  134 type  1   force =    -0.00040788   -0.00057126   -0.00057671
     atom  135 type  1   force =     0.00024022   -0.00074270    0.00019165
     atom  136 type  1   force =     0.00046471    0.00014876    0.00004741
     atom  137 type  3   force =    -0.00023918    0.00049342   -0.00012618
     atom  138 type  3   force =    -0.00009450   -0.00026843    0.00046734
     atom  139 type  3   force =     0.00034770   -0.00009353    0.00011994
     atom  140 type  3   force =    -0.00012846   -0.00023200   -0.00028453
     atom  141 type  4   force =     0.00017855    0.00045543   -0.00003086
     atom  142 type  4   force =    -0.00014060    0.00011871    0.00031673
     atom  143 type  4   force =     0.00054812   -0.00006991    0.00015667
     atom  144 type  4   force =    -0.00003200    0.00002029   -0.00041734
     atom  145 type  4   force =     0.00037900   -0.00011463    0.00064561
     atom  146 type  4   force =     0.00001603    0.00024953    0.00036696
     atom  147 type  4   force =    -0.00043706   -0.00041976   -0.00029599
     atom  148 type  4   force =     0.00053728   -0.00016602    0.00067185
     atom  149 type  4   force =    -0.00025888   -0.00026941    0.00036499
     atom  150 type  4   force =     0.00009095   -0.00045203    0.00011819
     atom  151 type  4   force =    -0.00022937   -0.00011965   -0.00002679
     atom  152 type  4   force =     0.00035504   -0.00011265   -0.00009575
     atom  153 type  4   force =     0.00003462    0.00027835   -0.00022325
     atom  154 type  4   force =     0.00040792   -0.00010383   -0.00007688
     atom  155 type  4   force =    -0.00006922    0.00020820   -0.00012016
     atom  156 type  4   force =     0.00014954    0.00012574    0.00001518
     atom  157 type  4   force =    -0.00615318    0.00391849    0.00155067
     atom  158 type  5   force =     0.00665350   -0.00455463   -0.00043229

     Total force =     0.262803     Total SCF correction =     0.004945
 
     init_run     :      8.42s CPU      9.24s WALL (       1 calls)
     electrons    :    971.29s CPU   1022.18s WALL (       1 calls)
     forces       :      4.42s CPU      4.90s WALL (       1 calls)
     force_london :      0.11s CPU      0.11s WALL (       1 calls)

     Called by init_run:
     wfcinit      :      4.82s CPU      5.01s WALL (       1 calls)
     potinit      :      0.48s CPU      0.69s WALL (       1 calls)
     hinit0       :      1.63s CPU      1.76s WALL (       1 calls)

     Called by electrons:
     c_bands      :    776.04s CPU    804.34s WALL (      63 calls)
     sum_band     :    123.37s CPU    135.11s WALL (      63 calls)
     v_of_rho     :     16.79s CPU     17.99s WALL (      64 calls)
     newd         :     36.11s CPU     45.87s WALL (      64 calls)
     mix_rho      :     18.20s CPU     18.34s WALL (      63 calls)
     energy_londo :      0.11s CPU      0.11s WALL (       1 calls)

     Called by c_bands:
     init_us_2    :      2.48s CPU      2.53s WALL (     256 calls)
     init_us_2:cp :      2.48s CPU      2.53s WALL (     256 calls)
     regterg      :    758.82s CPU    786.82s WALL (     130 calls)

     Called by *egterg:
     rdiaghg      :    224.47s CPU    238.97s WALL (     597 calls)
     h_psi        :    290.78s CPU    296.74s WALL (     599 calls)
     s_psi        :     58.34s CPU     58.40s WALL (     599 calls)
     g_psi        :      0.43s CPU      0.44s WALL (     467 calls)

     Called by h_psi:
     h_psi:calbec :     71.20s CPU     75.63s WALL (     599 calls)
     vloc_psi     :    160.83s CPU    161.74s WALL (     599 calls)
     add_vuspsi   :     57.96s CPU     58.56s WALL (     599 calls)

     General routines
     calbec       :    104.97s CPU    111.61s WALL (     733 calls)
     fft          :     12.41s CPU     14.08s WALL (    1165 calls)
     ffts         :     11.04s CPU     11.09s WALL (    7817 calls)
     fftw         :    178.00s CPU    178.95s WALL (  218838 calls)
     interpolate  :      1.25s CPU      1.37s WALL (     128 calls)
 
     Parallel routines
 
     PWSCF        :  16m26.17s CPU  17m18.75s WALL

 
   This run was terminated on:   0:40:54  18Nov2025            

=------------------------------------------------------------------------------=
   JOB DONE.
=------------------------------------------------------------------------------=
