
     Program PWSCF v.7.2 starts on 17Nov2025 at 22:41: 3 

     This program is part of the open-source Quantum ESPRESSO suite
     for quantum simulation of materials; please cite
         "P. Giannozzi et al., J. Phys.:Condens. Matter 21 395502 (2009);
         "P. Giannozzi et al., J. Phys.:Condens. Matter 29 465901 (2017);
         "P. Giannozzi et al., J. Chem. Phys. 152 154105 (2020);
          URL http://www.quantum-espresso.org", 
     in publications or presentations arising from this work. More details at
     http://www.quantum-espresso.org/quote

     Parallel version (MPI), running on    64 processors

     MPI processes distributed on     4 nodes
     343559 MiB available memory on the printing compute node when the environment starts
 
     Reading input from PWINPUT_atm157_zp

     Current dimensions of program PWSCF are:
     Max number of different atomic species (ntypx) = 10
     Max number of k-points (npk) =  40000
     Max angular momentum in pseudopotentials (lmaxx) =  4
     Presently no symmetry can be used with electric field

     file Ni.pbe-n-rrkjus_psl.1.0.0.UPF: wavefunction(s)  3D renormalized
     file Mn.pbe-spn-rrkjus_psl.0.3.1.UPF: wavefunction(s)  3D renormalized
     file O.pbe-rrkjus.UPF: wavefunction(s)  2S renormalized
     file H.pbe-rrkjus.UPF: wavefunction(s)  1S renormalized

     gamma-point specific algorithms are used
 
     R & G space division:  proc/nbgrp/npool/nimage =      64
     Subspace diagonalization in iterative solution of the eigenvalue problem:
     one sub-group per band group will be used
     custom distributed-memory algorithm (size of sub-group:  7*  7 procs)

 
     Parallelization info
     --------------------
     sticks:   dense  smooth     PW     G-vecs:    dense   smooth      PW
     Min         207      82     20                60552    15302    1896
     Max         210      84     22                60574    15336    1950
     Sum       13325    5345   1333              3876045   980655  122653
 
     Using Slab Decomposition
 


     bravais-lattice index     =            0
     lattice parameter (alat)  =      17.4067  a.u.
     unit-cell volume          =   20529.8182 (a.u.)^3
     number of atoms/cell      =          158
     number of atomic types    =            5
     number of electrons       =      1093.00
     number of Kohn-Sham states=          656
     kinetic-energy cutoff     =      50.0000  Ry
     charge density cutoff     =     500.0000  Ry
     scf convergence threshold =      1.0E-06
     mixing beta               =       0.1000
     number of iterations used =            8  local-TF  mixing
     Exchange-correlation=  SLA  PW   PBE  PBE
                           (   1   4   3   4   0   0   0)

     celldm(1)=  17.406729  celldm(2)=   0.000000  celldm(3)=   0.000000
     celldm(4)=   0.000000  celldm(5)=   0.000000  celldm(6)=   0.000000

     crystal axes: (cart. coord. in units of alat)
               a(1) = (   1.000000   0.000000   0.000000 )  
               a(2) = (  -0.001404   1.105696   0.000000 )  
               a(3) = (   0.000000   0.000000   3.520448 )  

     reciprocal axes: (cart. coord. in units 2 pi/alat)
               b(1) = (  1.000000  0.001270  0.000000 )  
               b(2) = (  0.000000  0.904408  0.000000 )  
               b(3) = (  0.000000  0.000000  0.284055 )  


     PseudoPot. # 1 for Ni read from file:
     ~/PSEUDO/Ni.pbe-n-rrkjus_psl.1.0.0.UPF
     MD5 check sum: Not computed, couldn't open file
     Pseudo is Ultrasoft + core correction, Zval = 10.0
     Generated using "atomic" code by A. Dal Corso  v.5.1.2
     Using radial grid of 1195 points,  6 beta functions with: 
                l(1) =   0
                l(2) =   0
                l(3) =   1
                l(4) =   1
                l(5) =   2
                l(6) =   2
     Q(r) pseudized with 0 coefficients 


     PseudoPot. # 2 for Mn read from file:
     ~/PSEUDO/Mn.pbe-spn-rrkjus_psl.0.3.1.UPF
     MD5 check sum: Not computed, couldn't open file
     Pseudo is Ultrasoft + core correction, Zval = 15.0
     Generated using &quot;atomic&quot; code by A. Dal Corso  v.6.2.2
     Using radial grid of 1187 points,  6 beta functions with: 
                l(1) =   0
                l(2) =   0
                l(3) =   1
                l(4) =   1
                l(5) =   2
                l(6) =   2
     Q(r) pseudized with 0 coefficients 


     PseudoPot. # 3 for P  read from file:
     ~/PSEUDO/P.pbe-n-rrkjus_psl.1.0.0.UPF
     MD5 check sum: Not computed, couldn't open file
     Pseudo is Ultrasoft + core correction, Zval =  5.0
     Generated using "atomic" code by A. Dal Corso  v.5.1
     Using radial grid of 1147 points,  6 beta functions with: 
                l(1) =   0
                l(2) =   0
                l(3) =   1
                l(4) =   1
                l(5) =   2
                l(6) =   2
     Q(r) pseudized with 0 coefficients 


     PseudoPot. # 4 for O  read from file:
     ~/PSEUDO/O.pbe-rrkjus.UPF
     MD5 check sum: Not computed, couldn't open file
     Pseudo is Ultrasoft, Zval =  6.0
     Generated by new atomic code, or converted to UPF format
     Using radial grid of 1269 points,  4 beta functions with: 
                l(1) =   0
                l(2) =   0
                l(3) =   1
                l(4) =   1
     Q(r) pseudized with 0 coefficients 


     PseudoPot. # 5 for H  read from file:
     ~/PSEUDO/H.pbe-rrkjus.UPF
     MD5 check sum: Not computed, couldn't open file
     Pseudo is Ultrasoft, Zval =  1.0
     Generated by new atomic code, or converted to UPF format
     Using radial grid of 1061 points,  2 beta functions with: 
                l(1) =   0
                l(2) =   0
     Q(r) pseudized with 0 coefficients 


     atomic species   valence    mass     pseudopotential
     Ni               10.00    58.69300     Ni( 1.00)
     Mn               15.00    54.93800     Mn( 1.00)
     P                 5.00    30.97300     P ( 1.00)
     O                 6.00    15.99900     O ( 1.00)
     H                 1.00     1.00790     H ( 1.00)

     Starting magnetic structure 
     atomic species   magnetization
     Ni              1.000
     Mn              1.000
     P               1.000
     O               1.000
     H               0.000

     No symmetry found



   Cartesian axes

     site n.     atom                  positions (alat units)
         1        Ni     tau(   1) = (   0.2421002   0.8609138   0.1302181  )
         2        Mn     tau(   2) = (   0.4924481   0.7886602   0.4655392  )
         3        Ni     tau(   3) = (   0.0052341   0.3031820   0.1284544  )
         4        Ni     tau(   4) = (   0.2570603   0.2374878   0.4617901  )
         5        Ni     tau(   5) = (   0.4976584   1.1048203   0.2964410  )
         6        Ni     tau(   6) = (   0.2495781   0.5440308   0.2953805  )
         7        P      tau(   7) = (   0.2083492   0.9982113   0.4588145  )
         8        P      tau(   8) = (   0.4584476   0.6559264   0.1347090  )
         9        P      tau(   9) = (   0.2889394   0.1031966   0.1319347  )
        10        P      tau(  10) = (   0.0400379   0.4338094   0.4586283  )
        11        O      tau(  11) = (   0.1314218   0.9248062   0.3189972  )
        12        O      tau(  12) = (   0.3797244   0.7272031   0.2742874  )
        13        O      tau(  13) = (   0.3662315   0.1762062   0.2720888  )
        14        O      tau(  14) = (   0.1171240   0.3646150   0.3169340  )
        15        O      tau(  15) = (   0.1510364   0.9068326   0.5881934  )
        16        O      tau(  16) = (   0.3981989   0.7453439   0.0053495  )
        17        O      tau(  17) = (   0.3490561   0.1888693   0.0010856  )
        18        O      tau(  18) = (   0.0982395   0.3475583   0.5894443  )
        19        O      tau(  19) = (   0.0992163   0.5918099   0.4542505  )
        20        O      tau(  20) = (   0.3467441   1.0504690   0.1405000  )
        21        O      tau(  21) = (   0.3739183   0.4303319   0.4477971  )
        22        O      tau(  22) = (   0.1230967   0.1088895   0.1422960  )
        23        O      tau(  23) = (   0.1242901   0.6635968   0.1442928  )
        24        O      tau(  24) = (   0.4011802   0.4971632   0.1376281  )
        25        O      tau(  25) = (   0.1484006   0.0497464   0.4550965  )
        26        O      tau(  26) = (   0.3736100   0.9942556   0.4492158  )
        27        Ni     tau(  27) = (   0.2413539   0.8509941   0.7820408  )
        28        Mn     tau(  28) = (   0.4917018   0.7787406   1.1173619  )
        29        Ni     tau(  29) = (   0.0044877   0.2932623   0.7802771  )
        30        Ni     tau(  30) = (   0.2563139   0.2275682   1.1136128  )
        31        Ni     tau(  31) = (   0.4969120   1.0949007   0.9482637  )
        32        Ni     tau(  32) = (   0.2488318   0.5341111   0.9472032  )
        33        P      tau(  33) = (   0.2076029   0.9882917   1.1106372  )
        34        P      tau(  34) = (   0.4577012   0.6460068   0.7865316  )
        35        P      tau(  35) = (   0.2881931   0.0932770   0.7837574  )
        36        P      tau(  36) = (   0.0392916   0.4238898   1.1104509  )
        37        O      tau(  37) = (   0.1306755   0.9148866   0.9708199  )
        38        O      tau(  38) = (   0.3789780   0.7172835   0.9261101  )
        39        O      tau(  39) = (   0.3654852   0.1662865   0.9239115  )
        40        O      tau(  40) = (   0.1163776   0.3546954   0.9687567  )
        41        O      tau(  41) = (   0.1502901   0.8969129   1.2400160  )
        42        O      tau(  42) = (   0.3974525   0.7354243   0.6571722  )
        43        O      tau(  43) = (   0.3483097   0.1789497   0.6529083  )
        44        O      tau(  44) = (   0.0974932   0.3376387   1.2412670  )
        45        O      tau(  45) = (   0.0984699   0.5818903   1.1060732  )
        46        O      tau(  46) = (   0.3459978   1.0405493   0.7923226  )
        47        O      tau(  47) = (   0.3731719   0.4204123   1.0996198  )
        48        O      tau(  48) = (   0.1223503   0.0989699   0.7941187  )
        49        O      tau(  49) = (   0.1235438   0.6536772   0.7961155  )
        50        O      tau(  50) = (   0.4004339   0.4872435   0.7894508  )
        51        O      tau(  51) = (   0.1476543   0.0398268   1.1069192  )
        52        O      tau(  52) = (   0.3728637   0.9843360   1.1010385  )
        53        Ni     tau(  53) = (   0.2405000   0.8314791   1.4310848  )
        54        Mn     tau(  54) = (   0.4953493   0.7643247   1.7724492  )
        55        Ni     tau(  55) = (   0.0038518   0.2756365   1.4285360  )
        56        Ni     tau(  56) = (   0.2471345   0.2153113   1.7400474  )
        57        Ni     tau(  57) = (   0.4995752   1.0720933   1.5947286  )
        58        Ni     tau(  58) = (   0.2421013   0.5219868   1.5980514  )
        59        P      tau(  59) = (   0.2104375   0.9681194   1.7574697  )
        60        P      tau(  60) = (   0.4534410   0.6275485   1.4348057  )
        61        P      tau(  61) = (   0.2894259   0.0743283   1.4290817  )
        62        P      tau(  62) = (   0.0298192   0.4013010   1.7598256  )
        63        O      tau(  63) = (   0.1358441   0.9005122   1.6129847  )
        64        O      tau(  64) = (   0.3771008   0.7024676   1.5717788  )
        65        O      tau(  65) = (   0.3674645   0.1471109   1.5680584  )
        66        O      tau(  66) = (   0.1092283   0.3457090   1.6100373  )
        67        O      tau(  67) = (   0.1496755   0.8741583   1.8808047  )
        68        O      tau(  68) = (   0.3923953   0.7169116   1.3059963  )
        69        O      tau(  69) = (   0.3499475   0.1644431   1.3009773  )
        70        O      tau(  70) = (   0.0894679   0.3000020   1.8751501  )
        71        O      tau(  71) = (   0.0835747   0.5628016   1.7646462  )
        72        O      tau(  72) = (   0.3492253   1.0223474   1.4345599  )
        73        O      tau(  73) = (   0.3642103   0.4027294   1.7423561  )
        74        O      tau(  74) = (   0.1229734   0.0811149   1.4416195  )
        75        O      tau(  75) = (   0.1204474   0.6369096   1.4465931  )
        76        O      tau(  76) = (   0.3946534   0.4694481   1.4371785  )
        77        O      tau(  77) = (   0.1552554   0.0214678   1.7549498  )
        78        O      tau(  78) = (   0.3781421   0.9602342   1.7485231  )
        79        Ni     tau(  79) = (   0.7421002   0.8609138   0.1302181  )
        80        Mn     tau(  80) = (   0.9924481   0.7886602   0.4655392  )
        81        Ni     tau(  81) = (   0.5052341   0.3031820   0.1284544  )
        82        Ni     tau(  82) = (   0.7570603   0.2374878   0.4617901  )
        83        Ni     tau(  83) = (   0.9976584   1.1048203   0.2964410  )
        84        Ni     tau(  84) = (   0.7495781   0.5440308   0.2953805  )
        85        P      tau(  85) = (   0.7083492   0.9982113   0.4588145  )
        86        P      tau(  86) = (   0.9584476   0.6559264   0.1347090  )
        87        P      tau(  87) = (   0.7889394   0.1031966   0.1319347  )
        88        P      tau(  88) = (   0.5400379   0.4338094   0.4586283  )
        89        O      tau(  89) = (   0.6314218   0.9248062   0.3189972  )
        90        O      tau(  90) = (   0.8797244   0.7272031   0.2742874  )
        91        O      tau(  91) = (   0.8662315   0.1762062   0.2720888  )
        92        O      tau(  92) = (   0.6171240   0.3646150   0.3169340  )
        93        O      tau(  93) = (   0.6510364   0.9068326   0.5881934  )
        94        O      tau(  94) = (   0.8981989   0.7453439   0.0053495  )
        95        O      tau(  95) = (   0.8490561   0.1888693   0.0010856  )
        96        O      tau(  96) = (   0.5982395   0.3475583   0.5894443  )
        97        O      tau(  97) = (   0.5992163   0.5918099   0.4542505  )
        98        O      tau(  98) = (   0.8467441   1.0504690   0.1405000  )
        99        O      tau(  99) = (   0.8739183   0.4303319   0.4477971  )
       100        O      tau( 100) = (   0.6230967   0.1088895   0.1422960  )
       101        O      tau( 101) = (   0.6242901   0.6635968   0.1442928  )
       102        O      tau( 102) = (   0.9011802   0.4971632   0.1376281  )
       103        O      tau( 103) = (   0.6484006   0.0497464   0.4550965  )
       104        O      tau( 104) = (   0.8736100   0.9942556   0.4492158  )
       105        Ni     tau( 105) = (   0.7413539   0.8509941   0.7820408  )
       106        Mn     tau( 106) = (   0.9917018   0.7787406   1.1173619  )
       107        Ni     tau( 107) = (   0.5044877   0.2932623   0.7802771  )
       108        Ni     tau( 108) = (   0.7563139   0.2275682   1.1136128  )
       109        Ni     tau( 109) = (   0.9969120   1.0949007   0.9482637  )
       110        Ni     tau( 110) = (   0.7488318   0.5341111   0.9472032  )
       111        P      tau( 111) = (   0.7076029   0.9882917   1.1106372  )
       112        P      tau( 112) = (   0.9577012   0.6460068   0.7865316  )
       113        P      tau( 113) = (   0.7881931   0.0932770   0.7837574  )
       114        P      tau( 114) = (   0.5392916   0.4238898   1.1104509  )
       115        O      tau( 115) = (   0.6306755   0.9148866   0.9708199  )
       116        O      tau( 116) = (   0.8789780   0.7172835   0.9261101  )
       117        O      tau( 117) = (   0.8654852   0.1662865   0.9239115  )
       118        O      tau( 118) = (   0.6163776   0.3546954   0.9687567  )
       119        O      tau( 119) = (   0.6502901   0.8969129   1.2400160  )
       120        O      tau( 120) = (   0.8974525   0.7354243   0.6571722  )
       121        O      tau( 121) = (   0.8483097   0.1789497   0.6529083  )
       122        O      tau( 122) = (   0.5974932   0.3376387   1.2412670  )
       123        O      tau( 123) = (   0.5984699   0.5818903   1.1060732  )
       124        O      tau( 124) = (   0.8459978   1.0405493   0.7923226  )
       125        O      tau( 125) = (   0.8731719   0.4204123   1.0996198  )
       126        O      tau( 126) = (   0.6223503   0.0989699   0.7941187  )
       127        O      tau( 127) = (   0.6235438   0.6536772   0.7961155  )
       128        O      tau( 128) = (   0.9004339   0.4872435   0.7894508  )
       129        O      tau( 129) = (   0.6476543   0.0398268   1.1069192  )
       130        O      tau( 130) = (   0.8728637   0.9843360   1.1010385  )
       131        Ni     tau( 131) = (   0.7369169   0.8303788   1.4329327  )
       132        Mn     tau( 132) = (   0.9924005   0.7622218   1.7630345  )
       133        Ni     tau( 133) = (   0.5034179   0.2756585   1.4286710  )
       134        Ni     tau( 134) = (   0.7445338   0.2135857   1.7404923  )
       135        Ni     tau( 135) = (   0.9992947   1.0745006   1.5940287  )
       136        Ni     tau( 136) = (   0.7415282   0.5178646   1.5926001  )
       137        P      tau( 137) = (   0.7110408   0.9653555   1.7633289  )
       138        P      tau( 138) = (   0.9541428   0.6272498   1.4343540  )
       139        P      tau( 139) = (   0.7882006   0.0737553   1.4295411  )
       140        P      tau( 140) = (   0.5313065   0.4052692   1.7579671  )
       141        O      tau( 141) = (   0.6299655   0.8889021   1.6239329  )
       142        O      tau( 142) = (   0.8763186   0.7000804   1.5722760  )
       143        O      tau( 143) = (   0.8661823   0.1476707   1.5678971  )
       144        O      tau( 144) = (   0.6092775   0.3424902   1.6091934  )
       145        O      tau( 145) = (   0.6577452   0.8727635   1.8894301  )
       146        O      tau( 146) = (   0.8931487   0.7181693   1.3070025  )
       147        O      tau( 147) = (   0.8501811   0.1623852   1.3009768  )
       148        O      tau( 148) = (   0.5909310   0.3060790   1.8752837  )
       149        O      tau( 149) = (   0.5915698   0.5653327   1.7515015  )
       150        O      tau( 150) = (   0.8456292   1.0209939   1.4372118  )
       151        O      tau( 151) = (   0.8624603   0.3999669   1.7434469  )
       152        O      tau( 152) = (   0.6217882   0.0804133   1.4417608  )
       153        O      tau( 153) = (   0.6203335   0.6358635   1.4429875  )
       154        O      tau( 154) = (   0.8954317   0.4691053   1.4351315  )
       155        O      tau( 155) = (   0.6536438   0.0182650   1.7541421  )
       156        O      tau( 156) = (   0.8777501   0.9608304   1.7456676  )
       157        O      tau( 157) = (   0.3827920   0.6908925   1.9100454  )
       158        H      tau( 158) = (   0.2940038   0.7492246   1.9272249  )

     -------------------------------------------------
     Parameters for Dispersion (Grimme-D2) Correction:
     -------------------------------------------------
       atom      VdW radius       C_6     

        Ni         2.952        374.666
        Mn         2.952        374.666
        P          3.222        271.980
        O          2.536         24.284
        H          1.892          4.857

     number of k points=     1  Gaussian smearing, width (Ry)=  0.0100
                       cart. coord. in units 2pi/alat
        k(    1) = (   0.0000000   0.0000000   0.0000000), wk =   1.0000000

     Dense  grid:  1938023 G-vectors     FFT dimensions: ( 125, 144, 450)

     Smooth grid:   490328 G-vectors     FFT dimensions: (  80,  90, 288)

     Estimated max dynamical RAM per process >     326.29 MB

     Estimated total dynamical RAM >      20.39 GB

     Check: negative core charge=   -0.000001
     Generating pointlists ...
     new r_m :   0.0887 (alat units)  1.5440 (a.u.) for type    1
     new r_m :   0.0793 (alat units)  1.3810 (a.u.) for type    2
     new r_m :   0.0679 (alat units)  1.1824 (a.u.) for type    3
     new r_m :   0.0444 (alat units)  0.7727 (a.u.) for type    4
     new r_m :   0.0444 (alat units)  0.7727 (a.u.) for type    5

     Initial potential from superposition of free atoms

     starting charge    1092.8893, renormalised to    1093.0000

     negative rho (up, down):  1.402E-03 4.519E-04
 
     Adding external electric field

     Computed dipole along edir(3) : 
        Dipole                1.6269 Ry au,          4.1353 Debye
        Dipole field          0.0010 Ry au, 
 
        Potential amp.       -0.1098 Ry
        Total length         55.1515 bohr
 
 
     Adding external electric field

     Computed dipole along edir(3) : 
        Dipole                1.6269 Ry au,          4.1353 Debye
        Dipole field          0.0010 Ry au, 
 
        Potential amp.       -0.1098 Ry
        Total length         55.1515 bohr
 
     Starting wfcs are  815 randomized atomic wfcs

     total cpu time spent up to now is       12.9 secs

     Self-consistent Calculation

     iteration #  1     ecut=    50.00 Ry     beta= 0.10
     Davidson diagonalization with overlap
     ethr =  1.00E-02,  avg # of iterations =  6.0

     negative rho (up, down):  3.747E-01 3.755E-07
 
     Adding external electric field

     Computed dipole along edir(3) : 
        Dipole               -3.6134 Ry au,         -9.1844 Debye
        Dipole field         -0.0022 Ry au, 
 
        Potential amp.        0.2440 Ry
        Total length         55.1515 bohr
 
 
     Adding external electric field

     Computed dipole along edir(3) : 
        Dipole               -3.6134 Ry au,         -9.1844 Debye
        Dipole field         -0.0022 Ry au, 
 
        Potential amp.        0.2440 Ry
        Total length         55.1515 bohr
 

     total cpu time spent up to now is       46.7 secs

     total energy              =   -7517.15149076 Ry
     estimated scf accuracy    <     738.93400863 Ry

     total magnetization       =   219.00 Bohr mag/cell
     absolute magnetization    =   307.71 Bohr mag/cell

     iteration #  2     ecut=    50.00 Ry     beta= 0.10
     Davidson diagonalization with overlap
     ethr =  1.00E-02,  avg # of iterations =  2.0

     negative rho (up, down):  3.558E-01 1.767E-07
 
     Adding external electric field

     Computed dipole along edir(3) : 
        Dipole               -2.3860 Ry au,         -6.0645 Debye
        Dipole field         -0.0015 Ry au, 
 
        Potential amp.        0.1611 Ry
        Total length         55.1515 bohr
 
 
     Adding external electric field

     Computed dipole along edir(3) : 
        Dipole               -2.3860 Ry au,         -6.0645 Debye
        Dipole field         -0.0015 Ry au, 
 
        Potential amp.        0.1611 Ry
        Total length         55.1515 bohr
 

     total cpu time spent up to now is       66.2 secs

     total energy              =   -7600.44482969 Ry
     estimated scf accuracy    <     212.62575198 Ry

     total magnetization       =   158.76 Bohr mag/cell
     absolute magnetization    =   207.07 Bohr mag/cell

     iteration #  3     ecut=    50.00 Ry     beta= 0.10
     Davidson diagonalization with overlap
     ethr =  1.00E-02,  avg # of iterations =  1.5

     negative rho (up, down):  3.161E-01 1.383E-07
 
     Adding external electric field

     Computed dipole along edir(3) : 
        Dipole               -2.0654 Ry au,         -5.2498 Debye
        Dipole field         -0.0013 Ry au, 
 
        Potential amp.        0.1395 Ry
        Total length         55.1515 bohr
 
 
     Adding external electric field

     Computed dipole along edir(3) : 
        Dipole               -2.0654 Ry au,         -5.2498 Debye
        Dipole field         -0.0013 Ry au, 
 
        Potential amp.        0.1395 Ry
        Total length         55.1515 bohr
 

     total cpu time spent up to now is       82.1 secs

     total energy              =   -7630.64547077 Ry
     estimated scf accuracy    <     100.87366363 Ry

     total magnetization       =   135.30 Bohr mag/cell
     absolute magnetization    =   186.14 Bohr mag/cell

     iteration #  4     ecut=    50.00 Ry     beta= 0.10
     Davidson diagonalization with overlap
     ethr =  9.23E-03,  avg # of iterations =  1.5

     negative rho (up, down):  2.447E-01 3.562E-08
 
     Adding external electric field

     Computed dipole along edir(3) : 
        Dipole               -1.9910 Ry au,         -5.0606 Debye
        Dipole field         -0.0012 Ry au, 
 
        Potential amp.        0.1344 Ry
        Total length         55.1515 bohr
 
 
     Adding external electric field

     Computed dipole along edir(3) : 
        Dipole               -1.9910 Ry au,         -5.0606 Debye
        Dipole field         -0.0012 Ry au, 
 
        Potential amp.        0.1344 Ry
        Total length         55.1515 bohr
 

     total cpu time spent up to now is       98.0 secs

     total energy              =   -7663.75198911 Ry
     estimated scf accuracy    <      82.26722340 Ry

     total magnetization       =   119.50 Bohr mag/cell
     absolute magnetization    =   171.75 Bohr mag/cell

     iteration #  5     ecut=    50.00 Ry     beta= 0.10
     Davidson diagonalization with overlap
     ethr =  7.53E-03,  avg # of iterations =  1.0

     negative rho (up, down):  2.205E-02 2.133E-07
 
     Adding external electric field

     Computed dipole along edir(3) : 
        Dipole               -1.6178 Ry au,         -4.1120 Debye
        Dipole field         -0.0010 Ry au, 
 
        Potential amp.        0.1092 Ry
        Total length         55.1515 bohr
 
 
     Adding external electric field

     Computed dipole along edir(3) : 
        Dipole               -1.6178 Ry au,         -4.1120 Debye
        Dipole field         -0.0010 Ry au, 
 
        Potential amp.        0.1092 Ry
        Total length         55.1515 bohr
 

     total cpu time spent up to now is      112.9 secs

     total energy              =   -7723.97407014 Ry
     estimated scf accuracy    <      65.53599201 Ry

     total magnetization       =    97.20 Bohr mag/cell
     absolute magnetization    =   152.87 Bohr mag/cell

     iteration #  6     ecut=    50.00 Ry     beta= 0.10
     Davidson diagonalization with overlap
     ethr =  6.00E-03,  avg # of iterations =  1.0

     negative rho (up, down):  6.133E-04 1.229E-03
 
     Adding external electric field

     Computed dipole along edir(3) : 
        Dipole               -1.3184 Ry au,         -3.3510 Debye
        Dipole field         -0.0008 Ry au, 
 
        Potential amp.        0.0890 Ry
        Total length         55.1515 bohr
 
 
     Adding external electric field

     Computed dipole along edir(3) : 
        Dipole               -1.3184 Ry au,         -3.3510 Debye
        Dipole field         -0.0008 Ry au, 
 
        Potential amp.        0.0890 Ry
        Total length         55.1515 bohr
 

     total cpu time spent up to now is      128.0 secs

     total energy              =   -7735.76025488 Ry
     estimated scf accuracy    <      13.20161458 Ry

     total magnetization       =    91.00 Bohr mag/cell
     absolute magnetization    =   124.45 Bohr mag/cell

     iteration #  7     ecut=    50.00 Ry     beta= 0.10
     Davidson diagonalization with overlap
     ethr =  1.21E-03,  avg # of iterations =  8.5

     negative rho (up, down):  5.817E-04 1.133E-03
 
     Adding external electric field

     Computed dipole along edir(3) : 
        Dipole               -1.2925 Ry au,         -3.2853 Debye
        Dipole field         -0.0008 Ry au, 
 
        Potential amp.        0.0873 Ry
        Total length         55.1515 bohr
 
 
     Adding external electric field

     Computed dipole along edir(3) : 
        Dipole               -1.2925 Ry au,         -3.2853 Debye
        Dipole field         -0.0008 Ry au, 
 
        Potential amp.        0.0873 Ry
        Total length         55.1515 bohr
 

     total cpu time spent up to now is      157.1 secs

     total energy              =   -7738.49954104 Ry
     estimated scf accuracy    <      38.53393501 Ry

     total magnetization       =    65.05 Bohr mag/cell
     absolute magnetization    =    82.72 Bohr mag/cell

     iteration #  8     ecut=    50.00 Ry     beta= 0.10
     Davidson diagonalization with overlap
     ethr =  1.21E-03,  avg # of iterations =  1.0

     negative rho (up, down):  4.783E-04 8.623E-04
 
     Adding external electric field

     Computed dipole along edir(3) : 
        Dipole               -1.2016 Ry au,         -3.0542 Debye
        Dipole field         -0.0007 Ry au, 
 
        Potential amp.        0.0811 Ry
        Total length         55.1515 bohr
 
 
     Adding external electric field

     Computed dipole along edir(3) : 
        Dipole               -1.2016 Ry au,         -3.0542 Debye
        Dipole field         -0.0007 Ry au, 
 
        Potential amp.        0.0811 Ry
        Total length         55.1515 bohr
 

     total cpu time spent up to now is      171.4 secs

     total energy              =   -7738.37480558 Ry
     estimated scf accuracy    <      34.91470798 Ry

     total magnetization       =    66.17 Bohr mag/cell
     absolute magnetization    =    83.39 Bohr mag/cell

     iteration #  9     ecut=    50.00 Ry     beta= 0.10
     Davidson diagonalization with overlap
     ethr =  1.21E-03,  avg # of iterations =  1.0

     negative rho (up, down):  4.464E-04 8.138E-04
 
     Adding external electric field

     Computed dipole along edir(3) : 
        Dipole               -1.1787 Ry au,         -2.9959 Debye
        Dipole field         -0.0007 Ry au, 
 
        Potential amp.        0.0796 Ry
        Total length         55.1515 bohr
 
 
     Adding external electric field

     Computed dipole along edir(3) : 
        Dipole               -1.1787 Ry au,         -2.9959 Debye
        Dipole field         -0.0007 Ry au, 
 
        Potential amp.        0.0796 Ry
        Total length         55.1515 bohr
 

     total cpu time spent up to now is      185.2 secs

     total energy              =   -7738.37085644 Ry
     estimated scf accuracy    <      26.00044064 Ry

     total magnetization       =    68.35 Bohr mag/cell
     absolute magnetization    =    84.62 Bohr mag/cell

     iteration # 10     ecut=    50.00 Ry     beta= 0.10
     Davidson diagonalization with overlap
     ethr =  1.21E-03,  avg # of iterations =  1.0

     negative rho (up, down):  3.614E-04 7.808E-04
 
     Adding external electric field

     Computed dipole along edir(3) : 
        Dipole               -1.1099 Ry au,         -2.8210 Debye
        Dipole field         -0.0007 Ry au, 
 
        Potential amp.        0.0749 Ry
        Total length         55.1515 bohr
 
 
     Adding external electric field

     Computed dipole along edir(3) : 
        Dipole               -1.1099 Ry au,         -2.8210 Debye
        Dipole field         -0.0007 Ry au, 
 
        Potential amp.        0.0749 Ry
        Total length         55.1515 bohr
 

     total cpu time spent up to now is      199.3 secs

     total energy              =   -7738.15634819 Ry
     estimated scf accuracy    <      24.50119228 Ry

     total magnetization       =    68.64 Bohr mag/cell
     absolute magnetization    =    84.50 Bohr mag/cell

     iteration # 11     ecut=    50.00 Ry     beta= 0.10
     Davidson diagonalization with overlap
     ethr =  1.21E-03,  avg # of iterations =  1.0

     negative rho (up, down):  2.987E-04 8.109E-04
 
     Adding external electric field

     Computed dipole along edir(3) : 
        Dipole               -1.0441 Ry au,         -2.6537 Debye
        Dipole field         -0.0006 Ry au, 
 
        Potential amp.        0.0705 Ry
        Total length         55.1515 bohr
 
 
     Adding external electric field

     Computed dipole along edir(3) : 
        Dipole               -1.0441 Ry au,         -2.6537 Debye
        Dipole field         -0.0006 Ry au, 
 
        Potential amp.        0.0705 Ry
        Total length         55.1515 bohr
 

     total cpu time spent up to now is      213.0 secs

     total energy              =   -7738.03479179 Ry
     estimated scf accuracy    <      19.34234207 Ry

     total magnetization       =    69.70 Bohr mag/cell
     absolute magnetization    =    84.15 Bohr mag/cell

     iteration # 12     ecut=    50.00 Ry     beta= 0.10
     Davidson diagonalization with overlap
     ethr =  1.21E-03,  avg # of iterations =  1.0

     negative rho (up, down):  2.034E-04 5.478E-04
 
     Adding external electric field

     Computed dipole along edir(3) : 
        Dipole               -0.9872 Ry au,         -2.5092 Debye
        Dipole field         -0.0006 Ry au, 
 
        Potential amp.        0.0667 Ry
        Total length         55.1515 bohr
 
 
     Adding external electric field

     Computed dipole along edir(3) : 
        Dipole               -0.9872 Ry au,         -2.5092 Debye
        Dipole field         -0.0006 Ry au, 
 
        Potential amp.        0.0667 Ry
        Total length         55.1515 bohr
 

     total cpu time spent up to now is      226.8 secs

     total energy              =   -7738.01029052 Ry
     estimated scf accuracy    <      12.40568196 Ry

     total magnetization       =    72.97 Bohr mag/cell
     absolute magnetization    =    85.86 Bohr mag/cell

     iteration # 13     ecut=    50.00 Ry     beta= 0.10
     Davidson diagonalization with overlap
     ethr =  1.14E-03,  avg # of iterations =  1.0

     negative rho (up, down):  1.134E-04 7.676E-04
 
     Adding external electric field

     Computed dipole along edir(3) : 
        Dipole               -0.7370 Ry au,         -1.8732 Debye
        Dipole field         -0.0005 Ry au, 
 
        Potential amp.        0.0498 Ry
        Total length         55.1515 bohr
 
 
     Adding external electric field

     Computed dipole along edir(3) : 
        Dipole               -0.7370 Ry au,         -1.8732 Debye
        Dipole field         -0.0005 Ry au, 
 
        Potential amp.        0.0498 Ry
        Total length         55.1515 bohr
 

     total cpu time spent up to now is      240.8 secs

     total energy              =   -7737.74663513 Ry
     estimated scf accuracy    <       9.33916278 Ry

     total magnetization       =    74.61 Bohr mag/cell
     absolute magnetization    =    86.77 Bohr mag/cell

     iteration # 14     ecut=    50.00 Ry     beta= 0.10
     Davidson diagonalization with overlap
     ethr =  8.54E-04,  avg # of iterations =  1.0

     negative rho (up, down):  7.610E-05 7.031E-04
 
     Adding external electric field

     Computed dipole along edir(3) : 
        Dipole               -0.7117 Ry au,         -1.8090 Debye
        Dipole field         -0.0004 Ry au, 
 
        Potential amp.        0.0481 Ry
        Total length         55.1515 bohr
 
 
     Adding external electric field

     Computed dipole along edir(3) : 
        Dipole               -0.7117 Ry au,         -1.8090 Debye
        Dipole field         -0.0004 Ry au, 
 
        Potential amp.        0.0481 Ry
        Total length         55.1515 bohr
 

     total cpu time spent up to now is      254.2 secs

     total energy              =   -7738.09433269 Ry
     estimated scf accuracy    <       0.91256911 Ry

     total magnetization       =    88.47 Bohr mag/cell
     absolute magnetization    =    96.12 Bohr mag/cell

     iteration # 15     ecut=    50.00 Ry     beta= 0.10
     Davidson diagonalization with overlap
     ethr =  8.35E-05,  avg # of iterations = 12.0

     negative rho (up, down):  8.719E-06 1.017E-04
 
     Adding external electric field

     Computed dipole along edir(3) : 
        Dipole               -0.6464 Ry au,         -1.6430 Debye
        Dipole field         -0.0004 Ry au, 
 
        Potential amp.        0.0436 Ry
        Total length         55.1515 bohr
 
 
     Adding external electric field

     Computed dipole along edir(3) : 
        Dipole               -0.6464 Ry au,         -1.6430 Debye
        Dipole field         -0.0004 Ry au, 
 
        Potential amp.        0.0436 Ry
        Total length         55.1515 bohr
 

     total cpu time spent up to now is      282.4 secs

     total energy              =   -7738.07397598 Ry
     estimated scf accuracy    <       0.80357897 Ry

     total magnetization       =    88.32 Bohr mag/cell
     absolute magnetization    =    95.36 Bohr mag/cell

     iteration # 16     ecut=    50.00 Ry     beta= 0.10
     Davidson diagonalization with overlap
     ethr =  7.35E-05,  avg # of iterations =  2.0

     negative rho (up, down):  6.389E-06 5.610E-05
 
     Adding external electric field

     Computed dipole along edir(3) : 
        Dipole               -0.6434 Ry au,         -1.6353 Debye
        Dipole field         -0.0004 Ry au, 
 
        Potential amp.        0.0434 Ry
        Total length         55.1515 bohr
 
 
     Adding external electric field

     Computed dipole along edir(3) : 
        Dipole               -0.6434 Ry au,         -1.6353 Debye
        Dipole field         -0.0004 Ry au, 
 
        Potential amp.        0.0434 Ry
        Total length         55.1515 bohr
 

     total cpu time spent up to now is      298.5 secs

     total energy              =   -7738.15990908 Ry
     estimated scf accuracy    <       1.69544327 Ry

     total magnetization       =    81.81 Bohr mag/cell
     absolute magnetization    =    88.37 Bohr mag/cell

     iteration # 17     ecut=    50.00 Ry     beta= 0.10
     Davidson diagonalization with overlap
     ethr =  7.35E-05,  avg # of iterations =  1.5

     negative rho (up, down):  2.880E-06 2.088E-05
 
     Adding external electric field

     Computed dipole along edir(3) : 
        Dipole               -0.6094 Ry au,         -1.5489 Debye
        Dipole field         -0.0004 Ry au, 
 
        Potential amp.        0.0411 Ry
        Total length         55.1515 bohr
 
 
     Adding external electric field

     Computed dipole along edir(3) : 
        Dipole               -0.6094 Ry au,         -1.5489 Debye
        Dipole field         -0.0004 Ry au, 
 
        Potential amp.        0.0411 Ry
        Total length         55.1515 bohr
 

     total cpu time spent up to now is      313.5 secs

     total energy              =   -7738.20265311 Ry
     estimated scf accuracy    <       1.71821499 Ry

     total magnetization       =    81.52 Bohr mag/cell
     absolute magnetization    =    87.89 Bohr mag/cell

     iteration # 18     ecut=    50.00 Ry     beta= 0.10
     Davidson diagonalization with overlap
     ethr =  7.35E-05,  avg # of iterations =  2.0

     negative rho (up, down):  2.490E-06 3.014E-05
 
     Adding external electric field

     Computed dipole along edir(3) : 
        Dipole               -0.6059 Ry au,         -1.5400 Debye
        Dipole field         -0.0004 Ry au, 
 
        Potential amp.        0.0409 Ry
        Total length         55.1515 bohr
 
 
     Adding external electric field

     Computed dipole along edir(3) : 
        Dipole               -0.6059 Ry au,         -1.5400 Debye
        Dipole field         -0.0004 Ry au, 
 
        Potential amp.        0.0409 Ry
        Total length         55.1515 bohr
 

     total cpu time spent up to now is      329.2 secs

     total energy              =   -7738.22772940 Ry
     estimated scf accuracy    <       0.42332242 Ry

     total magnetization       =    84.75 Bohr mag/cell
     absolute magnetization    =    89.76 Bohr mag/cell

     iteration # 19     ecut=    50.00 Ry     beta= 0.10
     Davidson diagonalization with overlap
     ethr =  3.87E-05,  avg # of iterations =  2.0

     negative rho (up, down):  8.424E-06 1.529E-05
 
     Adding external electric field

     Computed dipole along edir(3) : 
        Dipole               -0.5138 Ry au,         -1.3060 Debye
        Dipole field         -0.0003 Ry au, 
 
        Potential amp.        0.0347 Ry
        Total length         55.1515 bohr
 
 
     Adding external electric field

     Computed dipole along edir(3) : 
        Dipole               -0.5138 Ry au,         -1.3060 Debye
        Dipole field         -0.0003 Ry au, 
 
        Potential amp.        0.0347 Ry
        Total length         55.1515 bohr
 

     total cpu time spent up to now is      345.4 secs

     total energy              =   -7738.33402133 Ry
     estimated scf accuracy    <       0.35844045 Ry

     total magnetization       =    88.13 Bohr mag/cell
     absolute magnetization    =    92.00 Bohr mag/cell

     iteration # 20     ecut=    50.00 Ry     beta= 0.10
     Davidson diagonalization with overlap
     ethr =  3.28E-05,  avg # of iterations = 12.5

     negative rho (up, down):  1.978E-05 2.757E-05
 
     Adding external electric field

     Computed dipole along edir(3) : 
        Dipole               -0.4972 Ry au,         -1.2638 Debye
        Dipole field         -0.0003 Ry au, 
 
        Potential amp.        0.0336 Ry
        Total length         55.1515 bohr
 
 
     Adding external electric field

     Computed dipole along edir(3) : 
        Dipole               -0.4972 Ry au,         -1.2638 Debye
        Dipole field         -0.0003 Ry au, 
 
        Potential amp.        0.0336 Ry
        Total length         55.1515 bohr
 

     total cpu time spent up to now is      374.2 secs

     total energy              =   -7738.35665595 Ry
     estimated scf accuracy    <       0.24388139 Ry

     total magnetization       =    87.81 Bohr mag/cell
     absolute magnetization    =    89.89 Bohr mag/cell

     iteration # 21     ecut=    50.00 Ry     beta= 0.10
     Davidson diagonalization with overlap
     ethr =  2.23E-05,  avg # of iterations =  2.0

     negative rho (up, down):  9.242E-07 1.792E-06
 
     Adding external electric field

     Computed dipole along edir(3) : 
        Dipole               -0.4886 Ry au,         -1.2418 Debye
        Dipole field         -0.0003 Ry au, 
 
        Potential amp.        0.0330 Ry
        Total length         55.1515 bohr
 
 
     Adding external electric field

     Computed dipole along edir(3) : 
        Dipole               -0.4886 Ry au,         -1.2418 Debye
        Dipole field         -0.0003 Ry au, 
 
        Potential amp.        0.0330 Ry
        Total length         55.1515 bohr
 

     total cpu time spent up to now is      389.4 secs

     total energy              =   -7738.34203471 Ry
     estimated scf accuracy    <       0.14699490 Ry

     total magnetization       =    87.65 Bohr mag/cell
     absolute magnetization    =    89.70 Bohr mag/cell

     iteration # 22     ecut=    50.00 Ry     beta= 0.10
     Davidson diagonalization with overlap
     c_bands:  3 eigenvalues not converged
     ethr =  1.34E-05,  avg # of iterations = 22.0

     negative rho (up, down):  1.250E-06 1.443E-06
 
     Adding external electric field

     Computed dipole along edir(3) : 
        Dipole               -0.4326 Ry au,         -1.0996 Debye
        Dipole field         -0.0003 Ry au, 
 
        Potential amp.        0.0292 Ry
        Total length         55.1515 bohr
 
 
     Adding external electric field

     Computed dipole along edir(3) : 
        Dipole               -0.4326 Ry au,         -1.0996 Debye
        Dipole field         -0.0003 Ry au, 
 
        Potential amp.        0.0292 Ry
        Total length         55.1515 bohr
 

     total cpu time spent up to now is      425.8 secs

     total energy              =   -7738.35404735 Ry
     estimated scf accuracy    <       0.07960470 Ry

     total magnetization       =    86.87 Bohr mag/cell
     absolute magnetization    =    89.20 Bohr mag/cell

     iteration # 23     ecut=    50.00 Ry     beta= 0.10
     Davidson diagonalization with overlap
     c_bands:  3 eigenvalues not converged
     ethr =  7.28E-06,  avg # of iterations = 11.0

     negative rho (up, down):  1.657E-08 2.277E-08
 
     Adding external electric field

     Computed dipole along edir(3) : 
        Dipole               -0.3629 Ry au,         -0.9225 Debye
        Dipole field         -0.0002 Ry au, 
 
        Potential amp.        0.0245 Ry
        Total length         55.1515 bohr
 
 
     Adding external electric field

     Computed dipole along edir(3) : 
        Dipole               -0.3629 Ry au,         -0.9225 Debye
        Dipole field         -0.0002 Ry au, 
 
        Potential amp.        0.0245 Ry
        Total length         55.1515 bohr
 

     total cpu time spent up to now is      452.6 secs

     total energy              =   -7738.35530370 Ry
     estimated scf accuracy    <       0.07886099 Ry

     total magnetization       =    87.75 Bohr mag/cell
     absolute magnetization    =    89.51 Bohr mag/cell

     iteration # 24     ecut=    50.00 Ry     beta= 0.10
     Davidson diagonalization with overlap
     ethr =  7.22E-06,  avg # of iterations =  4.0

     negative rho (up, down):  8.589E-09 1.177E-08
 
     Adding external electric field

     Computed dipole along edir(3) : 
        Dipole               -0.3586 Ry au,         -0.9114 Debye
        Dipole field         -0.0002 Ry au, 
 
        Potential amp.        0.0242 Ry
        Total length         55.1515 bohr
 
 
     Adding external electric field

     Computed dipole along edir(3) : 
        Dipole               -0.3586 Ry au,         -0.9114 Debye
        Dipole field         -0.0002 Ry au, 
 
        Potential amp.        0.0242 Ry
        Total length         55.1515 bohr
 

     total cpu time spent up to now is      469.6 secs

     total energy              =   -7738.35695152 Ry
     estimated scf accuracy    <       0.06321756 Ry

     total magnetization       =    87.59 Bohr mag/cell
     absolute magnetization    =    89.12 Bohr mag/cell

     iteration # 25     ecut=    50.00 Ry     beta= 0.10
     Davidson diagonalization with overlap
     ethr =  5.78E-06,  avg # of iterations =  2.0

     negative rho (up, down):  2.227E-07 1.065E-07
 
     Adding external electric field

     Computed dipole along edir(3) : 
        Dipole               -0.3738 Ry au,         -0.9500 Debye
        Dipole field         -0.0002 Ry au, 
 
        Potential amp.        0.0252 Ry
        Total length         55.1515 bohr
 
 
     Adding external electric field

     Computed dipole along edir(3) : 
        Dipole               -0.3738 Ry au,         -0.9500 Debye
        Dipole field         -0.0002 Ry au, 
 
        Potential amp.        0.0252 Ry
        Total length         55.1515 bohr
 

     total cpu time spent up to now is      485.2 secs

     total energy              =   -7738.35473887 Ry
     estimated scf accuracy    <       0.06967468 Ry

     total magnetization       =    87.70 Bohr mag/cell
     absolute magnetization    =    89.27 Bohr mag/cell

     iteration # 26     ecut=    50.00 Ry     beta= 0.10
     Davidson diagonalization with overlap
     ethr =  5.78E-06,  avg # of iterations =  1.5

     negative rho (up, down):  1.724E-06 1.084E-06
 
     Adding external electric field

     Computed dipole along edir(3) : 
        Dipole               -0.3857 Ry au,         -0.9804 Debye
        Dipole field         -0.0002 Ry au, 
 
        Potential amp.        0.0260 Ry
        Total length         55.1515 bohr
 
 
     Adding external electric field

     Computed dipole along edir(3) : 
        Dipole               -0.3857 Ry au,         -0.9804 Debye
        Dipole field         -0.0002 Ry au, 
 
        Potential amp.        0.0260 Ry
        Total length         55.1515 bohr
 

     total cpu time spent up to now is      500.2 secs

     total energy              =   -7738.35455705 Ry
     estimated scf accuracy    <       0.06837216 Ry

     total magnetization       =    87.85 Bohr mag/cell
     absolute magnetization    =    89.53 Bohr mag/cell

     iteration # 27     ecut=    50.00 Ry     beta= 0.10
     Davidson diagonalization with overlap
     ethr =  5.78E-06,  avg # of iterations =  2.0
 
     Adding external electric field

     Computed dipole along edir(3) : 
        Dipole               -0.3208 Ry au,         -0.8154 Debye
        Dipole field         -0.0002 Ry au, 
 
        Potential amp.        0.0217 Ry
        Total length         55.1515 bohr
 
 
     Adding external electric field

     Computed dipole along edir(3) : 
        Dipole               -0.3208 Ry au,         -0.8154 Debye
        Dipole field         -0.0002 Ry au, 
 
        Potential amp.        0.0217 Ry
        Total length         55.1515 bohr
 

     total cpu time spent up to now is      516.1 secs

     total energy              =   -7738.35258709 Ry
     estimated scf accuracy    <       0.06879667 Ry

     total magnetization       =    87.36 Bohr mag/cell
     absolute magnetization    =    89.08 Bohr mag/cell

     iteration # 28     ecut=    50.00 Ry     beta= 0.10
     Davidson diagonalization with overlap
     ethr =  5.78E-06,  avg # of iterations =  2.0
 
     Adding external electric field

     Computed dipole along edir(3) : 
        Dipole               -0.3410 Ry au,         -0.8666 Debye
        Dipole field         -0.0002 Ry au, 
 
        Potential amp.        0.0230 Ry
        Total length         55.1515 bohr
 
 
     Adding external electric field

     Computed dipole along edir(3) : 
        Dipole               -0.3410 Ry au,         -0.8666 Debye
        Dipole field         -0.0002 Ry au, 
 
        Potential amp.        0.0230 Ry
        Total length         55.1515 bohr
 

     total cpu time spent up to now is      532.2 secs

     total energy              =   -7738.35236721 Ry
     estimated scf accuracy    <       0.09468267 Ry

     total magnetization       =    87.45 Bohr mag/cell
     absolute magnetization    =    89.13 Bohr mag/cell

     iteration # 29     ecut=    50.00 Ry     beta= 0.10
     Davidson diagonalization with overlap
     ethr =  5.78E-06,  avg # of iterations =  2.0
 
     Adding external electric field

     Computed dipole along edir(3) : 
        Dipole               -0.3418 Ry au,         -0.8687 Debye
        Dipole field         -0.0002 Ry au, 
 
        Potential amp.        0.0231 Ry
        Total length         55.1515 bohr
 
 
     Adding external electric field

     Computed dipole along edir(3) : 
        Dipole               -0.3418 Ry au,         -0.8687 Debye
        Dipole field         -0.0002 Ry au, 
 
        Potential amp.        0.0231 Ry
        Total length         55.1515 bohr
 

     total cpu time spent up to now is      548.4 secs

     total energy              =   -7738.35279459 Ry
     estimated scf accuracy    <       0.08245737 Ry

     total magnetization       =    87.31 Bohr mag/cell
     absolute magnetization    =    89.14 Bohr mag/cell

     iteration # 30     ecut=    50.00 Ry     beta= 0.10
     Davidson diagonalization with overlap
     ethr =  5.78E-06,  avg # of iterations =  1.0

     negative rho (up, down):  1.804E-07 1.371E-07
 
     Adding external electric field

     Computed dipole along edir(3) : 
        Dipole               -0.3065 Ry au,         -0.7791 Debye
        Dipole field         -0.0002 Ry au, 
 
        Potential amp.        0.0207 Ry
        Total length         55.1515 bohr
 
 
     Adding external electric field

     Computed dipole along edir(3) : 
        Dipole               -0.3065 Ry au,         -0.7791 Debye
        Dipole field         -0.0002 Ry au, 
 
        Potential amp.        0.0207 Ry
        Total length         55.1515 bohr
 

     total cpu time spent up to now is      562.8 secs

     total energy              =   -7738.35368062 Ry
     estimated scf accuracy    <       0.07870028 Ry

     total magnetization       =    87.35 Bohr mag/cell
     absolute magnetization    =    89.20 Bohr mag/cell

     iteration # 31     ecut=    50.00 Ry     beta= 0.10
     Davidson diagonalization with overlap
     ethr =  5.78E-06,  avg # of iterations =  1.5

     negative rho (up, down):  7.762E-07 6.342E-07
 
     Adding external electric field

     Computed dipole along edir(3) : 
        Dipole               -0.2115 Ry au,         -0.5375 Debye
        Dipole field         -0.0001 Ry au, 
 
        Potential amp.        0.0143 Ry
        Total length         55.1515 bohr
 
 
     Adding external electric field

     Computed dipole along edir(3) : 
        Dipole               -0.2115 Ry au,         -0.5375 Debye
        Dipole field         -0.0001 Ry au, 
 
        Potential amp.        0.0143 Ry
        Total length         55.1515 bohr
 

     total cpu time spent up to now is      577.4 secs

     total energy              =   -7738.35356974 Ry
     estimated scf accuracy    <       0.06322837 Ry

     total magnetization       =    87.12 Bohr mag/cell
     absolute magnetization    =    88.92 Bohr mag/cell

     iteration # 32     ecut=    50.00 Ry     beta= 0.10
     Davidson diagonalization with overlap
     ethr =  5.78E-06,  avg # of iterations =  2.0

     negative rho (up, down):  1.579E-06 1.343E-06
 
     Adding external electric field

     Computed dipole along edir(3) : 
        Dipole               -0.1839 Ry au,         -0.4675 Debye
        Dipole field         -0.0001 Ry au, 
 
        Potential amp.        0.0124 Ry
        Total length         55.1515 bohr
 
 
     Adding external electric field

     Computed dipole along edir(3) : 
        Dipole               -0.1839 Ry au,         -0.4675 Debye
        Dipole field         -0.0001 Ry au, 
 
        Potential amp.        0.0124 Ry
        Total length         55.1515 bohr
 

     total cpu time spent up to now is      593.3 secs

     total energy              =   -7738.35405421 Ry
     estimated scf accuracy    <       0.04604127 Ry

     total magnetization       =    87.22 Bohr mag/cell
     absolute magnetization    =    88.87 Bohr mag/cell

     iteration # 33     ecut=    50.00 Ry     beta= 0.10
     Davidson diagonalization with overlap
     ethr =  4.21E-06,  avg # of iterations =  1.0

     negative rho (up, down):  1.725E-06 1.402E-06
 
     Adding external electric field

     Computed dipole along edir(3) : 
        Dipole               -0.2095 Ry au,         -0.5325 Debye
        Dipole field         -0.0001 Ry au, 
 
        Potential amp.        0.0141 Ry
        Total length         55.1515 bohr
 
 
     Adding external electric field

     Computed dipole along edir(3) : 
        Dipole               -0.2095 Ry au,         -0.5325 Debye
        Dipole field         -0.0001 Ry au, 
 
        Potential amp.        0.0141 Ry
        Total length         55.1515 bohr
 

     total cpu time spent up to now is      607.3 secs

     total energy              =   -7738.35408421 Ry
     estimated scf accuracy    <       0.04967261 Ry

     total magnetization       =    87.15 Bohr mag/cell
     absolute magnetization    =    88.80 Bohr mag/cell

     iteration # 34     ecut=    50.00 Ry     beta= 0.10
     Davidson diagonalization with overlap
     ethr =  4.21E-06,  avg # of iterations =  1.5

     negative rho (up, down):  8.277E-07 7.015E-07
 
     Adding external electric field

     Computed dipole along edir(3) : 
        Dipole               -0.2263 Ry au,         -0.5751 Debye
        Dipole field         -0.0001 Ry au, 
 
        Potential amp.        0.0153 Ry
        Total length         55.1515 bohr
 
 
     Adding external electric field

     Computed dipole along edir(3) : 
        Dipole               -0.2263 Ry au,         -0.5751 Debye
        Dipole field         -0.0001 Ry au, 
 
        Potential amp.        0.0153 Ry
        Total length         55.1515 bohr
 

     total cpu time spent up to now is      621.4 secs

     total energy              =   -7738.35457219 Ry
     estimated scf accuracy    <       0.04382792 Ry

     total magnetization       =    87.13 Bohr mag/cell
     absolute magnetization    =    88.69 Bohr mag/cell

     iteration # 35     ecut=    50.00 Ry     beta= 0.10
     Davidson diagonalization with overlap
     ethr =  4.01E-06,  avg # of iterations =  1.0

     negative rho (up, down):  2.568E-06 2.258E-06
 
     Adding external electric field

     Computed dipole along edir(3) : 
        Dipole               -0.1874 Ry au,         -0.4764 Debye
        Dipole field         -0.0001 Ry au, 
 
        Potential amp.        0.0127 Ry
        Total length         55.1515 bohr
 
 
     Adding external electric field

     Computed dipole along edir(3) : 
        Dipole               -0.1874 Ry au,         -0.4764 Debye
        Dipole field         -0.0001 Ry au, 
 
        Potential amp.        0.0127 Ry
        Total length         55.1515 bohr
 

     total cpu time spent up to now is      635.0 secs

     total energy              =   -7738.35442687 Ry
     estimated scf accuracy    <       0.04249210 Ry

     total magnetization       =    87.25 Bohr mag/cell
     absolute magnetization    =    88.78 Bohr mag/cell

     iteration # 36     ecut=    50.00 Ry     beta= 0.10
     Davidson diagonalization with overlap
     ethr =  3.89E-06,  avg # of iterations =  2.0

     negative rho (up, down):  7.670E-07 5.830E-07
 
     Adding external electric field

     Computed dipole along edir(3) : 
        Dipole               -0.3063 Ry au,         -0.7786 Debye
        Dipole field         -0.0002 Ry au, 
 
        Potential amp.        0.0207 Ry
        Total length         55.1515 bohr
 
 
     Adding external electric field

     Computed dipole along edir(3) : 
        Dipole               -0.3063 Ry au,         -0.7786 Debye
        Dipole field         -0.0002 Ry au, 
 
        Potential amp.        0.0207 Ry
        Total length         55.1515 bohr
 

     total cpu time spent up to now is      650.8 secs

     total energy              =   -7738.35409805 Ry
     estimated scf accuracy    <       0.05196621 Ry

     total magnetization       =    87.03 Bohr mag/cell
     absolute magnetization    =    88.58 Bohr mag/cell

     iteration # 37     ecut=    50.00 Ry     beta= 0.10
     Davidson diagonalization with overlap
     ethr =  3.89E-06,  avg # of iterations =  1.5

     negative rho (up, down):  7.195E-07 5.314E-07
 
     Adding external electric field

     Computed dipole along edir(3) : 
        Dipole               -0.3201 Ry au,         -0.8137 Debye
        Dipole field         -0.0002 Ry au, 
 
        Potential amp.        0.0216 Ry
        Total length         55.1515 bohr
 
 
     Adding external electric field

     Computed dipole along edir(3) : 
        Dipole               -0.3201 Ry au,         -0.8137 Debye
        Dipole field         -0.0002 Ry au, 
 
        Potential amp.        0.0216 Ry
        Total length         55.1515 bohr
 

     total cpu time spent up to now is      665.9 secs

     total energy              =   -7738.35389193 Ry
     estimated scf accuracy    <       0.04372684 Ry

     total magnetization       =    87.10 Bohr mag/cell
     absolute magnetization    =    88.59 Bohr mag/cell

     iteration # 38     ecut=    50.00 Ry     beta= 0.10
     Davidson diagonalization with overlap
     ethr =  3.89E-06,  avg # of iterations =  1.5

     negative rho (up, down):  4.767E-07 3.638E-07
 
     Adding external electric field

     Computed dipole along edir(3) : 
        Dipole               -0.3148 Ry au,         -0.8002 Debye
        Dipole field         -0.0002 Ry au, 
 
        Potential amp.        0.0213 Ry
        Total length         55.1515 bohr
 
 
     Adding external electric field

     Computed dipole along edir(3) : 
        Dipole               -0.3148 Ry au,         -0.8002 Debye
        Dipole field         -0.0002 Ry au, 
 
        Potential amp.        0.0213 Ry
        Total length         55.1515 bohr
 

     total cpu time spent up to now is      680.7 secs

     total energy              =   -7738.35439668 Ry
     estimated scf accuracy    <       0.04440347 Ry

     total magnetization       =    87.11 Bohr mag/cell
     absolute magnetization    =    88.57 Bohr mag/cell

     iteration # 39     ecut=    50.00 Ry     beta= 0.10
     Davidson diagonalization with overlap
     ethr =  3.89E-06,  avg # of iterations =  1.5

     negative rho (up, down):  2.765E-07 1.866E-07
 
     Adding external electric field

     Computed dipole along edir(3) : 
        Dipole               -0.2956 Ry au,         -0.7513 Debye
        Dipole field         -0.0002 Ry au, 
 
        Potential amp.        0.0200 Ry
        Total length         55.1515 bohr
 
 
     Adding external electric field

     Computed dipole along edir(3) : 
        Dipole               -0.2956 Ry au,         -0.7513 Debye
        Dipole field         -0.0002 Ry au, 
 
        Potential amp.        0.0200 Ry
        Total length         55.1515 bohr
 

     total cpu time spent up to now is      695.6 secs

     total energy              =   -7738.35331506 Ry
     estimated scf accuracy    <       0.04624378 Ry

     total magnetization       =    87.10 Bohr mag/cell
     absolute magnetization    =    88.60 Bohr mag/cell

     iteration # 40     ecut=    50.00 Ry     beta= 0.10
     Davidson diagonalization with overlap
     ethr =  3.89E-06,  avg # of iterations =  1.5

     negative rho (up, down):  8.546E-07 5.858E-07
 
     Adding external electric field

     Computed dipole along edir(3) : 
        Dipole               -0.3704 Ry au,         -0.9415 Debye
        Dipole field         -0.0002 Ry au, 
 
        Potential amp.        0.0250 Ry
        Total length         55.1515 bohr
 
 
     Adding external electric field

     Computed dipole along edir(3) : 
        Dipole               -0.3704 Ry au,         -0.9415 Debye
        Dipole field         -0.0002 Ry au, 
 
        Potential amp.        0.0250 Ry
        Total length         55.1515 bohr
 

     total cpu time spent up to now is      710.5 secs

     total energy              =   -7738.35387784 Ry
     estimated scf accuracy    <       0.04825808 Ry

     total magnetization       =    87.15 Bohr mag/cell
     absolute magnetization    =    88.65 Bohr mag/cell

     iteration # 41     ecut=    50.00 Ry     beta= 0.10
     Davidson diagonalization with overlap
     ethr =  3.89E-06,  avg # of iterations =  2.0

     negative rho (up, down):  3.838E-07 2.987E-07
 
     Adding external electric field

     Computed dipole along edir(3) : 
        Dipole               -0.2484 Ry au,         -0.6313 Debye
        Dipole field         -0.0002 Ry au, 
 
        Potential amp.        0.0168 Ry
        Total length         55.1515 bohr
 
 
     Adding external electric field

     Computed dipole along edir(3) : 
        Dipole               -0.2484 Ry au,         -0.6313 Debye
        Dipole field         -0.0002 Ry au, 
 
        Potential amp.        0.0168 Ry
        Total length         55.1515 bohr
 

     total cpu time spent up to now is      726.6 secs

     total energy              =   -7738.35350832 Ry
     estimated scf accuracy    <       0.04632389 Ry

     total magnetization       =    87.14 Bohr mag/cell
     absolute magnetization    =    88.65 Bohr mag/cell

     iteration # 42     ecut=    50.00 Ry     beta= 0.10
     Davidson diagonalization with overlap
     ethr =  3.89E-06,  avg # of iterations =  1.5

     negative rho (up, down):  8.253E-07 6.505E-07
 
     Adding external electric field

     Computed dipole along edir(3) : 
        Dipole               -0.2938 Ry au,         -0.7468 Debye
        Dipole field         -0.0002 Ry au, 
 
        Potential amp.        0.0198 Ry
        Total length         55.1515 bohr
 
 
     Adding external electric field

     Computed dipole along edir(3) : 
        Dipole               -0.2938 Ry au,         -0.7468 Debye
        Dipole field         -0.0002 Ry au, 
 
        Potential amp.        0.0198 Ry
        Total length         55.1515 bohr
 

     total cpu time spent up to now is      741.6 secs

     total energy              =   -7738.35434263 Ry
     estimated scf accuracy    <       0.04821693 Ry

     total magnetization       =    87.10 Bohr mag/cell
     absolute magnetization    =    88.57 Bohr mag/cell

     iteration # 43     ecut=    50.00 Ry     beta= 0.10
     Davidson diagonalization with overlap
     ethr =  3.89E-06,  avg # of iterations =  2.0

     negative rho (up, down):  1.481E-07 1.296E-07
 
     Adding external electric field

     Computed dipole along edir(3) : 
        Dipole               -0.3166 Ry au,         -0.8046 Debye
        Dipole field         -0.0002 Ry au, 
 
        Potential amp.        0.0214 Ry
        Total length         55.1515 bohr
 
 
     Adding external electric field

     Computed dipole along edir(3) : 
        Dipole               -0.3166 Ry au,         -0.8046 Debye
        Dipole field         -0.0002 Ry au, 
 
        Potential amp.        0.0214 Ry
        Total length         55.1515 bohr
 

     total cpu time spent up to now is      757.5 secs

     total energy              =   -7738.35466075 Ry
     estimated scf accuracy    <       0.04906337 Ry

     total magnetization       =    87.10 Bohr mag/cell
     absolute magnetization    =    88.57 Bohr mag/cell

     iteration # 44     ecut=    50.00 Ry     beta= 0.10
     Davidson diagonalization with overlap
     ethr =  3.89E-06,  avg # of iterations =  1.0

     negative rho (up, down):  4.909E-07 3.973E-07
 
     Adding external electric field

     Computed dipole along edir(3) : 
        Dipole               -0.2871 Ry au,         -0.7296 Debye
        Dipole field         -0.0002 Ry au, 
 
        Potential amp.        0.0194 Ry
        Total length         55.1515 bohr
 
 
     Adding external electric field

     Computed dipole along edir(3) : 
        Dipole               -0.2871 Ry au,         -0.7296 Debye
        Dipole field         -0.0002 Ry au, 
 
        Potential amp.        0.0194 Ry
        Total length         55.1515 bohr
 

     total cpu time spent up to now is      771.8 secs

     total energy              =   -7738.35433309 Ry
     estimated scf accuracy    <       0.04852015 Ry

     total magnetization       =    87.09 Bohr mag/cell
     absolute magnetization    =    88.52 Bohr mag/cell

     iteration # 45     ecut=    50.00 Ry     beta= 0.10
     Davidson diagonalization with overlap
     ethr =  3.89E-06,  avg # of iterations =  1.5

     negative rho (up, down):  1.314E-06 1.055E-06
 
     Adding external electric field

     Computed dipole along edir(3) : 
        Dipole               -0.2156 Ry au,         -0.5480 Debye
        Dipole field         -0.0001 Ry au, 
 
        Potential amp.        0.0146 Ry
        Total length         55.1515 bohr
 
 
     Adding external electric field

     Computed dipole along edir(3) : 
        Dipole               -0.2156 Ry au,         -0.5480 Debye
        Dipole field         -0.0001 Ry au, 
 
        Potential amp.        0.0146 Ry
        Total length         55.1515 bohr
 

     total cpu time spent up to now is      786.5 secs

     total energy              =   -7738.35391694 Ry
     estimated scf accuracy    <       0.05012890 Ry

     total magnetization       =    87.01 Bohr mag/cell
     absolute magnetization    =    88.45 Bohr mag/cell

     iteration # 46     ecut=    50.00 Ry     beta= 0.10
     Davidson diagonalization with overlap
     ethr =  3.89E-06,  avg # of iterations =  1.5

     negative rho (up, down):  3.306E-07 2.494E-07
 
     Adding external electric field

     Computed dipole along edir(3) : 
        Dipole               -0.4304 Ry au,         -1.0940 Debye
        Dipole field         -0.0003 Ry au, 
 
        Potential amp.        0.0291 Ry
        Total length         55.1515 bohr
 
 
     Adding external electric field

     Computed dipole along edir(3) : 
        Dipole               -0.4304 Ry au,         -1.0940 Debye
        Dipole field         -0.0003 Ry au, 
 
        Potential amp.        0.0291 Ry
        Total length         55.1515 bohr
 

     total cpu time spent up to now is      801.8 secs

     total energy              =   -7738.35295248 Ry
     estimated scf accuracy    <       0.05424890 Ry

     total magnetization       =    87.04 Bohr mag/cell
     absolute magnetization    =    88.48 Bohr mag/cell

     iteration # 47     ecut=    50.00 Ry     beta= 0.10
     Davidson diagonalization with overlap
     ethr =  3.89E-06,  avg # of iterations =  2.0

     negative rho (up, down):  5.237E-08 4.320E-08
 
     Adding external electric field

     Computed dipole along edir(3) : 
        Dipole               -0.3273 Ry au,         -0.8320 Debye
        Dipole field         -0.0002 Ry au, 
 
        Potential amp.        0.0221 Ry
        Total length         55.1515 bohr
 
 
     Adding external electric field

     Computed dipole along edir(3) : 
        Dipole               -0.3273 Ry au,         -0.8320 Debye
        Dipole field         -0.0002 Ry au, 
 
        Potential amp.        0.0221 Ry
        Total length         55.1515 bohr
 

     total cpu time spent up to now is      817.4 secs

     total energy              =   -7738.35344572 Ry
     estimated scf accuracy    <       0.04976718 Ry

     total magnetization       =    87.10 Bohr mag/cell
     absolute magnetization    =    88.48 Bohr mag/cell

     iteration # 48     ecut=    50.00 Ry     beta= 0.10
     Davidson diagonalization with overlap
     ethr =  3.89E-06,  avg # of iterations =  1.5

     negative rho (up, down):  2.796E-07 1.800E-07
 
     Adding external electric field

     Computed dipole along edir(3) : 
        Dipole               -0.3245 Ry au,         -0.8248 Debye
        Dipole field         -0.0002 Ry au, 
 
        Potential amp.        0.0219 Ry
        Total length         55.1515 bohr
 
 
     Adding external electric field

     Computed dipole along edir(3) : 
        Dipole               -0.3245 Ry au,         -0.8248 Debye
        Dipole field         -0.0002 Ry au, 
 
        Potential amp.        0.0219 Ry
        Total length         55.1515 bohr
 

     total cpu time spent up to now is      832.6 secs

     total energy              =   -7738.35004045 Ry
     estimated scf accuracy    <       0.05464761 Ry

     total magnetization       =    87.11 Bohr mag/cell
     absolute magnetization    =    88.81 Bohr mag/cell

     iteration # 49     ecut=    50.00 Ry     beta= 0.10
     Davidson diagonalization with overlap
     ethr =  3.89E-06,  avg # of iterations =  1.5

     negative rho (up, down):  5.956E-07 5.458E-07
 
     Adding external electric field

     Computed dipole along edir(3) : 
        Dipole               -0.3344 Ry au,         -0.8501 Debye
        Dipole field         -0.0002 Ry au, 
 
        Potential amp.        0.0226 Ry
        Total length         55.1515 bohr
 
 
     Adding external electric field

     Computed dipole along edir(3) : 
        Dipole               -0.3344 Ry au,         -0.8501 Debye
        Dipole field         -0.0002 Ry au, 
 
        Potential amp.        0.0226 Ry
        Total length         55.1515 bohr
 

     total cpu time spent up to now is      847.3 secs

     total energy              =   -7738.35488210 Ry
     estimated scf accuracy    <       0.05359980 Ry

     total magnetization       =    87.19 Bohr mag/cell
     absolute magnetization    =    88.60 Bohr mag/cell

     iteration # 50     ecut=    50.00 Ry     beta= 0.10
     Davidson diagonalization with overlap
     ethr =  3.89E-06,  avg # of iterations =  1.5

     negative rho (up, down):  9.745E-07 1.036E-06
 
     Adding external electric field

     Computed dipole along edir(3) : 
        Dipole               -0.3746 Ry au,         -0.9522 Debye
        Dipole field         -0.0002 Ry au, 
 
        Potential amp.        0.0253 Ry
        Total length         55.1515 bohr
 
 
     Adding external electric field

     Computed dipole along edir(3) : 
        Dipole               -0.3746 Ry au,         -0.9522 Debye
        Dipole field         -0.0002 Ry au, 
 
        Potential amp.        0.0253 Ry
        Total length         55.1515 bohr
 

     total cpu time spent up to now is      861.8 secs

     total energy              =   -7738.35493967 Ry
     estimated scf accuracy    <       0.04323329 Ry

     total magnetization       =    87.05 Bohr mag/cell
     absolute magnetization    =    88.50 Bohr mag/cell

     iteration # 51     ecut=    50.00 Ry     beta= 0.10
     Davidson diagonalization with overlap
     ethr =  3.89E-06,  avg # of iterations =  1.5

     negative rho (up, down):  8.360E-07 7.382E-07
 
     Adding external electric field

     Computed dipole along edir(3) : 
        Dipole               -0.3763 Ry au,         -0.9565 Debye
        Dipole field         -0.0002 Ry au, 
 
        Potential amp.        0.0254 Ry
        Total length         55.1515 bohr
 
 
     Adding external electric field

     Computed dipole along edir(3) : 
        Dipole               -0.3763 Ry au,         -0.9565 Debye
        Dipole field         -0.0002 Ry au, 
 
        Potential amp.        0.0254 Ry
        Total length         55.1515 bohr
 

     total cpu time spent up to now is      876.8 secs

     total energy              =   -7738.35527856 Ry
     estimated scf accuracy    <       0.05017252 Ry

     total magnetization       =    87.01 Bohr mag/cell
     absolute magnetization    =    88.41 Bohr mag/cell

     iteration # 52     ecut=    50.00 Ry     beta= 0.10
     Davidson diagonalization with overlap
     ethr =  3.89E-06,  avg # of iterations =  2.0

     negative rho (up, down):  2.889E-07 2.791E-07
 
     Adding external electric field

     Computed dipole along edir(3) : 
        Dipole               -0.3330 Ry au,         -0.8464 Debye
        Dipole field         -0.0002 Ry au, 
 
        Potential amp.        0.0225 Ry
        Total length         55.1515 bohr
 
 
     Adding external electric field

     Computed dipole along edir(3) : 
        Dipole               -0.3330 Ry au,         -0.8464 Debye
        Dipole field         -0.0002 Ry au, 
 
        Potential amp.        0.0225 Ry
        Total length         55.1515 bohr
 

     total cpu time spent up to now is      892.6 secs

     total energy              =   -7738.35506084 Ry
     estimated scf accuracy    <       0.04496515 Ry

     total magnetization       =    87.06 Bohr mag/cell
     absolute magnetization    =    88.52 Bohr mag/cell

     iteration # 53     ecut=    50.00 Ry     beta= 0.10
     Davidson diagonalization with overlap
     ethr =  3.89E-06,  avg # of iterations =  1.5

     negative rho (up, down):  2.983E-06 2.562E-06
 
     Adding external electric field

     Computed dipole along edir(3) : 
        Dipole               -0.3197 Ry au,         -0.8126 Debye
        Dipole field         -0.0002 Ry au, 
 
        Potential amp.        0.0216 Ry
        Total length         55.1515 bohr
 
 
     Adding external electric field

     Computed dipole along edir(3) : 
        Dipole               -0.3197 Ry au,         -0.8126 Debye
        Dipole field         -0.0002 Ry au, 
 
        Potential amp.        0.0216 Ry
        Total length         55.1515 bohr
 

     total cpu time spent up to now is      906.8 secs

     total energy              =   -7738.35469637 Ry
     estimated scf accuracy    <       0.04426128 Ry

     total magnetization       =    86.98 Bohr mag/cell
     absolute magnetization    =    88.41 Bohr mag/cell

     iteration # 54     ecut=    50.00 Ry     beta= 0.10
     Davidson diagonalization with overlap
     ethr =  3.89E-06,  avg # of iterations =  1.0

     negative rho (up, down):  2.845E-07 2.729E-07
 
     Adding external electric field

     Computed dipole along edir(3) : 
        Dipole               -0.3214 Ry au,         -0.8170 Debye
        Dipole field         -0.0002 Ry au, 
 
        Potential amp.        0.0217 Ry
        Total length         55.1515 bohr
 
 
     Adding external electric field

     Computed dipole along edir(3) : 
        Dipole               -0.3214 Ry au,         -0.8170 Debye
        Dipole field         -0.0002 Ry au, 
 
        Potential amp.        0.0217 Ry
        Total length         55.1515 bohr
 

     total cpu time spent up to now is      920.4 secs

     total energy              =   -7738.35496428 Ry
     estimated scf accuracy    <       0.04657358 Ry

     total magnetization       =    87.02 Bohr mag/cell
     absolute magnetization    =    88.50 Bohr mag/cell

     iteration # 55     ecut=    50.00 Ry     beta= 0.10
     Davidson diagonalization with overlap
     ethr =  3.89E-06,  avg # of iterations =  1.0

     negative rho (up, down):  1.168E-06 1.176E-06
 
     Adding external electric field

     Computed dipole along edir(3) : 
        Dipole               -0.2926 Ry au,         -0.7437 Debye
        Dipole field         -0.0002 Ry au, 
 
        Potential amp.        0.0198 Ry
        Total length         55.1515 bohr
 
 
     Adding external electric field

     Computed dipole along edir(3) : 
        Dipole               -0.2926 Ry au,         -0.7437 Debye
        Dipole field         -0.0002 Ry au, 
 
        Potential amp.        0.0198 Ry
        Total length         55.1515 bohr
 

     total cpu time spent up to now is      934.5 secs

     total energy              =   -7738.35497425 Ry
     estimated scf accuracy    <       0.04361824 Ry

     total magnetization       =    87.07 Bohr mag/cell
     absolute magnetization    =    88.50 Bohr mag/cell

     iteration # 56     ecut=    50.00 Ry     beta= 0.10
     Davidson diagonalization with overlap
     ethr =  3.89E-06,  avg # of iterations =  1.0

     negative rho (up, down):  4.985E-07 5.014E-07
 
     Adding external electric field

     Computed dipole along edir(3) : 
        Dipole               -0.3076 Ry au,         -0.7818 Debye
        Dipole field         -0.0002 Ry au, 
 
        Potential amp.        0.0208 Ry
        Total length         55.1515 bohr
 
 
     Adding external electric field

     Computed dipole along edir(3) : 
        Dipole               -0.3076 Ry au,         -0.7818 Debye
        Dipole field         -0.0002 Ry au, 
 
        Potential amp.        0.0208 Ry
        Total length         55.1515 bohr
 

     total cpu time spent up to now is      949.1 secs

     total energy              =   -7738.35514298 Ry
     estimated scf accuracy    <       0.04664897 Ry

     total magnetization       =    87.03 Bohr mag/cell
     absolute magnetization    =    88.46 Bohr mag/cell

     iteration # 57     ecut=    50.00 Ry     beta= 0.10
     Davidson diagonalization with overlap
     ethr =  3.89E-06,  avg # of iterations =  1.0

     negative rho (up, down):  5.221E-08 8.713E-08
 
     Adding external electric field

     Computed dipole along edir(3) : 
        Dipole               -0.2750 Ry au,         -0.6989 Debye
        Dipole field         -0.0002 Ry au, 
 
        Potential amp.        0.0186 Ry
        Total length         55.1515 bohr
 
 
     Adding external electric field

     Computed dipole along edir(3) : 
        Dipole               -0.2750 Ry au,         -0.6989 Debye
        Dipole field         -0.0002 Ry au, 
 
        Potential amp.        0.0186 Ry
        Total length         55.1515 bohr
 

     total cpu time spent up to now is      962.4 secs

     total energy              =   -7738.35458706 Ry
     estimated scf accuracy    <       0.04330960 Ry

     total magnetization       =    87.05 Bohr mag/cell
     absolute magnetization    =    88.48 Bohr mag/cell

     iteration # 58     ecut=    50.00 Ry     beta= 0.10
     Davidson diagonalization with overlap
     ethr =  3.89E-06,  avg # of iterations =  1.0

     negative rho (up, down):  1.324E-07 1.082E-07
 
     Adding external electric field

     Computed dipole along edir(3) : 
        Dipole               -0.2711 Ry au,         -0.6890 Debye
        Dipole field         -0.0002 Ry au, 
 
        Potential amp.        0.0183 Ry
        Total length         55.1515 bohr
 
 
     Adding external electric field

     Computed dipole along edir(3) : 
[...]
    -5.9709  -5.9473  -5.9252  -5.9198  -5.9048  -5.8815  -5.8779  -5.8472
    -5.8184  -5.8152  -5.7979  -5.7735  -5.7489  -5.7414  -5.7037  -5.6984
    -5.6903  -5.6568  -5.6138  -5.5916  -5.5825  -5.5471  -5.5301  -5.5102
    -5.5009  -5.4928  -5.4732  -5.4634  -5.4259  -5.4170  -5.3956  -5.3705
    -5.3017  -5.2413  -5.2324  -5.2086  -5.1973  -5.1852  -5.1488  -5.1077
    -5.0431  -5.0332  -5.0051  -4.9683  -4.9546  -4.9410  -4.9227  -4.8690
    -4.8249  -4.7727  -4.7667  -4.7577  -4.7443  -4.7067  -4.6762  -4.6658
    -4.5804  -4.5447  -4.5000  -4.4914  -4.4356  -4.4268  -4.4007  -4.3790
    -4.3697  -4.3429  -4.2265  -4.2175  -4.1913  -4.1684  -4.1391  -4.1117
    -4.1000  -4.0927  -4.0731  -4.0005  -3.9752  -3.9531  -3.9332  -3.9172
    -3.8713  -3.8323  -3.8271  -3.8033  -3.7972  -3.7687  -3.7382  -3.7005
    -3.6784  -3.6452  -3.6242  -3.6159  -3.6128  -3.5917  -3.5912  -3.5726
    -3.5407  -3.5225  -3.5117  -3.4894  -3.4849  -3.4683  -3.4560  -3.4247
    -3.4057  -3.3978  -3.3829  -3.3645  -3.3418  -3.3069  -3.2906  -3.2662
    -3.2396  -3.2376  -3.2191  -3.2082  -3.1965  -3.1496  -3.1294  -3.1021
    -3.0550  -3.0509  -3.0428  -3.0344  -3.0329  -3.0257  -3.0177  -2.9767
    -2.9453  -2.9403  -2.9313  -2.8819  -2.8713  -2.8677  -2.8129  -2.7966
    -2.7720  -2.7694  -2.7603  -2.7561  -2.7366  -2.7323  -2.7110  -2.7059
    -2.6905  -2.6677  -2.6594  -2.6308  -2.6268  -2.6130  -2.6070  -2.5976
    -2.5953  -2.5774  -2.5603  -2.5417  -2.5273  -2.5221  -2.4814  -2.4745
    -2.4528  -2.4437  -2.4225  -2.3955  -2.3613  -2.3541  -2.3347  -2.3016
    -2.2811  -2.2712  -2.2518  -2.2223  -2.2056  -2.1823  -2.1649  -2.1370
    -2.1296  -2.1213  -2.1136  -2.1050  -2.0771  -2.0661  -2.0244  -1.9949
    -1.9782  -1.9638  -1.9521  -1.9332  -1.9179  -1.9114  -1.8941  -1.8645
    -1.8552  -1.8386  -1.8184  -1.8107  -1.8041  -1.7871  -1.7737  -1.7667
    -1.7479  -1.7196  -1.7035  -1.6435  -1.6409  -1.6321  -1.5816  -1.5692
    -1.5645  -1.5341  -1.5133  -1.5022  -1.4918  -1.4835  -1.4507  -1.4356
    -1.4225  -1.4107  -1.4004  -1.3821  -1.3562  -1.3373  -1.3255  -1.3161
    -1.2739  -1.2628  -1.2438  -1.2109  -1.1899  -1.1453  -1.1216  -1.0805
    -1.0129  -0.9082  -0.8881  -0.8719  -0.8508  -0.7251  -0.7171  -0.5064
    -0.4822  -0.3183  -0.2717  -0.1397   0.1795   0.2101   0.2272   0.2442
     0.2503   0.2659   0.2925   0.3049   0.3267   0.3297   0.3499   0.3611
     0.3671   0.3726   0.3895   0.4032   0.4124   0.4141   0.4161   0.4221
     0.4270   0.4303   0.4461   0.4532   0.4557   0.4617   0.4742   0.4893
     0.4919   0.5004   0.5046   0.5122   0.5210   0.5322   0.5325   0.5394
     0.5599   0.5659   0.5744   0.5752   0.5819   0.5946   0.5975   0.6119
     0.6209   0.6227   0.6397   0.6421   0.6462   0.6501   0.6733   0.6772
     0.6809   0.6892   0.6947   0.7041   0.7107   0.7311   0.7357   0.7480
     0.7557   0.7591   0.7607   0.7711   0.7921   0.7955   0.8036   0.8091
     0.8180   0.8193   0.8283   0.8387   0.8497   0.8575   0.8681   0.8682
     0.8776   0.8903   0.9254   0.9362   0.9510   0.9532   0.9569   0.9827
     0.9972   1.0127   1.0965   1.0988   1.1975   1.2196   1.7461   1.7510
     1.7581   1.7710   1.7777   1.7861   1.8041   1.8186   1.8241   1.9027
     1.9185   1.9345   1.9641   1.9814   2.0208   2.0290   2.0439   2.1000
     2.1199   2.1319   2.1442   2.1467   2.1868   2.1926   2.2179   2.2287
     2.2430   2.2556   2.2837   2.2912   2.3008   2.3397   2.3535   2.3593
     2.3727   2.3873   2.3956   2.4133   2.4303   2.4456   2.4547   2.4751
     2.4853   2.5048   2.5075   2.5259   2.5349   2.5547   2.5856   2.6100
     2.6198   2.6336   2.6373   2.6932   2.7746   2.7927   2.8401   2.8604
     2.8896   2.9075   3.2982   3.5040   3.6303   3.6927   3.7513   3.8572
     3.9002   3.9237   3.9284   3.9521   3.9973   4.0665   4.0746   4.0867
     4.1093   4.1397   4.1477   4.1655   4.1820   4.4000   4.4829   4.6361
     4.8302   4.8782   4.9107   4.9342   4.9659   5.0294   5.0463   5.1031
     5.1245   5.1631   5.3926   6.2662   6.3581   6.4949   6.5984   6.6821
     6.7515   6.8314   6.8541   6.9076   6.9585   7.0433   7.0885   7.1805
     7.2406   7.3205   7.3505   7.3950   7.4687   7.5233   7.6161   7.6610
     7.6918   7.7003   7.7407   7.7739   7.8504   7.8604   7.8961   7.9463
     7.9819   8.0064   8.0539   8.0774   8.1143   8.1700   8.2022   8.2190
     8.2223   8.2724   8.3117   8.3339   8.3866   8.4092   8.4205   8.4384
     8.4505   8.4762   8.5058   8.5179   8.5427   8.5654   8.6041   8.6275
     8.6576   8.6897   8.6968   8.7280   8.7464   8.7863   8.8306   8.8675

     the Fermi energy is     1.6599 ev

!    total energy              =   -7738.34984062 Ry
     estimated scf accuracy    <       0.00000096 Ry
     smearing contrib. (-TS)   =      -0.02174586 Ry
     internal energy E=F+TS    =   -7738.32809476 Ry

     The total energy is F=E-TS. E is the sum of the following terms:
     one-electron contribution =  -95244.85963281 Ry
     hartree contribution      =   48238.45379039 Ry
     xc contribution           =   -2218.73404618 Ry
     ewald contribution        =   41488.62185898 Ry
     Dispersion Correction     =      -1.81016358 Ry
     electric field correction =       0.00009844 Ry

     total magnetization       =    86.97 Bohr mag/cell
     absolute magnetization    =    88.48 Bohr mag/cell

     convergence has been achieved in 117 iterations

     negative rho (up, down):  1.049E-03 5.968E-04

     Forces acting on atoms (cartesian axes, Ry/au):

     atom    1 type  1   force =     0.02514954   -0.03099389    0.01846071
     atom    2 type  2   force =    -0.01374174   -0.00147160   -0.01009693
     atom    3 type  1   force =    -0.02319708   -0.01843135    0.01978327
     atom    4 type  1   force =     0.00570939    0.00412445   -0.00665516
     atom    5 type  1   force =    -0.00190516    0.00106061   -0.00526405
     atom    6 type  1   force =     0.00207522    0.00782820   -0.00907874
     atom    7 type  3   force =    -0.00769122    0.00123292   -0.01050145
     atom    8 type  3   force =    -0.03500569    0.05414620   -0.08328818
     atom    9 type  3   force =     0.03414664    0.03817669   -0.06429001
     atom   10 type  3   force =    -0.00305397   -0.00246586   -0.01165386
     atom   11 type  4   force =     0.00672572    0.00558072    0.01398062
     atom   12 type  4   force =    -0.00024086   -0.00296694    0.01475395
     atom   13 type  4   force =     0.00193599    0.00169055    0.01734076
     atom   14 type  4   force =    -0.00052265   -0.00126385    0.01276269
     atom   15 type  4   force =    -0.00066742    0.00455630   -0.00196407
     atom   16 type  4   force =    -0.00041063    0.00260541    0.04039062
     atom   17 type  4   force =     0.00169731    0.00808319    0.03786481
     atom   18 type  4   force =     0.00798908   -0.00448631   -0.00044757
     atom   19 type  4   force =     0.00045078    0.01185488    0.00426178
     atom   20 type  4   force =    -0.00968399   -0.02674019   -0.00366665
     atom   21 type  4   force =    -0.01109930   -0.00043378    0.00065195
     atom   22 type  4   force =    -0.03203341    0.00311519    0.00787643
     atom   23 type  4   force =     0.03198762    0.00059315    0.01411099
     atom   24 type  4   force =     0.00705781   -0.03690956    0.00381122
     atom   25 type  4   force =    -0.00313314    0.00169831    0.00394411
     atom   26 type  4   force =     0.01776007   -0.00686490    0.00078669
     atom   27 type  1   force =    -0.00514898   -0.00900105    0.00265035
     atom   28 type  2   force =    -0.01323701   -0.00019571    0.00445491
     atom   29 type  1   force =     0.00296644   -0.00491866   -0.00150407
     atom   30 type  1   force =     0.00248740    0.00451126   -0.00195779
     atom   31 type  1   force =     0.00154049   -0.00497863    0.00030022
     atom   32 type  1   force =    -0.00073793    0.00153662   -0.00176661
     atom   33 type  3   force =    -0.00672943   -0.00317784   -0.00164010
     atom   34 type  3   force =    -0.00786328    0.00256799   -0.00002362
     atom   35 type  3   force =     0.00443690   -0.00059931    0.00265457
     atom   36 type  3   force =     0.00062862   -0.00045061   -0.00559227
     atom   37 type  4   force =     0.00849883    0.00530823    0.00720811
     atom   38 type  4   force =     0.00375152   -0.00083245   -0.01937494
     atom   39 type  4   force =    -0.00152634    0.00369053   -0.00970389
     atom   40 type  4   force =    -0.00146547   -0.00255241    0.00950935
     atom   41 type  4   force =    -0.00227420    0.00490498   -0.00758031
     atom   42 type  4   force =    -0.00443717   -0.00440022    0.01793865
     atom   43 type  4   force =     0.00769820    0.00337045    0.00773739
     atom   44 type  4   force =     0.01036679   -0.00591067   -0.00640833
     atom   45 type  4   force =     0.00284836    0.00390231    0.00065227
     atom   46 type  4   force =     0.00240597   -0.00021004   -0.00560067
     atom   47 type  4   force =    -0.01286596   -0.00076524   -0.00341496
     atom   48 type  4   force =    -0.01473229    0.00123827    0.00340695
     atom   49 type  4   force =     0.01363215    0.00254344    0.00438557
     atom   50 type  4   force =    -0.00273916   -0.00500044   -0.00051076
     atom   51 type  4   force =    -0.00537731    0.00202558    0.00029616
     atom   52 type  4   force =     0.01556005   -0.00344180   -0.00465838
     atom   53 type  1   force =     0.00034959    0.00014194    0.00004503
     atom   54 type  2   force =    -0.00306986   -0.00279044    0.00474945
     atom   55 type  1   force =    -0.00004849    0.00031287    0.00023572
     atom   56 type  1   force =     0.00004583   -0.00006375    0.00042246
     atom   57 type  1   force =     0.00040369   -0.00044404    0.00054250
     atom   58 type  1   force =     0.00029690    0.00041875    0.00039493
     atom   59 type  3   force =     0.00048398   -0.00032140    0.00034009
     atom   60 type  3   force =     0.00002639   -0.00067320    0.00023978
     atom   61 type  3   force =    -0.00004599    0.00005137    0.00026825
     atom   62 type  3   force =     0.00000178   -0.00014524    0.00004432
     atom   63 type  4   force =    -0.00021134   -0.00023177    0.00012839
     atom   64 type  4   force =     0.00020810   -0.00054804    0.00030925
     atom   65 type  4   force =     0.00009263    0.00039342    0.00027224
     atom   66 type  4   force =    -0.00012772    0.00005675   -0.00003763
     atom   67 type  4   force =    -0.00025478    0.00023209    0.00029556
     atom   68 type  4   force =    -0.00013786    0.00051940   -0.00007828
     atom   69 type  4   force =     0.00032022   -0.00076171   -0.00085408
     atom   70 type  4   force =     0.00030414   -0.00018395    0.00047369
     atom   71 type  4   force =    -0.00003153   -0.00015124    0.00019594
     atom   72 type  4   force =     0.00002183    0.00018403   -0.00037059
     atom   73 type  4   force =    -0.00000290    0.00014812   -0.00045367
     atom   74 type  4   force =     0.00027619    0.00006982    0.00019873
     atom   75 type  4   force =    -0.00001247    0.00017977    0.00026756
     atom   76 type  4   force =    -0.00012244    0.00027132    0.00056074
     atom   77 type  4   force =    -0.00015879    0.00003351    0.00038584
     atom   78 type  4   force =    -0.00004624   -0.00066216   -0.00044770
     atom   79 type  1   force =     0.02513299   -0.03098335    0.01848810
     atom   80 type  2   force =    -0.01373956   -0.00153152   -0.01006437
     atom   81 type  1   force =    -0.02318861   -0.01842978    0.01977080
     atom   82 type  1   force =     0.00573002    0.00409893   -0.00663827
     atom   83 type  1   force =    -0.00195942    0.00107688   -0.00526744
     atom   84 type  1   force =     0.00209159    0.00783136   -0.00908320
     atom   85 type  3   force =    -0.00770048    0.00119814   -0.01044433
     atom   86 type  3   force =    -0.03500232    0.05414508   -0.08328670
     atom   87 type  3   force =     0.03414967    0.03817579   -0.06428830
     atom   88 type  3   force =    -0.00304085   -0.00246866   -0.01165526
     atom   89 type  4   force =     0.00684347    0.00559134    0.01397618
     atom   90 type  4   force =    -0.00014806   -0.00287929    0.01475188
     atom   91 type  4   force =     0.00202481    0.00168136    0.01731422
     atom   92 type  4   force =    -0.00035758   -0.00126255    0.01276086
     atom   93 type  4   force =    -0.00066207    0.00477066   -0.00187945
     atom   94 type  4   force =    -0.00047703    0.00256513    0.04018491
     atom   95 type  4   force =     0.00182667    0.00808229    0.03786831
     atom   96 type  4   force =     0.00778568   -0.00450610   -0.00046351
     atom   97 type  4   force =     0.00053615    0.01191408    0.00416192
     atom   98 type  4   force =    -0.00958064   -0.02657021   -0.00363438
     atom   99 type  4   force =    -0.01110896   -0.00040148    0.00084678
     atom  100 type  4   force =    -0.03206087    0.00300991    0.00775148
     atom  101 type  4   force =     0.03201547    0.00059681    0.01411890
     atom  102 type  4   force =     0.00687624   -0.03691124    0.00381642
     atom  103 type  4   force =    -0.00303775    0.00164368    0.00390637
     atom  104 type  4   force =     0.01788638   -0.00686455    0.00077193
     atom  105 type  1   force =    -0.00531690   -0.00886746    0.00259601
     atom  106 type  2   force =    -0.01342540    0.00026340    0.00459781
     atom  107 type  1   force =     0.00302256   -0.00493720   -0.00147856
     atom  108 type  1   force =     0.00273923    0.00360151   -0.00111210
     atom  109 type  1   force =     0.00136503   -0.00492790    0.00023779
     atom  110 type  1   force =    -0.00097865    0.00154463   -0.00172163
     atom  111 type  3   force =    -0.00683759   -0.00341721   -0.00087083
     atom  112 type  3   force =    -0.00810200    0.00270314   -0.00020850
     atom  113 type  3   force =     0.00443325   -0.00068637    0.00266364
     atom  114 type  3   force =     0.00061494    0.00039397   -0.00511422
     atom  115 type  4   force =     0.00877546    0.00534326    0.00710920
     atom  116 type  4   force =     0.00382294   -0.00093863   -0.01942216
     atom  117 type  4   force =    -0.00130723    0.00373189   -0.00967486
     atom  118 type  4   force =    -0.00123934   -0.00289969    0.00950555
     atom  119 type  4   force =    -0.00313813    0.00391933   -0.00707556
     atom  120 type  4   force =    -0.00413710   -0.00463440    0.01790385
     atom  121 type  4   force =     0.00773087    0.00337258    0.00776226
     atom  122 type  4   force =     0.01028486   -0.00592467   -0.00580101
     atom  123 type  4   force =     0.00307758    0.00361161   -0.00027120
     atom  124 type  4   force =     0.00228794   -0.00009924   -0.00558283
     atom  125 type  4   force =    -0.01277195   -0.00085795   -0.00331501
     atom  126 type  4   force =    -0.01480189    0.00125574    0.00339998
     atom  127 type  4   force =     0.01354994    0.00243458    0.00447513
     atom  128 type  4   force =    -0.00286626   -0.00503748   -0.00047184
     atom  129 type  4   force =    -0.00565297    0.00215749    0.00002636
     atom  130 type  4   force =     0.01576396   -0.00364357   -0.00442442
     atom  131 type  1   force =     0.00037784    0.00004540    0.00039629
     atom  132 type  2   force =    -0.00044374    0.00011378    0.00034919
     atom  133 type  1   force =    -0.00010978    0.00013930    0.00039431
     atom  134 type  1   force =    -0.00029894   -0.00038699   -0.00028954
     atom  135 type  1   force =     0.00036075   -0.00079090    0.00045783
     atom  136 type  1   force =     0.00059896    0.00010866    0.00034456
     atom  137 type  3   force =    -0.00015676    0.00055078    0.00009366
     atom  138 type  3   force =    -0.00004988   -0.00028738    0.00039625
     atom  139 type  3   force =     0.00036115   -0.00009088    0.00007928
     atom  140 type  3   force =    -0.00020944   -0.00027453   -0.00017930
     atom  141 type  4   force =     0.00002890    0.00029895    0.00000727
     atom  142 type  4   force =    -0.00009272    0.00007876    0.00033354
     atom  143 type  4   force =     0.00052211   -0.00008914    0.00010087
     atom  144 type  4   force =    -0.00002658    0.00007509   -0.00036013
     atom  145 type  4   force =     0.00045032   -0.00000292    0.00018989
     atom  146 type  4   force =     0.00001913    0.00025691    0.00039402
     atom  147 type  4   force =    -0.00041461   -0.00040624   -0.00030130
     atom  148 type  4   force =     0.00049872   -0.00001277    0.00035865
     atom  149 type  4   force =    -0.00050672   -0.00023438    0.00036855
     atom  150 type  4   force =     0.00006557   -0.00042950    0.00012383
     atom  151 type  4   force =    -0.00007033   -0.00012199   -0.00007778
     atom  152 type  4   force =     0.00036725   -0.00011415   -0.00008524
     atom  153 type  4   force =     0.00000151    0.00028341   -0.00018516
     atom  154 type  4   force =     0.00043093   -0.00004519   -0.00003287
     atom  155 type  4   force =    -0.00002120    0.00010258   -0.00019040
     atom  156 type  4   force =     0.00003738    0.00009151   -0.00007257
     atom  157 type  4   force =     0.00610657   -0.00005682   -0.00531276
     atom  158 type  5   force =    -0.00210141    0.00164524    0.00172213

     Total force =     0.262985     Total SCF correction =     0.004383
 
     init_run     :      9.66s CPU     10.44s WALL (       1 calls)
     electrons    :   1759.62s CPU   1849.36s WALL (       1 calls)
     forces       :      4.86s CPU      5.31s WALL (       1 calls)
     force_london :      0.12s CPU      0.12s WALL (       1 calls)

     Called by init_run:
     wfcinit      :      5.88s CPU      6.08s WALL (       1 calls)
     potinit      :      0.57s CPU      0.78s WALL (       1 calls)
     hinit0       :      1.48s CPU      1.62s WALL (       1 calls)

     Called by electrons:
     c_bands      :   1364.84s CPU   1408.68s WALL (     117 calls)
     sum_band     :    250.07s CPU    274.36s WALL (     117 calls)
     v_of_rho     :     30.99s CPU     32.67s WALL (     118 calls)
     newd         :     74.01s CPU     93.72s WALL (     118 calls)
     mix_rho      :     37.64s CPU     37.93s WALL (     117 calls)
     energy_londo :      0.11s CPU      0.11s WALL (       1 calls)

     Called by c_bands:
     init_us_2    :      5.32s CPU      5.47s WALL (     472 calls)
     init_us_2:cp :      5.31s CPU      5.47s WALL (     472 calls)
     regterg      :   1331.96s CPU   1375.24s WALL (     237 calls)

     Called by *egterg:
     rdiaghg      :    345.54s CPU    364.16s WALL (     742 calls)
     h_psi        :    561.65s CPU    573.17s WALL (     744 calls)
     s_psi        :    107.09s CPU    107.22s WALL (     744 calls)
     g_psi        :      0.82s CPU      0.83s WALL (     505 calls)

     Called by h_psi:
     h_psi:calbec :    132.13s CPU    141.18s WALL (     744 calls)
     vloc_psi     :    321.11s CPU    322.38s WALL (     744 calls)
     add_vuspsi   :    106.64s CPU    107.82s WALL (     744 calls)

     General routines
     calbec       :    196.33s CPU    209.90s WALL (     986 calls)
     fft          :     22.30s CPU     24.44s WALL (    2137 calls)
     ffts         :     21.48s CPU     21.58s WALL (   14621 calls)
     fftw         :    341.54s CPU    342.84s WALL (  394882 calls)
     interpolate  :      2.27s CPU      2.43s WALL (     236 calls)
 
     Parallel routines
 
     PWSCF        :  29m36.23s CPU  31m 7.69s WALL

 
   This run was terminated on:  23:12:11  17Nov2025            

=------------------------------------------------------------------------------=
   JOB DONE.
=------------------------------------------------------------------------------=
