
     Program PWSCF v.7.2 starts on 10Nov2025 at 19:24: 0 

     This program is part of the open-source Quantum ESPRESSO suite
     for quantum simulation of materials; please cite
         "P. Giannozzi et al., J. Phys.:Condens. Matter 21 395502 (2009);
         "P. Giannozzi et al., J. Phys.:Condens. Matter 29 465901 (2017);
         "P. Giannozzi et al., J. Chem. Phys. 152 154105 (2020);
          URL http://www.quantum-espresso.org", 
     in publications or presentations arising from this work. More details at
     http://www.quantum-espresso.org/quote

     Parallel version (MPI), running on    64 processors

     MPI processes distributed on     4 nodes
     485969 MiB available memory on the printing compute node when the environment starts
 
     Reading input from ./3/H1_removed/PW.in

     Current dimensions of program PWSCF are:
     Max number of different atomic species (ntypx) = 10
     Max number of k-points (npk) =  40000
     Max angular momentum in pseudopotentials (lmaxx) =  4
     Presently no symmetry can be used with electric field

     Presently stress not available with electric field and gates

     file Ni.pbe-n-rrkjus_psl.1.0.0.UPF: wavefunction(s)  3D renormalized
     file Mn.pbe-spn-rrkjus_psl.0.3.1.UPF: wavefunction(s)  3D renormalized
     file O.pbe-rrkjus.UPF: wavefunction(s)  2S renormalized
     file H.pbe-rrkjus.UPF: wavefunction(s)  1S renormalized

     gamma-point specific algorithms are used
 
     R & G space division:  proc/nbgrp/npool/nimage =      64
     Subspace diagonalization in iterative solution of the eigenvalue problem:
     one sub-group per band group will be used
     custom distributed-memory algorithm (size of sub-group:  7*  7 procs)

 
     Parallelization info
     --------------------
     sticks:   dense  smooth     PW     G-vecs:    dense   smooth      PW
     Min         207      82     20                60552    15302    1896
     Max         210      84     22                60574    15336    1950
     Sum       13325    5345   1333              3876045   980655  122653
 
     Using Slab Decomposition
 


     bravais-lattice index     =            0
     lattice parameter (alat)  =      17.4067  a.u.
     unit-cell volume          =   20529.8182 (a.u.)^3
     number of atoms/cell      =          158
     number of atomic types    =            5
     number of electrons       =      1093.00
     number of Kohn-Sham states=          656
     kinetic-energy cutoff     =      50.0000  Ry
     charge density cutoff     =     500.0000  Ry
     scf convergence threshold =      1.0E-06
     mixing beta               =       0.1000
     number of iterations used =            8  local-TF  mixing
     energy convergence thresh.=      1.0E-04
     force convergence thresh. =      1.0E-03
     Exchange-correlation=  SLA  PW   PBE  PBE
                           (   1   4   3   4   0   0   0)
     nstep                     =         1000


     celldm(1)=  17.406729  celldm(2)=   0.000000  celldm(3)=   0.000000
     celldm(4)=   0.000000  celldm(5)=   0.000000  celldm(6)=   0.000000

     crystal axes: (cart. coord. in units of alat)
               a(1) = (   1.000000   0.000000   0.000000 )  
               a(2) = (  -0.001404   1.105696   0.000000 )  
               a(3) = (   0.000000   0.000000   3.520448 )  

     reciprocal axes: (cart. coord. in units 2 pi/alat)
               b(1) = (  1.000000  0.001270  0.000000 )  
               b(2) = (  0.000000  0.904408  0.000000 )  
               b(3) = (  0.000000  0.000000  0.284055 )  


     PseudoPot. # 1 for Ni read from file:
     ~/PSEUDO/Ni.pbe-n-rrkjus_psl.1.0.0.UPF
     MD5 check sum: Not computed, couldn't open file
     Pseudo is Ultrasoft + core correction, Zval = 10.0
     Generated using "atomic" code by A. Dal Corso  v.5.1.2
     Using radial grid of 1195 points,  6 beta functions with: 
                l(1) =   0
                l(2) =   0
                l(3) =   1
                l(4) =   1
                l(5) =   2
                l(6) =   2
     Q(r) pseudized with 0 coefficients 


     PseudoPot. # 2 for Mn read from file:
     ~/PSEUDO/Mn.pbe-spn-rrkjus_psl.0.3.1.UPF
     MD5 check sum: Not computed, couldn't open file
     Pseudo is Ultrasoft + core correction, Zval = 15.0
     Generated using &quot;atomic&quot; code by A. Dal Corso  v.6.2.2
     Using radial grid of 1187 points,  6 beta functions with: 
                l(1) =   0
                l(2) =   0
                l(3) =   1
                l(4) =   1
                l(5) =   2
                l(6) =   2
     Q(r) pseudized with 0 coefficients 


     PseudoPot. # 3 for P  read from file:
     ~/PSEUDO/P.pbe-n-rrkjus_psl.1.0.0.UPF
     MD5 check sum: Not computed, couldn't open file
     Pseudo is Ultrasoft + core correction, Zval =  5.0
     Generated using "atomic" code by A. Dal Corso  v.5.1
     Using radial grid of 1147 points,  6 beta functions with: 
                l(1) =   0
                l(2) =   0
                l(3) =   1
                l(4) =   1
                l(5) =   2
                l(6) =   2
     Q(r) pseudized with 0 coefficients 


     PseudoPot. # 4 for O  read from file:
     ~/PSEUDO/O.pbe-rrkjus.UPF
     MD5 check sum: Not computed, couldn't open file
     Pseudo is Ultrasoft, Zval =  6.0
     Generated by new atomic code, or converted to UPF format
     Using radial grid of 1269 points,  4 beta functions with: 
                l(1) =   0
                l(2) =   0
                l(3) =   1
                l(4) =   1
     Q(r) pseudized with 0 coefficients 


     PseudoPot. # 5 for H  read from file:
     ~/PSEUDO/H.pbe-rrkjus.UPF
     MD5 check sum: Not computed, couldn't open file
     Pseudo is Ultrasoft, Zval =  1.0
     Generated by new atomic code, or converted to UPF format
     Using radial grid of 1061 points,  2 beta functions with: 
                l(1) =   0
                l(2) =   0
     Q(r) pseudized with 0 coefficients 


     atomic species   valence    mass     pseudopotential
     Ni               10.00    58.69300     Ni( 1.00)
     Mn               15.00    54.93800     Mn( 1.00)
     P                 5.00    30.97300     P ( 1.00)
     O                 6.00    15.99900     O ( 1.00)
     H                 1.00     1.00790     H ( 1.00)

     Starting magnetic structure 
     atomic species   magnetization
     Ni              1.000
     Mn              1.000
     P               1.000
     O               1.000
     H               0.000

     No symmetry found



   Cartesian axes

     site n.     atom                  positions (alat units)
         1        Ni     tau(   1) = (   0.2421002   0.8609138   1.7639572  )
         2        Mn     tau(   2) = (   0.4924481   0.7886602   1.4286360  )
         3        Ni     tau(   3) = (   0.0052341   0.3031820   1.7657208  )
         4        Ni     tau(   4) = (   0.2570603   0.2374878   1.4323851  )
         5        Ni     tau(   5) = (   0.4976584   1.1048203   1.5977343  )
         6        Ni     tau(   6) = (   0.2495781   0.5440308   1.5987947  )
         7        P      tau(   7) = (   0.2083492   0.9982113   1.4353607  )
         8        P      tau(   8) = (   0.4584476   0.6559264   1.7594663  )
         9        P      tau(   9) = (   0.2889394   0.1031966   1.7622405  )
        10        P      tau(  10) = (   0.0400379   0.4338094   1.4355470  )
        11        O      tau(  11) = (   0.1314218   0.9248062   1.5751781  )
        12        O      tau(  12) = (   0.3797244   0.7272031   1.6198878  )
        13        O      tau(  13) = (   0.3662315   0.1762062   1.6220864  )
        14        O      tau(  14) = (   0.1171240   0.3646150   1.5772412  )
        15        O      tau(  15) = (   0.1510364   0.9068326   1.3059819  )
        16        O      tau(  16) = (   0.3981989   0.7453439   1.8888257  )
        17        O      tau(  17) = (   0.3490561   0.1888693   1.8930896  )
        18        O      tau(  18) = (   0.0982395   0.3475583   1.3047310  )
        19        O      tau(  19) = (   0.0992163   0.5918099   1.4399248  )
        20        O      tau(  20) = (   0.3467441   1.0504690   1.7536753  )
        21        O      tau(  21) = (   0.3739183   0.4303319   1.4463782  )
        22        O      tau(  22) = (   0.1230967   0.1088895   1.7518793  )
        23        O      tau(  23) = (   0.1242901   0.6635968   1.7498824  )
        24        O      tau(  24) = (   0.4011802   0.4971632   1.7565472  )
        25        O      tau(  25) = (   0.1484006   0.0497464   1.4390787  )
        26        O      tau(  26) = (   0.3736100   0.9942556   1.4449594  )
        27        Ni     tau(  27) = (   0.2413539   0.8509941   1.1121345  )
        28        Mn     tau(  28) = (   0.4917018   0.7787406   0.7768134  )
        29        Ni     tau(  29) = (   0.0044877   0.2932623   1.1138982  )
        30        Ni     tau(  30) = (   0.2563139   0.2275682   0.7805625  )
        31        Ni     tau(  31) = (   0.4969120   1.0949007   0.9459116  )
        32        Ni     tau(  32) = (   0.2488318   0.5341111   0.9469721  )
        33        P      tau(  33) = (   0.2076029   0.9882917   0.7835381  )
        34        P      tau(  34) = (   0.4577012   0.6460068   1.1076436  )
        35        P      tau(  35) = (   0.2881931   0.0932770   1.1104179  )
        36        P      tau(  36) = (   0.0392916   0.4238898   0.7837243  )
        37        O      tau(  37) = (   0.1306755   0.9148866   0.9233554  )
        38        O      tau(  38) = (   0.3789780   0.7172835   0.9680652  )
        39        O      tau(  39) = (   0.3654852   0.1662865   0.9702638  )
        40        O      tau(  40) = (   0.1163776   0.3546954   0.9254186  )
        41        O      tau(  41) = (   0.1502901   0.8969129   0.6541592  )
        42        O      tau(  42) = (   0.3974525   0.7354243   1.2370031  )
        43        O      tau(  43) = (   0.3483097   0.1789497   1.2412670  )
        44        O      tau(  44) = (   0.0974932   0.3376387   0.6529083  )
        45        O      tau(  45) = (   0.0984699   0.5818903   0.7881021  )
        46        O      tau(  46) = (   0.3459978   1.0405493   1.1018526  )
        47        O      tau(  47) = (   0.3731719   0.4204123   0.7945555  )
        48        O      tau(  48) = (   0.1223503   0.0989699   1.1000566  )
        49        O      tau(  49) = (   0.1235438   0.6536772   1.0980598  )
        50        O      tau(  50) = (   0.4004339   0.4872435   1.1047245  )
        51        O      tau(  51) = (   0.1476543   0.0398268   0.7872561  )
        52        O      tau(  52) = (   0.3728637   0.9843360   0.7931368  )
        53        Ni     tau(  53) = (   0.2406075   0.8410745   0.4603118  )
        54        Mn     tau(  54) = (   0.4909555   0.7688210   0.1249907  )
        55        Ni     tau(  55) = (   0.0037414   0.2833427   0.4620755  )
        56        Ni     tau(  56) = (   0.2555676   0.2176485   0.1287398  )
        57        Ni     tau(  57) = (   0.4961657   1.0849810   0.2940889  )
        58        Ni     tau(  58) = (   0.2480854   0.5241915   0.2951494  )
        59        P      tau(  59) = (   0.2068565   0.9783721   0.1317154  )
        60        P      tau(  60) = (   0.4569549   0.6360871   0.4558210  )
        61        P      tau(  61) = (   0.2874467   0.0833574   0.4585952  )
        62        P      tau(  62) = (   0.0385452   0.4139702   0.1319017  )
        63        O      tau(  63) = (   0.1299291   0.9049669   0.2715327  )
        64        O      tau(  64) = (   0.3782317   0.7073639   0.3162425  )
        65        O      tau(  65) = (   0.3647389   0.1563669   0.3184411  )
        66        O      tau(  66) = (   0.1156313   0.3447757   0.2735959  )
        67        O      tau(  67) = (   0.1495437   0.8869933   0.0023366  )
        68        O      tau(  68) = (   0.3967062   0.7255047   0.5851804  )
        69        O      tau(  69) = (   0.3475634   0.1690300   0.5894443  )
        70        O      tau(  70) = (   0.0967469   0.3277190   0.0010856  )
        71        O      tau(  71) = (   0.0977236   0.5719706   0.1362794  )
        72        O      tau(  72) = (   0.3452514   1.0306297   0.4500300  )
        73        O      tau(  73) = (   0.3724256   0.4104926   0.1427328  )
        74        O      tau(  74) = (   0.1216040   0.0890503   0.4482339  )
        75        O      tau(  75) = (   0.1227974   0.6437575   0.4462371  )
        76        O      tau(  76) = (   0.3996875   0.4773239   0.4529018  )
        77        O      tau(  77) = (   0.1469079   0.0299071   0.1354334  )
        78        O      tau(  78) = (   0.3721173   0.9744163   0.1413141  )
        79        Ni     tau(  79) = (   0.7421002   0.8609138   1.7639572  )
        80        Mn     tau(  80) = (   0.9924481   0.7886602   1.4286360  )
        81        Ni     tau(  81) = (   0.5052341   0.3031820   1.7657208  )
        82        Ni     tau(  82) = (   0.7570603   0.2374878   1.4323851  )
        83        Ni     tau(  83) = (   0.9976584   1.1048203   1.5977343  )
        84        Ni     tau(  84) = (   0.7495781   0.5440308   1.5987947  )
        85        P      tau(  85) = (   0.7083492   0.9982113   1.4353607  )
        86        P      tau(  86) = (   0.9584476   0.6559264   1.7594663  )
        87        P      tau(  87) = (   0.7889394   0.1031966   1.7622405  )
        88        P      tau(  88) = (   0.5400379   0.4338094   1.4355470  )
        89        O      tau(  89) = (   0.6314218   0.9248062   1.5751781  )
        90        O      tau(  90) = (   0.8797244   0.7272031   1.6198878  )
        91        O      tau(  91) = (   0.8662315   0.1762062   1.6220864  )
        92        O      tau(  92) = (   0.6171240   0.3646150   1.5772412  )
        93        O      tau(  93) = (   0.6510364   0.9068326   1.3059819  )
        94        O      tau(  94) = (   0.8981989   0.7453439   1.8888257  )
        95        O      tau(  95) = (   0.8490561   0.1888693   1.8930896  )
        96        O      tau(  96) = (   0.5982395   0.3475583   1.3047310  )
        97        O      tau(  97) = (   0.5992163   0.5918099   1.4399248  )
        98        O      tau(  98) = (   0.8467441   1.0504690   1.7536753  )
        99        O      tau(  99) = (   0.8739183   0.4303319   1.4463782  )
       100        O      tau( 100) = (   0.6230967   0.1088895   1.7518793  )
       101        O      tau( 101) = (   0.6242901   0.6635968   1.7498824  )
       102        O      tau( 102) = (   0.9011802   0.4971632   1.7565472  )
       103        O      tau( 103) = (   0.6484006   0.0497464   1.4390787  )
       104        O      tau( 104) = (   0.8736100   0.9942556   1.4449594  )
       105        Ni     tau( 105) = (   0.7413539   0.8509941   1.1121345  )
       106        Mn     tau( 106) = (   0.9917018   0.7787406   0.7768134  )
       107        Ni     tau( 107) = (   0.5044877   0.2932623   1.1138982  )
       108        Ni     tau( 108) = (   0.7563139   0.2275682   0.7805625  )
       109        Ni     tau( 109) = (   0.9969120   1.0949007   0.9459116  )
       110        Ni     tau( 110) = (   0.7488318   0.5341111   0.9469721  )
       111        P      tau( 111) = (   0.7076029   0.9882917   0.7835381  )
       112        P      tau( 112) = (   0.9577012   0.6460068   1.1076436  )
       113        P      tau( 113) = (   0.7881931   0.0932770   1.1104179  )
       114        P      tau( 114) = (   0.5392916   0.4238898   0.7837243  )
       115        O      tau( 115) = (   0.6306755   0.9148866   0.9233554  )
       116        O      tau( 116) = (   0.8789780   0.7172835   0.9680652  )
       117        O      tau( 117) = (   0.8654852   0.1662865   0.9702638  )
       118        O      tau( 118) = (   0.6163776   0.3546954   0.9254186  )
       119        O      tau( 119) = (   0.6502901   0.8969129   0.6541592  )
       120        O      tau( 120) = (   0.8974525   0.7354243   1.2370031  )
       121        O      tau( 121) = (   0.8483097   0.1789497   1.2412670  )
       122        O      tau( 122) = (   0.5974932   0.3376387   0.6529083  )
       123        O      tau( 123) = (   0.5984699   0.5818903   0.7881021  )
       124        O      tau( 124) = (   0.8459978   1.0405493   1.1018526  )
       125        O      tau( 125) = (   0.8731719   0.4204123   0.7945555  )
       126        O      tau( 126) = (   0.6223503   0.0989699   1.1000566  )
       127        O      tau( 127) = (   0.6235438   0.6536772   1.0980598  )
       128        O      tau( 128) = (   0.9004339   0.4872435   1.1047245  )
       129        O      tau( 129) = (   0.6476543   0.0398268   0.7872561  )
       130        O      tau( 130) = (   0.8728637   0.9843360   0.7931368  )
       131        Ni     tau( 131) = (   0.7406075   0.8410745   0.4603118  )
       132        Mn     tau( 132) = (   0.9909555   0.7688210   0.1249907  )
       133        Ni     tau( 133) = (   0.5037414   0.2833427   0.4620755  )
       134        Ni     tau( 134) = (   0.7555676   0.2176485   0.1287398  )
       135        Ni     tau( 135) = (   0.9961657   1.0849810   0.2940889  )
       136        Ni     tau( 136) = (   0.7480854   0.5241915   0.2951494  )
       137        P      tau( 137) = (   0.7068565   0.9783721   0.1317154  )
       138        P      tau( 138) = (   0.9569549   0.6360871   0.4558210  )
       139        P      tau( 139) = (   0.7874467   0.0833574   0.4585952  )
       140        P      tau( 140) = (   0.5385452   0.4139702   0.1319017  )
       141        O      tau( 141) = (   0.6299291   0.9049669   0.2715327  )
       142        O      tau( 142) = (   0.8782317   0.7073639   0.3162425  )
       143        O      tau( 143) = (   0.8647389   0.1563669   0.3184411  )
       144        O      tau( 144) = (   0.6156313   0.3447757   0.2735959  )
       145        O      tau( 145) = (   0.6495437   0.8869933   0.0023366  )
       146        O      tau( 146) = (   0.8967062   0.7255047   0.5851804  )
       147        O      tau( 147) = (   0.8475634   0.1690300   0.5894443  )
       148        O      tau( 148) = (   0.5967469   0.3277190   0.0010856  )
       149        O      tau( 149) = (   0.5977236   0.5719706   0.1362794  )
       150        O      tau( 150) = (   0.8452514   1.0306297   0.4500300  )
       151        O      tau( 151) = (   0.8724256   0.4104926   0.1427328  )
       152        O      tau( 152) = (   0.6216040   0.0890503   0.4482339  )
       153        O      tau( 153) = (   0.6227974   0.6437575   0.4462371  )
       154        O      tau( 154) = (   0.8996875   0.4773239   0.4529018  )
       155        O      tau( 155) = (   0.6469079   0.0299071   0.1354334  )
       156        O      tau( 156) = (   0.8721173   0.9744163   0.1413141  )
       157        O      tau( 157) = (   0.1182900   0.3918738   1.9239143  )
       158        H      tau( 158) = (   0.2063176   0.3292454   1.9301372  )

     -------------------------------------------------
     Parameters for Dispersion (Grimme-D2) Correction:
     -------------------------------------------------
       atom      VdW radius       C_6     

        Ni         2.952        374.666
        Mn         2.952        374.666
        P          3.222        271.980
        O          2.536         24.284
        H          1.892          4.857

     number of k points=     1  Gaussian smearing, width (Ry)=  0.0100
                       cart. coord. in units 2pi/alat
        k(    1) = (   0.0000000   0.0000000   0.0000000), wk =   1.0000000

     Dense  grid:  1938023 G-vectors     FFT dimensions: ( 125, 144, 450)

     Smooth grid:   490328 G-vectors     FFT dimensions: (  80,  90, 288)

     Estimated max dynamical RAM per process >     326.29 MB

     Estimated total dynamical RAM >      20.39 GB

     Check: negative core charge=   -0.000001
     Generating pointlists ...
     new r_m :   0.0882 (alat units)  1.5345 (a.u.) for type    1
     new r_m :   0.0909 (alat units)  1.5826 (a.u.) for type    2
     new r_m :   0.0683 (alat units)  1.1890 (a.u.) for type    3
     new r_m :   0.0446 (alat units)  0.7770 (a.u.) for type    4
     new r_m :   0.0446 (alat units)  0.7770 (a.u.) for type    5

     Initial potential from superposition of free atoms

     starting charge    1092.8893, renormalised to    1093.0000

     negative rho (up, down):  1.404E-03 4.548E-04
 
     Adding external electric field

     Computed dipole along edir(3) : 
        Dipole                1.6404 Ry au,          4.1695 Debye
        Dipole field          0.0010 Ry au, 
 
        Potential amp.       -0.1108 Ry
        Total length         55.1515 bohr
 
 
     Adding external electric field

     Computed dipole along edir(3) : 
        Dipole                1.6404 Ry au,          4.1695 Debye
        Dipole field          0.0010 Ry au, 
 
        Potential amp.       -0.1108 Ry
        Total length         55.1515 bohr
 
     Starting wfcs are  815 randomized atomic wfcs

     total cpu time spent up to now is       10.8 secs

     Self-consistent Calculation

     iteration #  1     ecut=    50.00 Ry     beta= 0.10
     Davidson diagonalization with overlap
     ethr =  1.00E-02,  avg # of iterations =  6.0

     negative rho (up, down):  3.731E-01 2.868E-06
 
     Adding external electric field

     Computed dipole along edir(3) : 
        Dipole               -3.5572 Ry au,         -9.0414 Debye
        Dipole field         -0.0022 Ry au, 
 
        Potential amp.        0.2402 Ry
        Total length         55.1515 bohr
 
 
     Adding external electric field

     Computed dipole along edir(3) : 
        Dipole               -3.5572 Ry au,         -9.0414 Debye
        Dipole field         -0.0022 Ry au, 
 
        Potential amp.        0.2402 Ry
        Total length         55.1515 bohr
 

     total cpu time spent up to now is       41.1 secs

     total energy              =   -7519.29257782 Ry
     estimated scf accuracy    <     798.21623197 Ry

     total magnetization       =   219.00 Bohr mag/cell
     absolute magnetization    =   306.67 Bohr mag/cell

     iteration #  2     ecut=    50.00 Ry     beta= 0.10
     Davidson diagonalization with overlap
     ethr =  1.00E-02,  avg # of iterations =  2.0

     negative rho (up, down):  3.492E-01 1.753E-06
 
     Adding external electric field

     Computed dipole along edir(3) : 
        Dipole               -2.4486 Ry au,         -6.2237 Debye
        Dipole field         -0.0015 Ry au, 
 
        Potential amp.        0.1653 Ry
        Total length         55.1515 bohr
 
 
     Adding external electric field

     Computed dipole along edir(3) : 
        Dipole               -2.4486 Ry au,         -6.2237 Debye
        Dipole field         -0.0015 Ry au, 
 
        Potential amp.        0.1653 Ry
        Total length         55.1515 bohr
 

     total cpu time spent up to now is       58.5 secs

     total energy              =   -7601.17688776 Ry
     estimated scf accuracy    <     196.04319339 Ry

     total magnetization       =   157.02 Bohr mag/cell
     absolute magnetization    =   206.92 Bohr mag/cell

     iteration #  3     ecut=    50.00 Ry     beta= 0.10
     Davidson diagonalization with overlap
     ethr =  1.00E-02,  avg # of iterations =  1.5

     negative rho (up, down):  3.089E-01 1.448E-06
 
     Adding external electric field

     Computed dipole along edir(3) : 
        Dipole               -2.0860 Ry au,         -5.3022 Debye
        Dipole field         -0.0013 Ry au, 
 
        Potential amp.        0.1408 Ry
        Total length         55.1515 bohr
 
 
     Adding external electric field

     Computed dipole along edir(3) : 
        Dipole               -2.0860 Ry au,         -5.3022 Debye
        Dipole field         -0.0013 Ry au, 
 
        Potential amp.        0.1408 Ry
        Total length         55.1515 bohr
 

     total cpu time spent up to now is       72.0 secs

     total energy              =   -7631.94825443 Ry
     estimated scf accuracy    <     101.77973357 Ry

     total magnetization       =   133.99 Bohr mag/cell
     absolute magnetization    =   186.26 Bohr mag/cell

     iteration #  4     ecut=    50.00 Ry     beta= 0.10
     Davidson diagonalization with overlap
     ethr =  9.31E-03,  avg # of iterations =  1.5

     negative rho (up, down):  2.384E-01 5.179E-07
 
     Adding external electric field

     Computed dipole along edir(3) : 
        Dipole               -1.9260 Ry au,         -4.8954 Debye
        Dipole field         -0.0012 Ry au, 
 
        Potential amp.        0.1300 Ry
        Total length         55.1515 bohr
 
 
     Adding external electric field

     Computed dipole along edir(3) : 
        Dipole               -1.9260 Ry au,         -4.8954 Debye
        Dipole field         -0.0012 Ry au, 
 
        Potential amp.        0.1300 Ry
        Total length         55.1515 bohr
 

     total cpu time spent up to now is       85.8 secs

     total energy              =   -7665.69624081 Ry
     estimated scf accuracy    <      80.92823923 Ry

     total magnetization       =   118.09 Bohr mag/cell
     absolute magnetization    =   171.73 Bohr mag/cell

     iteration #  5     ecut=    50.00 Ry     beta= 0.10
     Davidson diagonalization with overlap
     ethr =  7.40E-03,  avg # of iterations =  1.5

     negative rho (up, down):  1.688E-02 1.748E-07
 
     Adding external electric field

     Computed dipole along edir(3) : 
        Dipole               -1.5103 Ry au,         -3.8387 Debye
        Dipole field         -0.0009 Ry au, 
 
        Potential amp.        0.1020 Ry
        Total length         55.1515 bohr
 
 
     Adding external electric field

     Computed dipole along edir(3) : 
        Dipole               -1.5103 Ry au,         -3.8387 Debye
        Dipole field         -0.0009 Ry au, 
 
        Potential amp.        0.1020 Ry
        Total length         55.1515 bohr
 

     total cpu time spent up to now is       99.6 secs

     total energy              =   -7725.45891641 Ry
     estimated scf accuracy    <      63.51666820 Ry

     total magnetization       =    97.05 Bohr mag/cell
     absolute magnetization    =   153.00 Bohr mag/cell

     iteration #  6     ecut=    50.00 Ry     beta= 0.10
     Davidson diagonalization with overlap
     ethr =  5.81E-03,  avg # of iterations =  1.5

     negative rho (up, down):  4.485E-04 7.429E-04
 
     Adding external electric field

     Computed dipole along edir(3) : 
        Dipole               -1.2224 Ry au,         -3.1070 Debye
        Dipole field         -0.0007 Ry au, 
 
        Potential amp.        0.0825 Ry
        Total length         55.1515 bohr
 
 
     Adding external electric field

     Computed dipole along edir(3) : 
        Dipole               -1.2224 Ry au,         -3.1070 Debye
        Dipole field         -0.0007 Ry au, 
 
        Potential amp.        0.0825 Ry
        Total length         55.1515 bohr
 

     total cpu time spent up to now is      113.8 secs

     total energy              =   -7735.89374023 Ry
     estimated scf accuracy    <      11.21837214 Ry

     total magnetization       =    91.00 Bohr mag/cell
     absolute magnetization    =   123.64 Bohr mag/cell

     iteration #  7     ecut=    50.00 Ry     beta= 0.10
     Davidson diagonalization with overlap
     ethr =  1.03E-03,  avg # of iterations =  7.0

     negative rho (up, down):  4.429E-04 7.340E-04
 
     Adding external electric field

     Computed dipole along edir(3) : 
        Dipole               -1.2254 Ry au,         -3.1145 Debye
        Dipole field         -0.0008 Ry au, 
 
        Potential amp.        0.0827 Ry
        Total length         55.1515 bohr
 
 
     Adding external electric field

     Computed dipole along edir(3) : 
        Dipole               -1.2254 Ry au,         -3.1145 Debye
        Dipole field         -0.0008 Ry au, 
 
        Potential amp.        0.0827 Ry
        Total length         55.1515 bohr
 

     total cpu time spent up to now is      138.0 secs

     total energy              =   -7738.24705046 Ry
     estimated scf accuracy    <      20.70477742 Ry

     total magnetization       =    70.68 Bohr mag/cell
     absolute magnetization    =    88.10 Bohr mag/cell

     iteration #  8     ecut=    50.00 Ry     beta= 0.10
     Davidson diagonalization with overlap
     ethr =  1.03E-03,  avg # of iterations =  1.5

     negative rho (up, down):  4.453E-04 7.125E-04
 
     Adding external electric field

     Computed dipole along edir(3) : 
        Dipole               -1.2280 Ry au,         -3.1212 Debye
        Dipole field         -0.0008 Ry au, 
 
        Potential amp.        0.0829 Ry
        Total length         55.1515 bohr
 
 
     Adding external electric field

     Computed dipole along edir(3) : 
        Dipole               -1.2280 Ry au,         -3.1212 Debye
        Dipole field         -0.0008 Ry au, 
 
        Potential amp.        0.0829 Ry
        Total length         55.1515 bohr
 

     total cpu time spent up to now is      151.4 secs

     total energy              =   -7738.23663672 Ry
     estimated scf accuracy    <      20.37087007 Ry

     total magnetization       =    70.78 Bohr mag/cell
     absolute magnetization    =    87.87 Bohr mag/cell

     iteration #  9     ecut=    50.00 Ry     beta= 0.10
     Davidson diagonalization with overlap
     ethr =  1.03E-03,  avg # of iterations =  1.0

     negative rho (up, down):  1.273E-03 2.218E-03
 
     Adding external electric field

     Computed dipole along edir(3) : 
        Dipole               -1.3104 Ry au,         -3.3307 Debye
        Dipole field         -0.0008 Ry au, 
 
        Potential amp.        0.0885 Ry
        Total length         55.1515 bohr
 
 
     Adding external electric field

     Computed dipole along edir(3) : 
        Dipole               -1.3104 Ry au,         -3.3307 Debye
        Dipole field         -0.0008 Ry au, 
 
        Potential amp.        0.0885 Ry
        Total length         55.1515 bohr
 

     total cpu time spent up to now is      164.7 secs

     total energy              =   -7737.56022191 Ry
     estimated scf accuracy    <      19.76805035 Ry

     total magnetization       =    70.94 Bohr mag/cell
     absolute magnetization    =    87.68 Bohr mag/cell

     iteration # 10     ecut=    50.00 Ry     beta= 0.10
     Davidson diagonalization with overlap
     ethr =  1.03E-03,  avg # of iterations =  2.0

     negative rho (up, down):  2.049E-03 3.659E-03
 
     Adding external electric field

     Computed dipole along edir(3) : 
        Dipole               -1.3580 Ry au,         -3.4516 Debye
        Dipole field         -0.0008 Ry au, 
 
        Potential amp.        0.0917 Ry
        Total length         55.1515 bohr
 
 
     Adding external electric field

     Computed dipole along edir(3) : 
        Dipole               -1.3580 Ry au,         -3.4516 Debye
        Dipole field         -0.0008 Ry au, 
 
        Potential amp.        0.0917 Ry
        Total length         55.1515 bohr
 

     total cpu time spent up to now is      179.1 secs

     total energy              =   -7737.79802970 Ry
     estimated scf accuracy    <       6.60669400 Ry

     total magnetization       =    81.87 Bohr mag/cell
     absolute magnetization    =    94.01 Bohr mag/cell

     iteration # 11     ecut=    50.00 Ry     beta= 0.10
     Davidson diagonalization with overlap
     ethr =  6.04E-04,  avg # of iterations =  1.5

     negative rho (up, down):  1.736E-03 3.612E-03
 
     Adding external electric field

     Computed dipole along edir(3) : 
        Dipole               -1.3301 Ry au,         -3.3809 Debye
        Dipole field         -0.0008 Ry au, 
 
        Potential amp.        0.0898 Ry
        Total length         55.1515 bohr
 
 
     Adding external electric field

     Computed dipole along edir(3) : 
        Dipole               -1.3301 Ry au,         -3.3809 Debye
        Dipole field         -0.0008 Ry au, 
 
        Potential amp.        0.0898 Ry
        Total length         55.1515 bohr
 

     total cpu time spent up to now is      191.6 secs

     total energy              =   -7737.87358467 Ry
     estimated scf accuracy    <       2.00241786 Ry

     total magnetization       =    86.59 Bohr mag/cell
     absolute magnetization    =    96.58 Bohr mag/cell

     iteration # 12     ecut=    50.00 Ry     beta= 0.10
     Davidson diagonalization with overlap
     ethr =  1.83E-04,  avg # of iterations =  3.0

     negative rho (up, down):  8.967E-04 2.277E-03
 
     Adding external electric field

     Computed dipole along edir(3) : 
        Dipole               -1.2943 Ry au,         -3.2897 Debye
        Dipole field         -0.0008 Ry au, 
 
        Potential amp.        0.0874 Ry
        Total length         55.1515 bohr
 
 
     Adding external electric field

     Computed dipole along edir(3) : 
        Dipole               -1.2943 Ry au,         -3.2897 Debye
        Dipole field         -0.0008 Ry au, 
 
        Potential amp.        0.0874 Ry
        Total length         55.1515 bohr
 

     total cpu time spent up to now is      206.1 secs

     total energy              =   -7737.87656050 Ry
     estimated scf accuracy    <       1.71192183 Ry

     total magnetization       =    86.90 Bohr mag/cell
     absolute magnetization    =    96.18 Bohr mag/cell

     iteration # 13     ecut=    50.00 Ry     beta= 0.10
     Davidson diagonalization with overlap
     c_bands:  3 eigenvalues not converged
     ethr =  1.57E-04,  avg # of iterations = 11.0

     negative rho (up, down):  8.988E-04 2.617E-03
 
     Adding external electric field

     Computed dipole along edir(3) : 
        Dipole               -1.3222 Ry au,         -3.3608 Debye
        Dipole field         -0.0008 Ry au, 
 
        Potential amp.        0.0893 Ry
        Total length         55.1515 bohr
 
 
     Adding external electric field

     Computed dipole along edir(3) : 
        Dipole               -1.3222 Ry au,         -3.3608 Debye
        Dipole field         -0.0008 Ry au, 
 
        Potential amp.        0.0893 Ry
        Total length         55.1515 bohr
 

     total cpu time spent up to now is      225.7 secs

     total energy              =   -7737.92561861 Ry
     estimated scf accuracy    <       4.92069567 Ry

     total magnetization       =    82.67 Bohr mag/cell
     absolute magnetization    =    92.04 Bohr mag/cell

     iteration # 14     ecut=    50.00 Ry     beta= 0.10
     Davidson diagonalization with overlap
     ethr =  1.57E-04,  avg # of iterations =  2.0

     negative rho (up, down):  9.087E-04 2.111E-03
 
     Adding external electric field

     Computed dipole along edir(3) : 
        Dipole               -1.5112 Ry au,         -3.8411 Debye
        Dipole field         -0.0009 Ry au, 
 
        Potential amp.        0.1020 Ry
        Total length         55.1515 bohr
 
 
     Adding external electric field

     Computed dipole along edir(3) : 
        Dipole               -1.5112 Ry au,         -3.8411 Debye
        Dipole field         -0.0009 Ry au, 
 
        Potential amp.        0.1020 Ry
        Total length         55.1515 bohr
 

     total cpu time spent up to now is      240.6 secs

     total energy              =   -7738.07262711 Ry
     estimated scf accuracy    <       2.63655521 Ry

     total magnetization       =    85.22 Bohr mag/cell
     absolute magnetization    =    93.17 Bohr mag/cell

     iteration # 15     ecut=    50.00 Ry     beta= 0.10
     Davidson diagonalization with overlap
     ethr =  1.57E-04,  avg # of iterations =  1.5

     negative rho (up, down):  8.582E-04 1.900E-03
 
     Adding external electric field

     Computed dipole along edir(3) : 
        Dipole               -1.4690 Ry au,         -3.7339 Debye
        Dipole field         -0.0009 Ry au, 
 
        Potential amp.        0.0992 Ry
        Total length         55.1515 bohr
 
 
     Adding external electric field

     Computed dipole along edir(3) : 
        Dipole               -1.4690 Ry au,         -3.7339 Debye
        Dipole field         -0.0009 Ry au, 
 
        Potential amp.        0.0992 Ry
        Total length         55.1515 bohr
 

     total cpu time spent up to now is      253.2 secs

     total energy              =   -7738.18869532 Ry
     estimated scf accuracy    <       0.40282372 Ry

     total magnetization       =    88.17 Bohr mag/cell
     absolute magnetization    =    93.05 Bohr mag/cell

     iteration # 16     ecut=    50.00 Ry     beta= 0.10
     Davidson diagonalization with overlap
     ethr =  3.69E-05,  avg # of iterations = 12.0

     negative rho (up, down):  1.296E-03 1.422E-03
 
     Adding external electric field

     Computed dipole along edir(3) : 
        Dipole               -1.4279 Ry au,         -3.6294 Debye
        Dipole field         -0.0009 Ry au, 
 
        Potential amp.        0.0964 Ry
        Total length         55.1515 bohr
 
 
     Adding external electric field

     Computed dipole along edir(3) : 
        Dipole               -1.4279 Ry au,         -3.6294 Debye
        Dipole field         -0.0009 Ry au, 
 
        Potential amp.        0.0964 Ry
        Total length         55.1515 bohr
 

     total cpu time spent up to now is      278.3 secs

     total energy              =   -7738.23249681 Ry
     estimated scf accuracy    <       0.26419796 Ry

     total magnetization       =    89.78 Bohr mag/cell
     absolute magnetization    =    93.15 Bohr mag/cell

     iteration # 17     ecut=    50.00 Ry     beta= 0.10
     Davidson diagonalization with overlap
     c_bands:  5 eigenvalues not converged
     ethr =  2.42E-05,  avg # of iterations = 11.0

     negative rho (up, down):  1.475E-03 1.383E-03
 
     Adding external electric field

     Computed dipole along edir(3) : 
        Dipole               -1.4297 Ry au,         -3.6339 Debye
        Dipole field         -0.0009 Ry au, 
 
        Potential amp.        0.0965 Ry
        Total length         55.1515 bohr
 
 
     Adding external electric field

     Computed dipole along edir(3) : 
        Dipole               -1.4297 Ry au,         -3.6339 Debye
        Dipole field         -0.0009 Ry au, 
 
        Potential amp.        0.0965 Ry
        Total length         55.1515 bohr
 

     total cpu time spent up to now is      299.9 secs

     total energy              =   -7738.24930464 Ry
     estimated scf accuracy    <       0.31157251 Ry

     total magnetization       =    88.27 Bohr mag/cell
     absolute magnetization    =    90.50 Bohr mag/cell

     iteration # 18     ecut=    50.00 Ry     beta= 0.10
     Davidson diagonalization with overlap
     ethr =  2.42E-05,  avg # of iterations =  1.5

     negative rho (up, down):  1.657E-03 1.142E-03
 
     Adding external electric field

     Computed dipole along edir(3) : 
        Dipole               -1.4031 Ry au,         -3.5663 Debye
        Dipole field         -0.0009 Ry au, 
 
        Potential amp.        0.0947 Ry
        Total length         55.1515 bohr
 
 
     Adding external electric field

     Computed dipole along edir(3) : 
        Dipole               -1.4031 Ry au,         -3.5663 Debye
        Dipole field         -0.0009 Ry au, 
 
        Potential amp.        0.0947 Ry
        Total length         55.1515 bohr
 

     total cpu time spent up to now is      312.3 secs

     total energy              =   -7738.24664384 Ry
     estimated scf accuracy    <       0.19055986 Ry

     total magnetization       =    88.86 Bohr mag/cell
     absolute magnetization    =    90.84 Bohr mag/cell

     iteration # 19     ecut=    50.00 Ry     beta= 0.10
     Davidson diagonalization with overlap
     ethr =  1.74E-05,  avg # of iterations =  1.0

     negative rho (up, down):  9.593E-04 3.977E-04
 
     Adding external electric field

     Computed dipole along edir(3) : 
        Dipole               -1.3430 Ry au,         -3.4136 Debye
        Dipole field         -0.0008 Ry au, 
 
        Potential amp.        0.0907 Ry
        Total length         55.1515 bohr
 
 
     Adding external electric field

     Computed dipole along edir(3) : 
        Dipole               -1.3430 Ry au,         -3.4136 Debye
        Dipole field         -0.0008 Ry au, 
 
        Potential amp.        0.0907 Ry
        Total length         55.1515 bohr
 

     total cpu time spent up to now is      323.7 secs

     total energy              =   -7738.23951460 Ry
     estimated scf accuracy    <       0.14836638 Ry

     total magnetization       =    88.90 Bohr mag/cell
     absolute magnetization    =    90.53 Bohr mag/cell

     iteration # 20     ecut=    50.00 Ry     beta= 0.10
     Davidson diagonalization with overlap
     ethr =  1.36E-05,  avg # of iterations =  2.0

     negative rho (up, down):  5.513E-04 1.922E-04
 
     Adding external electric field

     Computed dipole along edir(3) : 
        Dipole               -1.3089 Ry au,         -3.3268 Debye
        Dipole field         -0.0008 Ry au, 
 
        Potential amp.        0.0884 Ry
        Total length         55.1515 bohr
 
 
     Adding external electric field

     Computed dipole along edir(3) : 
        Dipole               -1.3089 Ry au,         -3.3268 Debye
        Dipole field         -0.0008 Ry au, 
 
        Potential amp.        0.0884 Ry
        Total length         55.1515 bohr
 

     total cpu time spent up to now is      336.2 secs

     total energy              =   -7738.24125448 Ry
     estimated scf accuracy    <       0.05850192 Ry

     total magnetization       =    89.40 Bohr mag/cell
     absolute magnetization    =    90.90 Bohr mag/cell

     iteration # 21     ecut=    50.00 Ry     beta= 0.10
     Davidson diagonalization with overlap
     ethr =  5.35E-06,  avg # of iterations =  2.0

     negative rho (up, down):  4.240E-04 9.654E-05
 
     Adding external electric field

     Computed dipole along edir(3) : 
        Dipole               -1.2992 Ry au,         -3.3022 Debye
        Dipole field         -0.0008 Ry au, 
 
        Potential amp.        0.0877 Ry
        Total length         55.1515 bohr
 
 
     Adding external electric field

     Computed dipole along edir(3) : 
        Dipole               -1.2992 Ry au,         -3.3022 Debye
        Dipole field         -0.0008 Ry au, 
 
        Potential amp.        0.0877 Ry
        Total length         55.1515 bohr
 

     total cpu time spent up to now is      348.8 secs

     total energy              =   -7738.24018790 Ry
     estimated scf accuracy    <       0.06698190 Ry

     total magnetization       =    88.98 Bohr mag/cell
     absolute magnetization    =    90.53 Bohr mag/cell

     iteration # 22     ecut=    50.00 Ry     beta= 0.10
     Davidson diagonalization with overlap
     ethr =  5.35E-06,  avg # of iterations =  2.0

     negative rho (up, down):  3.269E-04 2.618E-05
 
     Adding external electric field

     Computed dipole along edir(3) : 
        Dipole               -1.2673 Ry au,         -3.2210 Debye
        Dipole field         -0.0008 Ry au, 
 
        Potential amp.        0.0856 Ry
        Total length         55.1515 bohr
 
 
     Adding external electric field

     Computed dipole along edir(3) : 
        Dipole               -1.2673 Ry au,         -3.2210 Debye
        Dipole field         -0.0008 Ry au, 
 
        Potential amp.        0.0856 Ry
        Total length         55.1515 bohr
 

     total cpu time spent up to now is      362.7 secs

     total energy              =   -7738.23789822 Ry
     estimated scf accuracy    <       0.04960191 Ry

     total magnetization       =    89.06 Bohr mag/cell
     absolute magnetization    =    90.61 Bohr mag/cell

     iteration # 23     ecut=    50.00 Ry     beta= 0.10
     Davidson diagonalization with overlap
     c_bands:  4 eigenvalues not converged
     ethr =  4.54E-06,  avg # of iterations = 11.0

     negative rho (up, down):  2.867E-04 1.668E-05
 
     Adding external electric field

     Computed dipole along edir(3) : 
        Dipole               -1.2383 Ry au,         -3.1474 Debye
        Dipole field         -0.0008 Ry au, 
 
        Potential amp.        0.0836 Ry
        Total length         55.1515 bohr
 
 
     Adding external electric field

     Computed dipole along edir(3) : 
        Dipole               -1.2383 Ry au,         -3.1474 Debye
        Dipole field         -0.0008 Ry au, 
 
        Potential amp.        0.0836 Ry
        Total length         55.1515 bohr
 

     total cpu time spent up to now is      381.1 secs

     total energy              =   -7738.23788062 Ry
     estimated scf accuracy    <       0.04061467 Ry

     total magnetization       =    89.23 Bohr mag/cell
     absolute magnetization    =    90.72 Bohr mag/cell

     iteration # 24     ecut=    50.00 Ry     beta= 0.10
     Davidson diagonalization with overlap
     c_bands:  1 eigenvalues not converged
     ethr =  3.72E-06,  avg # of iterations = 11.0

     negative rho (up, down):  3.474E-04 1.109E-04
 
     Adding external electric field

     Computed dipole along edir(3) : 
        Dipole               -1.2377 Ry au,         -3.1460 Debye
        Dipole field         -0.0008 Ry au, 
 
        Potential amp.        0.0836 Ry
        Total length         55.1515 bohr
 
 
     Adding external electric field

     Computed dipole along edir(3) : 
        Dipole               -1.2377 Ry au,         -3.1460 Debye
        Dipole field         -0.0008 Ry au, 
 
        Potential amp.        0.0836 Ry
        Total length         55.1515 bohr
 

     total cpu time spent up to now is      399.0 secs

     total energy              =   -7738.24119646 Ry
     estimated scf accuracy    <       0.03993706 Ry

     total magnetization       =    89.11 Bohr mag/cell
     absolute magnetization    =    90.58 Bohr mag/cell

     iteration # 25     ecut=    50.00 Ry     beta= 0.10
     Davidson diagonalization with overlap
     ethr =  3.65E-06,  avg # of iterations =  2.0

     negative rho (up, down):  5.379E-04 4.122E-04
 
     Adding external electric field

     Computed dipole along edir(3) : 
        Dipole               -1.1362 Ry au,         -2.8878 Debye
        Dipole field         -0.0007 Ry au, 
 
        Potential amp.        0.0767 Ry
        Total length         55.1515 bohr
 
 
     Adding external electric field

     Computed dipole along edir(3) : 
        Dipole               -1.1362 Ry au,         -2.8878 Debye
        Dipole field         -0.0007 Ry au, 
 
        Potential amp.        0.0767 Ry
        Total length         55.1515 bohr
 

     total cpu time spent up to now is      412.5 secs

     total energy              =   -7738.24282290 Ry
     estimated scf accuracy    <       0.04278778 Ry

     total magnetization       =    88.92 Bohr mag/cell
     absolute magnetization    =    90.38 Bohr mag/cell

     iteration # 26     ecut=    50.00 Ry     beta= 0.10
     Davidson diagonalization with overlap
     ethr =  3.65E-06,  avg # of iterations =  3.5

     negative rho (up, down):  5.579E-04 4.257E-04
 
     Adding external electric field

     Computed dipole along edir(3) : 
        Dipole               -1.0704 Ry au,         -2.7207 Debye
        Dipole field         -0.0007 Ry au, 
 
        Potential amp.        0.0723 Ry
        Total length         55.1515 bohr
 
 
     Adding external electric field

     Computed dipole along edir(3) : 
        Dipole               -1.0704 Ry au,         -2.7207 Debye
        Dipole field         -0.0007 Ry au, 
 
        Potential amp.        0.0723 Ry
        Total length         55.1515 bohr
 

     total cpu time spent up to now is      427.2 secs

     total energy              =   -7738.24190306 Ry
     estimated scf accuracy    <       0.02029486 Ry

     total magnetization       =    88.89 Bohr mag/cell
     absolute magnetization    =    90.24 Bohr mag/cell

     iteration # 27     ecut=    50.00 Ry     beta= 0.10
     Davidson diagonalization with overlap
     c_bands:  3 eigenvalues not converged
     c_bands:  4 eigenvalues not converged
     ethr =  1.86E-06,  avg # of iterations = 20.0

     negative rho (up, down):  5.228E-04 3.903E-04
 
     Adding external electric field

     Computed dipole along edir(3) : 
        Dipole               -1.0733 Ry au,         -2.7282 Debye
        Dipole field         -0.0007 Ry au, 
 
        Potential amp.        0.0725 Ry
        Total length         55.1515 bohr
 
 
     Adding external electric field

     Computed dipole along edir(3) : 
        Dipole               -1.0733 Ry au,         -2.7282 Debye
        Dipole field         -0.0007 Ry au, 
 
        Potential amp.        0.0725 Ry
        Total length         55.1515 bohr
 

     total cpu time spent up to now is      454.1 secs

     total energy              =   -7738.24277523 Ry
     estimated scf accuracy    <       0.03053337 Ry

     total magnetization       =    88.55 Bohr mag/cell
     absolute magnetization    =    89.85 Bohr mag/cell

     iteration # 28     ecut=    50.00 Ry     beta= 0.10
     Davidson diagonalization with overlap
     ethr =  1.86E-06,  avg # of iterations =  6.5

     negative rho (up, down):  6.515E-04 5.325E-04
 
     Adding external electric field

     Computed dipole along edir(3) : 
        Dipole               -1.0497 Ry au,         -2.6682 Debye
        Dipole field         -0.0006 Ry au, 
 
        Potential amp.        0.0709 Ry
        Total length         55.1515 bohr
 
 
     Adding external electric field

     Computed dipole along edir(3) : 
        Dipole               -1.0497 Ry au,         -2.6682 Debye
        Dipole field         -0.0006 Ry au, 
 
        Potential amp.        0.0709 Ry
        Total length         55.1515 bohr
 

     total cpu time spent up to now is      469.6 secs

     total energy              =   -7738.24262339 Ry
     estimated scf accuracy    <       0.02164599 Ry

     total magnetization       =    88.74 Bohr mag/cell
     absolute magnetization    =    90.03 Bohr mag/cell

     iteration # 29     ecut=    50.00 Ry     beta= 0.10
     Davidson diagonalization with overlap
     ethr =  1.86E-06,  avg # of iterations =  2.0

     negative rho (up, down):  1.241E-03 1.124E-03
 
     Adding external electric field

     Computed dipole along edir(3) : 
        Dipole               -0.9669 Ry au,         -2.4576 Debye
        Dipole field         -0.0006 Ry au, 
 
        Potential amp.        0.0653 Ry
        Total length         55.1515 bohr
 
 
     Adding external electric field

     Computed dipole along edir(3) : 
        Dipole               -0.9669 Ry au,         -2.4576 Debye
        Dipole field         -0.0006 Ry au, 
 
        Potential amp.        0.0653 Ry
        Total length         55.1515 bohr
 

     total cpu time spent up to now is      483.1 secs

     total energy              =   -7738.24181719 Ry
     estimated scf accuracy    <       0.01794433 Ry

     total magnetization       =    88.77 Bohr mag/cell
     absolute magnetization    =    90.06 Bohr mag/cell

     iteration # 30     ecut=    50.00 Ry     beta= 0.10
     Davidson diagonalization with overlap
     ethr =  1.64E-06,  avg # of iterations =  2.5

     negative rho (up, down):  1.431E-03 1.226E-03
 
     Adding external electric field

     Computed dipole along edir(3) : 
        Dipole               -0.9263 Ry au,         -2.3544 Debye
        Dipole field         -0.0006 Ry au, 
 
        Potential amp.        0.0625 Ry
        Total length         55.1515 bohr
 
 
     Adding external electric field

     Computed dipole along edir(3) : 
        Dipole               -0.9263 Ry au,         -2.3544 Debye
        Dipole field         -0.0006 Ry au, 
 
        Potential amp.        0.0625 Ry
        Total length         55.1515 bohr
 

     total cpu time spent up to now is      496.4 secs

     total energy              =   -7738.24175976 Ry
     estimated scf accuracy    <       0.01323315 Ry

     total magnetization       =    88.70 Bohr mag/cell
     absolute magnetization    =    90.02 Bohr mag/cell

     iteration # 31     ecut=    50.00 Ry     beta= 0.10
     Davidson diagonalization with overlap
     ethr =  1.21E-06,  avg # of iterations =  2.0

     negative rho (up, down):  1.207E-03 9.790E-04
 
     Adding external electric field

     Computed dipole along edir(3) : 
        Dipole               -0.9030 Ry au,         -2.2952 Debye
        Dipole field         -0.0006 Ry au, 
 
        Potential amp.        0.0610 Ry
        Total length         55.1515 bohr
 
 
     Adding external electric field

     Computed dipole along edir(3) : 
        Dipole               -0.9030 Ry au,         -2.2952 Debye
        Dipole field         -0.0006 Ry au, 
 
        Potential amp.        0.0610 Ry
        Total length         55.1515 bohr
 

     total cpu time spent up to now is      509.2 secs

     total energy              =   -7738.24174757 Ry
     estimated scf accuracy    <       0.01129029 Ry

     total magnetization       =    88.69 Bohr mag/cell
     absolute magnetization    =    90.05 Bohr mag/cell

     iteration # 32     ecut=    50.00 Ry     beta= 0.10
     Davidson diagonalization with overlap
     ethr =  1.03E-06,  avg # of iterations =  2.0

     negative rho (up, down):  1.166E-03 1.032E-03
 
     Adding external electric field

     Computed dipole along edir(3) : 
        Dipole               -0.8504 Ry au,         -2.1615 Debye
        Dipole field         -0.0005 Ry au, 
 
        Potential amp.        0.0574 Ry
        Total length         55.1515 bohr
 
 
     Adding external electric field

     Computed dipole along edir(3) : 
        Dipole               -0.8504 Ry au,         -2.1615 Debye
        Dipole field         -0.0005 Ry au, 
 
        Potential amp.        0.0574 Ry
        Total length         55.1515 bohr
 

     total cpu time spent up to now is      521.9 secs

     total energy              =   -7738.24165755 Ry
     estimated scf accuracy    <       0.00949297 Ry

     total magnetization       =    88.70 Bohr mag/cell
     absolute magnetization    =    90.11 Bohr mag/cell

     iteration # 33     ecut=    50.00 Ry     beta= 0.10
     Davidson diagonalization with overlap
     ethr =  8.69E-07,  avg # of iterations =  2.0

     negative rho (up, down):  8.933E-04 7.800E-04
 
     Adding external electric field

     Computed dipole along edir(3) : 
        Dipole               -0.8333 Ry au,         -2.1180 Debye
        Dipole field         -0.0005 Ry au, 
 
        Potential amp.        0.0563 Ry
        Total length         55.1515 bohr
 
 
     Adding external electric field

     Computed dipole along edir(3) : 
        Dipole               -0.8333 Ry au,         -2.1180 Debye
        Dipole field         -0.0005 Ry au, 
 
        Potential amp.        0.0563 Ry
        Total length         55.1515 bohr
 

     total cpu time spent up to now is      535.5 secs

     total energy              =   -7738.24170542 Ry
     estimated scf accuracy    <       0.00829244 Ry

     total magnetization       =    88.67 Bohr mag/cell
     absolute magnetization    =    90.13 Bohr mag/cell

     iteration # 34     ecut=    50.00 Ry     beta= 0.10
     Davidson diagonalization with overlap
     ethr =  7.59E-07,  avg # of iterations =  1.0

     negative rho (up, down):  3.669E-04 2.452E-04
 
     Adding external electric field

     Computed dipole along edir(3) : 
        Dipole               -0.8097 Ry au,         -2.0580 Debye
        Dipole field         -0.0005 Ry au, 
 
        Potential amp.        0.0547 Ry
        Total length         55.1515 bohr
 
 
     Adding external electric field

     Computed dipole along edir(3) : 
        Dipole               -0.8097 Ry au,         -2.0580 Debye
        Dipole field         -0.0005 Ry au, 
 
        Potential amp.        0.0547 Ry
        Total length         55.1515 bohr
 

     total cpu time spent up to now is      547.2 secs

     total energy              =   -7738.24150961 Ry
     estimated scf accuracy    <       0.00774515 Ry

     total magnetization       =    88.68 Bohr mag/cell
     absolute magnetization    =    90.16 Bohr mag/cell

     iteration # 35     ecut=    50.00 Ry     beta= 0.10
     Davidson diagonalization with overlap
     ethr =  7.09E-07,  avg # of iterations =  2.0

     negative rho (up, down):  1.954E-04 1.270E-04
 
     Adding external electric field

     Computed dipole along edir(3) : 
        Dipole               -0.7463 Ry au,         -1.8970 Debye
        Dipole field         -0.0005 Ry au, 
 
        Potential amp.        0.0504 Ry
        Total length         55.1515 bohr
 
 
     Adding external electric field

     Computed dipole along edir(3) : 
        Dipole               -0.7463 Ry au,         -1.8970 Debye
        Dipole field         -0.0005 Ry au, 
 
        Potential amp.        0.0504 Ry
        Total length         55.1515 bohr
 

     total cpu time spent up to now is      560.2 secs

     total energy              =   -7738.24151532 Ry
     estimated scf accuracy    <       0.00605377 Ry

     total magnetization       =    88.72 Bohr mag/cell
     absolute magnetization    =    90.22 Bohr mag/cell

     iteration # 36     ecut=    50.00 Ry     beta= 0.10
     Davidson diagonalization with overlap
     ethr =  5.54E-07,  avg # of iterations =  2.0

     negative rho (up, down):  1.492E-04 8.811E-05
 
     Adding external electric field

     Computed dipole along edir(3) : 
        Dipole               -0.7097 Ry au,         -1.8039 Debye
        Dipole field         -0.0004 Ry au, 
 
        Potential amp.        0.0479 Ry
        Total length         55.1515 bohr
 
 
     Adding external electric field

     Computed dipole along edir(3) : 
        Dipole               -0.7097 Ry au,         -1.8039 Debye
        Dipole field         -0.0004 Ry au, 
 
        Potential amp.        0.0479 Ry
        Total length         55.1515 bohr
 

     total cpu time spent up to now is      574.0 secs

     total energy              =   -7738.24168643 Ry
     estimated scf accuracy    <       0.00395930 Ry

     total magnetization       =    88.68 Bohr mag/cell
     absolute magnetization    =    90.18 Bohr mag/cell

     iteration # 37     ecut=    50.00 Ry     beta= 0.10
     Davidson diagonalization with overlap
     ethr =  3.62E-07,  avg # of iterations =  2.0

     negative rho (up, down):  1.549E-04 7.394E-05
 
     Adding external electric field

     Computed dipole along edir(3) : 
        Dipole               -0.6793 Ry au,         -1.7266 Debye
        Dipole field         -0.0004 Ry au, 
 
        Potential amp.        0.0459 Ry
        Total length         55.1515 bohr
 
 
     Adding external electric field

     Computed dipole along edir(3) : 
        Dipole               -0.6793 Ry au,         -1.7266 Debye
        Dipole field         -0.0004 Ry au, 
 
        Potential amp.        0.0459 Ry
        Total length         55.1515 bohr
 

     total cpu time spent up to now is      587.3 secs

     total energy              =   -7738.24184810 Ry
     estimated scf accuracy    <       0.00268930 Ry

     total magnetization       =    88.70 Bohr mag/cell
     absolute magnetization    =    90.17 Bohr mag/cell

     iteration # 38     ecut=    50.00 Ry     beta= 0.10
     Davidson diagonalization with overlap
     ethr =  2.46E-07,  avg # of iterations =  5.5

     negative rho (up, down):  6.557E-05 1.976E-05
 
     Adding external electric field

     Computed dipole along edir(3) : 
        Dipole               -0.6820 Ry au,         -1.7336 Debye
        Dipole field         -0.0004 Ry au, 
 
        Potential amp.        0.0460 Ry
        Total length         55.1515 bohr
 
 
     Adding external electric field

     Computed dipole along edir(3) : 
        Dipole               -0.6820 Ry au,         -1.7336 Debye
        Dipole field         -0.0004 Ry au, 
 
        Potential amp.        0.0460 Ry
        Total length         55.1515 bohr
 

     total cpu time spent up to now is      602.4 secs

     total energy              =   -7738.24189839 Ry
     estimated scf accuracy    <       0.00192946 Ry

     total magnetization       =    88.69 Bohr mag/cell
     absolute magnetization    =    90.12 Bohr mag/cell

     iteration # 39     ecut=    50.00 Ry     beta= 0.10
     Davidson diagonalization with overlap
     ethr =  1.77E-07,  avg # of iterations =  2.0

     negative rho (up, down):  1.876E-03 1.466E-03
 
     Adding external electric field

     Computed dipole along edir(3) : 
        Dipole               -0.6548 Ry au,         -1.6643 Debye
        Dipole field         -0.0004 Ry au, 
 
        Potential amp.        0.0442 Ry
        Total length         55.1515 bohr
 
 
     Adding external electric field

     Computed dipole along edir(3) : 
        Dipole               -0.6548 Ry au,         -1.6643 Debye
        Dipole field         -0.0004 Ry au, 
 
        Potential amp.        0.0442 Ry
        Total length         55.1515 bohr
 

     total cpu time spent up to now is      615.7 secs

     total energy              =   -7738.24187429 Ry
     estimated scf accuracy    <       0.00141501 Ry

     total magnetization       =    88.67 Bohr mag/cell
     absolute magnetization    =    90.08 Bohr mag/cell

     iteration # 40     ecut=    50.00 Ry     beta= 0.10
     Davidson diagonalization with overlap
     ethr =  1.29E-07,  avg # of iterations =  2.0

     negative rho (up, down):  8.783E-05 2.723E-05
 
     Adding external electric field

     Computed dipole along edir(3) : 
        Dipole               -0.7054 Ry au,         -1.7931 Debye
        Dipole field         -0.0004 Ry au, 
 
        Potential amp.        0.0476 Ry
        Total length         55.1515 bohr
 
 
     Adding external electric field

     Computed dipole along edir(3) : 
        Dipole               -0.7054 Ry au,         -1.7931 Debye
        Dipole field         -0.0004 Ry au, 
 
        Potential amp.        0.0476 Ry
        Total length         55.1515 bohr
 

     total cpu time spent up to now is      628.7 secs

     total energy              =   -7738.24186883 Ry
     estimated scf accuracy    <       0.00085789 Ry

     total magnetization       =    88.67 Bohr mag/cell
     absolute magnetization    =    90.07 Bohr mag/cell

     iteration # 41     ecut=    50.00 Ry     beta= 0.10
     Davidson diagonalization with overlap
     ethr =  7.85E-08,  avg # of iterations =  2.0

     negative rho (up, down):  9.350E-05 2.596E-05
 
     Adding external electric field

     Computed dipole along edir(3) : 
        Dipole               -0.7104 Ry au,         -1.8056 Debye
        Dipole field         -0.0004 Ry au, 
 
        Potential amp.        0.0480 Ry
        Total length         55.1515 bohr
 
 
     Adding external electric field

     Computed dipole along edir(3) : 
        Dipole               -0.7104 Ry au,         -1.8056 Debye
        Dipole field         -0.0004 Ry au, 
 
        Potential amp.        0.0480 Ry
        Total length         55.1515 bohr
 

     total cpu time spent up to now is      641.8 secs

     total energy              =   -7738.24189391 Ry
     estimated scf accuracy    <       0.00035236 Ry

     total magnetization       =    88.65 Bohr mag/cell
     absolute magnetization    =    90.05 Bohr mag/cell

     iteration # 42     ecut=    50.00 Ry     beta= 0.10
     Davidson diagonalization with overlap
     ethr =  3.22E-08,  avg # of iterations =  2.0

     negative rho (up, down):  1.073E-04 2.234E-05
 
     Adding external electric field

     Computed dipole along edir(3) : 
        Dipole               -0.7058 Ry au,         -1.7940 Debye
        Dipole field         -0.0004 Ry au, 
 
        Potential amp.        0.0477 Ry
        Total length         55.1515 bohr
 
 
     Adding external electric field

     Computed dipole along edir(3) : 
        Dipole               -0.7058 Ry au,         -1.7940 Debye
        Dipole field         -0.0004 Ry au, 
 
        Potential amp.        0.0477 Ry
        Total length         55.1515 bohr
 

     total cpu time spent up to now is      655.0 secs

     total energy              =   -7738.24192262 Ry
     estimated scf accuracy    <       0.00018046 Ry

     total magnetization       =    88.64 Bohr mag/cell
     absolute magnetization    =    90.02 Bohr mag/cell

     iteration # 43     ecut=    50.00 Ry     beta= 0.10
     Davidson diagonalization with overlap
     ethr =  1.65E-08,  avg # of iterations =  2.0

     negative rho (up, down):  5.362E-04 2.958E-04
 
     Adding external electric field

     Computed dipole along edir(3) : 
        Dipole               -0.6891 Ry au,         -1.7515 Debye
        Dipole field         -0.0004 Ry au, 
 
        Potential amp.        0.0465 Ry
        Total length         55.1515 bohr
 
 
     Adding external electric field

     Computed dipole along edir(3) : 
        Dipole               -0.6891 Ry au,         -1.7515 Debye
        Dipole field         -0.0004 Ry au, 
 
        Potential amp.        0.0465 Ry
        Total length         55.1515 bohr
 

     total cpu time spent up to now is      668.8 secs

     total energy              =   -7738.24195710 Ry
     estimated scf accuracy    <       0.00013309 Ry

     total magnetization       =    88.64 Bohr mag/cell
     absolute magnetization    =    90.02 Bohr mag/cell

     iteration # 44     ecut=    50.00 Ry     beta= 0.10
     Davidson diagonalization with overlap
     ethr =  1.22E-08,  avg # of iterations =  2.0

     negative rho (up, down):  6.189E-04 3.149E-04
 
     Adding external electric field

     Computed dipole along edir(3) : 
        Dipole               -0.6801 Ry au,         -1.7287 Debye
        Dipole field         -0.0004 Ry au, 
 
        Potential amp.        0.0459 Ry
        Total length         55.1515 bohr
 
 
     Adding external electric field

     Computed dipole along edir(3) : 
        Dipole               -0.6801 Ry au,         -1.7287 Debye
        Dipole field         -0.0004 Ry au, 
 
        Potential amp.        0.0459 Ry
        Total length         55.1515 bohr
 

     total cpu time spent up to now is      682.6 secs

     total energy              =   -7738.24198017 Ry
     estimated scf accuracy    <       0.00007083 Ry

     total magnetization       =    88.64 Bohr mag/cell
     absolute magnetization    =    90.03 Bohr mag/cell

     iteration # 45     ecut=    50.00 Ry     beta= 0.10
     Davidson diagonalization with overlap
     ethr =  6.48E-09,  avg # of iterations =  4.0

     negative rho (up, down):  1.027E-03 6.517E-04
 
     Adding external electric field

     Computed dipole along edir(3) : 
        Dipole               -0.6708 Ry au,         -1.7050 Debye
        Dipole field         -0.0004 Ry au, 
 
        Potential amp.        0.0453 Ry
        Total length         55.1515 bohr
 
 
     Adding external electric field

     Computed dipole along edir(3) : 
        Dipole               -0.6708 Ry au,         -1.7050 Debye
        Dipole field         -0.0004 Ry au, 
 
        Potential amp.        0.0453 Ry
        Total length         55.1515 bohr
 

     total cpu time spent up to now is      697.5 secs

     total energy              =   -7738.24199044 Ry
     estimated scf accuracy    <       0.00003918 Ry

     total magnetization       =    88.64 Bohr mag/cell
     absolute magnetization    =    90.03 Bohr mag/cell

     iteration # 46     ecut=    50.00 Ry     beta= 0.10
     Davidson diagonalization with overlap
     ethr =  3.58E-09,  avg # of iterations =  2.0

     negative rho (up, down):  9.400E-04 5.453E-04
 
     Adding external electric field

     Computed dipole along edir(3) : 
        Dipole               -0.6713 Ry au,         -1.7062 Debye
        Dipole field         -0.0004 Ry au, 
 
        Potential amp.        0.0453 Ry
        Total length         55.1515 bohr
 
 
     Adding external electric field

     Computed dipole along edir(3) : 
        Dipole               -0.6713 Ry au,         -1.7062 Debye
        Dipole field         -0.0004 Ry au, 
 
        Potential amp.        0.0453 Ry
        Total length         55.1515 bohr
 

     total cpu time spent up to now is      711.6 secs

     total energy              =   -7738.24199326 Ry
     estimated scf accuracy    <       0.00001697 Ry

     total magnetization       =    88.64 Bohr mag/cell
     absolute magnetization    =    90.03 Bohr mag/cell

     iteration # 47     ecut=    50.00 Ry     beta= 0.10
     Davidson diagonalization with overlap
     ethr =  1.55E-09,  avg # of iterations =  2.0

     negative rho (up, down):  1.004E-03 5.702E-04
 
     Adding external electric field

     Computed dipole along edir(3) : 
        Dipole               -0.6694 Ry au,         -1.7015 Debye
        Dipole field         -0.0004 Ry au, 
 
        Potential amp.        0.0452 Ry
        Total length         55.1515 bohr
 
 
     Adding external electric field

     Computed dipole along edir(3) : 
        Dipole               -0.6694 Ry au,         -1.7015 Debye
        Dipole field         -0.0004 Ry au, 
 
        Potential amp.        0.0452 Ry
        Total length         55.1515 bohr
 

     total cpu time spent up to now is      725.7 secs

     total energy              =   -7738.24199482 Ry
     estimated scf accuracy    <       0.00001214 Ry

     total magnetization       =    88.64 Bohr mag/cell
     absolute magnetization    =    90.03 Bohr mag/cell

     iteration # 48     ecut=    50.00 Ry     beta= 0.10
     Davidson diagonalization with overlap
     ethr =  1.11E-09,  avg # of iterations =  2.0

     negative rho (up, down):  9.828E-04 5.188E-04
 
     Adding external electric field

     Computed dipole along edir(3) : 
        Dipole               -0.6689 Ry au,         -1.7002 Debye
        Dipole field         -0.0004 Ry au, 
 
        Potential amp.        0.0452 Ry
        Total length         55.1515 bohr
 
 
     Adding external electric field

     Computed dipole along edir(3) : 
        Dipole               -0.6689 Ry au,         -1.7002 Debye
        Dipole field         -0.0004 Ry au, 
 
        Potential amp.        0.0452 Ry
        Total length         55.1515 bohr
 

     total cpu time spent up to now is      739.4 secs

     total energy              =   -7738.24199524 Ry
     estimated scf accuracy    <       0.00000553 Ry

     total magnetization       =    88.64 Bohr mag/cell
     absolute magnetization    =    90.03 Bohr mag/cell

     iteration # 49     ecut=    50.00 Ry     beta= 0.10
     Davidson diagonalization with overlap
     ethr =  5.06E-10,  avg # of iterations =  3.0

     negative rho (up, down):  1.024E-03 5.529E-04
 
     Adding external electric field

     Computed dipole along edir(3) : 
        Dipole               -0.6684 Ry au,         -1.6990 Debye
        Dipole field         -0.0004 Ry au, 
 
        Potential amp.        0.0451 Ry
        Total length         55.1515 bohr
 
 
     Adding external electric field

     Computed dipole along edir(3) : 
        Dipole               -0.6684 Ry au,         -1.6990 Debye
        Dipole field         -0.0004 Ry au, 
 
        Potential amp.        0.0451 Ry
        Total length         55.1515 bohr
 

     total cpu time spent up to now is      753.8 secs

     total energy              =   -7738.24199572 Ry
     estimated scf accuracy    <       0.00000226 Ry

     total magnetization       =    88.65 Bohr mag/cell
     absolute magnetization    =    90.04 Bohr mag/cell

     iteration # 50     ecut=    50.00 Ry     beta= 0.10
     Davidson diagonalization with overlap
     ethr =  2.07E-10,  avg # of iterations =  5.0

     negative rho (up, down):  1.042E-03 5.713E-04
 
     Adding external electric field

     Computed dipole along edir(3) : 
        Dipole               -0.6681 Ry au,         -1.6980 Debye
        Dipole field         -0.0004 Ry au, 
 
        Potential amp.        0.0451 Ry
        Total length         55.1515 bohr
 
 
     Adding external electric field

     Computed dipole along edir(3) : 
        Dipole               -0.6681 Ry au,         -1.6980 Debye
        Dipole field         -0.0004 Ry au, 
 
        Potential amp.        0.0451 Ry
        Total length         55.1515 bohr
 

     total cpu time spent up to now is      768.4 secs

     total energy              =   -7738.24199591 Ry
     estimated scf accuracy    <       0.00000138 Ry

     total magnetization       =    88.65 Bohr mag/cell
     absolute magnetization    =    90.04 Bohr mag/cell

     iteration # 51     ecut=    50.00 Ry     beta= 0.10
     Davidson diagonalization with overlap
     ethr =  1.26E-10,  avg # of iterations =  2.0

     negative rho (up, down):  1.050E-03 5.858E-04
 
     Adding external electric field

     Computed dipole along edir(3) : 
        Dipole               -0.6739 Ry au,         -1.7129 Debye
        Dipole field         -0.0004 Ry au, 
 
        Potential amp.        0.0455 Ry
        Total length         55.1515 bohr
 
 
     Adding external electric field

     Computed dipole along edir(3) : 
        Dipole               -0.6739 Ry au,         -1.7129 Debye
        Dipole field         -0.0004 Ry au, 
 
        Potential amp.        0.0455 Ry
        Total length         55.1515 bohr
 
 
     Magnetic moment per site  (integrated on atomic sphere of radius R)
     atom   1 (R=0.088)  charge=  7.4493  magn=  1.4687
     atom   2 (R=0.091)  charge= 12.1679  magn=  3.8931
     atom   3 (R=0.088)  charge=  7.4006  magn=  1.6801
     atom   4 (R=0.088)  charge=  7.4450  magn=  1.5655
     atom   5 (R=0.088)  charge=  7.4695  magn=  1.5289
     atom   6 (R=0.088)  charge=  7.4632  magn=  1.5296
     atom   7 (R=0.068)  charge=  0.8309  magn=  0.0072
     atom   8 (R=0.068)  charge=  0.8317  magn=  0.0035
     atom   9 (R=0.068)  charge=  0.8312  magn=  0.0035
     atom  10 (R=0.068)  charge=  0.8304  magn=  0.0072
     atom  11 (R=0.045)  charge=  2.0095  magn=  0.0645
     atom  12 (R=0.045)  charge=  2.0099  magn=  0.0772
     atom  13 (R=0.045)  charge=  2.0059  magn=  0.0943
     atom  14 (R=0.045)  charge=  2.0077  magn=  0.0826
     atom  15 (R=0.045)  charge=  2.0171  magn=  0.0461
     atom  16 (R=0.045)  charge=  1.9955  magn=  0.0493
     atom  17 (R=0.045)  charge=  2.0019  magn=  0.0411
     atom  18 (R=0.045)  charge=  2.0152  magn=  0.0539
     atom  19 (R=0.045)  charge=  2.0181  magn=  0.0440
     atom  20 (R=0.045)  charge=  2.0130  magn=  0.0525
     atom  21 (R=0.045)  charge=  2.0181  magn=  0.0483
     atom  22 (R=0.045)  charge=  2.0165  magn=  0.0556
     atom  23 (R=0.045)  charge=  2.0154  magn=  0.0529
     atom  24 (R=0.045)  charge=  2.0136  magn=  0.0531
     atom  25 (R=0.045)  charge=  2.0160  magn=  0.0512
     atom  26 (R=0.045)  charge=  2.0211  magn=  0.0348
     atom  27 (R=0.088)  charge=  7.4431  magn=  1.5559
     atom  28 (R=0.091)  charge= 12.1840  magn=  3.9371
     atom  29 (R=0.088)  charge=  7.4430  magn=  1.5668
     atom  30 (R=0.088)  charge=  7.4468  magn=  1.5652
     atom  31 (R=0.088)  charge=  7.4704  magn=  1.5423
     atom  32 (R=0.088)  charge=  7.4666  magn=  1.5399
     atom  33 (R=0.068)  charge=  0.8304  magn=  0.0072
     atom  34 (R=0.068)  charge=  0.8291  magn=  0.0083
     atom  35 (R=0.068)  charge=  0.8284  magn=  0.0061
     atom  36 (R=0.068)  charge=  0.8310  magn=  0.0071
     atom  37 (R=0.045)  charge=  2.0081  magn=  0.0691
     atom  38 (R=0.045)  charge=  2.0103  magn=  0.0666
     atom  39 (R=0.045)  charge=  2.0067  magn=  0.0830
     atom  40 (R=0.045)  charge=  2.0053  magn=  0.0807
     atom  41 (R=0.045)  charge=  2.0171  magn=  0.0477
     atom  42 (R=0.045)  charge=  2.0189  magn=  0.0452
     atom  43 (R=0.045)  charge=  2.0147  magn=  0.0560
     atom  44 (R=0.045)  charge=  2.0143  magn=  0.0540
     atom  45 (R=0.045)  charge=  2.0186  magn=  0.0474
     atom  46 (R=0.045)  charge=  2.0155  magn=  0.0580
     atom  47 (R=0.045)  charge=  2.0175  magn=  0.0503
     atom  48 (R=0.045)  charge=  2.0164  magn=  0.0504
     atom  49 (R=0.045)  charge=  2.0148  magn=  0.0478
     atom  50 (R=0.045)  charge=  2.0141  magn=  0.0556
     atom  51 (R=0.045)  charge=  2.0152  magn=  0.0535
     atom  52 (R=0.045)  charge=  2.0206  magn=  0.0381
     atom  53 (R=0.088)  charge=  7.4404  magn=  1.5645
     atom  54 (R=0.091)  charge= 12.1692  magn=  3.9568
     atom  55 (R=0.088)  charge=  7.4441  magn=  1.5661
     atom  56 (R=0.088)  charge=  7.4640  magn=  1.4545
     atom  57 (R=0.088)  charge=  7.4702  magn=  1.5389
     atom  58 (R=0.088)  charge=  7.4665  magn=  1.5399
     atom  59 (R=0.068)  charge=  0.8326  magn=  0.0051
     atom  60 (R=0.068)  charge=  0.8286  magn=  0.0081
     atom  61 (R=0.068)  charge=  0.8284  magn=  0.0061
     atom  62 (R=0.068)  charge=  0.8344  magn=  0.0039
     atom  63 (R=0.045)  charge=  2.0082  magn=  0.0764
     atom  64 (R=0.045)  charge=  2.0085  magn=  0.0656
     atom  65 (R=0.045)  charge=  2.0066  magn=  0.0810
     atom  66 (R=0.045)  charge=  2.0056  magn=  0.0918
     atom  67 (R=0.045)  charge=  2.0016  magn=  0.0362
     atom  68 (R=0.045)  charge=  2.0185  magn=  0.0448
     atom  69 (R=0.045)  charge=  2.0134  magn=  0.0550
     atom  70 (R=0.045)  charge=  1.9993  magn=  0.0450
     atom  71 (R=0.045)  charge=  2.0210  magn=  0.0452
     atom  72 (R=0.045)  charge=  2.0151  magn=  0.0576
     atom  73 (R=0.045)  charge=  2.0168  magn=  0.0492
     atom  74 (R=0.045)  charge=  2.0178  magn=  0.0499
     atom  75 (R=0.045)  charge=  2.0157  magn=  0.0471
     atom  76 (R=0.045)  charge=  2.0142  magn=  0.0551
     atom  77 (R=0.045)  charge=  2.0131  magn=  0.0479
     atom  78 (R=0.045)  charge=  2.0199  magn=  0.0373
     atom  79 (R=0.088)  charge=  7.4496  magn=  1.4678
     atom  80 (R=0.091)  charge= 12.1670  magn=  3.8915
     atom  81 (R=0.088)  charge=  7.4569  magn=  1.4596
     atom  82 (R=0.088)  charge=  7.4439  magn=  1.5690
     atom  83 (R=0.088)  charge=  7.4687  magn=  1.5276
     atom  84 (R=0.088)  charge=  7.4639  magn=  1.5207
     atom  85 (R=0.068)  charge=  0.8311  magn=  0.0072
     atom  86 (R=0.068)  charge=  0.8303  magn=  0.0036
     atom  87 (R=0.068)  charge=  0.8328  magn=  0.0033
     atom  88 (R=0.068)  charge=  0.8316  magn=  0.0071
     atom  89 (R=0.045)  charge=  2.0088  magn=  0.0648
     atom  90 (R=0.045)  charge=  2.0099  magn=  0.0791
     atom  91 (R=0.045)  charge=  2.0067  magn=  0.0824
     atom  92 (R=0.045)  charge=  2.0071  magn=  0.0773
     atom  93 (R=0.045)  charge=  2.0159  magn=  0.0463
     atom  94 (R=0.045)  charge=  1.9946  magn=  0.0521
     atom  95 (R=0.045)  charge=  1.9964  magn=  0.0654
     atom  96 (R=0.045)  charge=  2.0162  magn=  0.0532
     atom  97 (R=0.045)  charge=  2.0197  magn=  0.0422
     atom  98 (R=0.045)  charge=  2.0142  magn=  0.0533
     atom  99 (R=0.045)  charge=  2.0168  magn=  0.0488
     atom 100 (R=0.045)  charge=  2.0170  magn=  0.0496
     atom 101 (R=0.045)  charge=  2.0155  magn=  0.0496
     atom 102 (R=0.045)  charge=  2.0140  magn=  0.0653
     atom 103 (R=0.045)  charge=  2.0156  magn=  0.0515
     atom 104 (R=0.045)  charge=  2.0215  magn=  0.0349
     atom 105 (R=0.088)  charge=  7.4429  magn=  1.5563
     atom 106 (R=0.091)  charge= 12.1841  magn=  3.9372
     atom 107 (R=0.088)  charge=  7.4427  magn=  1.5671
     atom 108 (R=0.088)  charge=  7.4468  magn=  1.5653
     atom 109 (R=0.088)  charge=  7.4703  magn=  1.5423
     atom 110 (R=0.088)  charge=  7.4666  magn=  1.5399
     atom 111 (R=0.068)  charge=  0.8309  magn=  0.0072
     atom 112 (R=0.068)  charge=  0.8288  magn=  0.0083
     atom 113 (R=0.068)  charge=  0.8285  magn=  0.0062
     atom 114 (R=0.068)  charge=  0.8314  magn=  0.0071
[...]
     atom   99 type  4   force =     0.00061435    0.00012954   -0.00004869
     atom  100 type  4   force =    -0.00011382    0.00035471    0.00012427
     atom  101 type  4   force =     0.00034647   -0.00007584   -0.00040254
     atom  102 type  4   force =     0.00060940   -0.00050294   -0.00053821
     atom  103 type  4   force =     0.00055995   -0.00001981   -0.00049611
     atom  104 type  4   force =    -0.00031994   -0.00008518    0.00068524
     atom  105 type  1   force =    -0.00579022   -0.00890689   -0.00429221
     atom  106 type  2   force =    -0.01213307    0.00008479   -0.00183007
     atom  107 type  1   force =     0.00275428   -0.00409061    0.00041403
     atom  108 type  1   force =     0.00239652    0.00391213   -0.00164331
     atom  109 type  1   force =     0.00182764   -0.00480896   -0.00029876
     atom  110 type  1   force =    -0.00089826    0.00114253    0.00191009
     atom  111 type  3   force =    -0.00707342   -0.00081454   -0.00048473
     atom  112 type  3   force =    -0.00679938    0.00249306   -0.00022973
     atom  113 type  3   force =     0.00400273   -0.00062996   -0.00541882
     atom  114 type  3   force =     0.00114049   -0.00127178    0.00288988
     atom  115 type  4   force =     0.00871086    0.00506944   -0.00761703
     atom  116 type  4   force =     0.00358519   -0.00106542    0.02026603
     atom  117 type  4   force =    -0.00124812    0.00350351    0.01023178
     atom  118 type  4   force =    -0.00156125   -0.00240710   -0.00895305
     atom  119 type  4   force =     0.00213580    0.00852264    0.00642528
     atom  120 type  4   force =    -0.00549664   -0.00352235   -0.01963604
     atom  121 type  4   force =     0.00980180    0.00659303   -0.00841206
     atom  122 type  4   force =     0.00704550   -0.00303419    0.00603175
     atom  123 type  4   force =     0.00204587    0.00590830   -0.00056684
     atom  124 type  4   force =     0.00310888    0.00139655    0.00506506
     atom  125 type  4   force =    -0.01309257    0.00020188    0.00324841
     atom  126 type  4   force =    -0.01450067    0.00263828   -0.00350382
     atom  127 type  4   force =     0.01248213    0.00263225   -0.00461804
     atom  128 type  4   force =    -0.00401701   -0.00408903   -0.00043742
     atom  129 type  4   force =    -0.00439397    0.00263108   -0.00054537
     atom  130 type  4   force =     0.01638037   -0.00322559    0.00418931
     atom  131 type  1   force =    -0.00755729   -0.00704664   -0.00839542
     atom  132 type  2   force =     0.01575729    0.01727129   -0.00989751
     atom  133 type  1   force =     0.00579249   -0.00488983   -0.00579711
     atom  134 type  1   force =    -0.02054912    0.01926344    0.01987840
     atom  135 type  1   force =     0.00445514   -0.00756237   -0.00141638
     atom  136 type  1   force =    -0.00390302   -0.00535194   -0.00089175
     atom  137 type  3   force =    -0.03903326   -0.03834567   -0.05606387
     atom  138 type  3   force =    -0.00486142   -0.00127116   -0.00116890
     atom  139 type  3   force =     0.00272160   -0.00100762   -0.01015740
     atom  140 type  3   force =     0.02908628   -0.04950322   -0.06060506
     atom  141 type  4   force =     0.00619370    0.00350963    0.02106578
     atom  142 type  4   force =     0.00439517    0.00234042    0.01455586
     atom  143 type  4   force =    -0.00059094    0.00284479    0.01277159
     atom  144 type  4   force =     0.00019546    0.00220820    0.01641887
     atom  145 type  4   force =     0.00119222   -0.00065790    0.03904801
     atom  146 type  4   force =    -0.00546112   -0.00392133   -0.01719310
     atom  147 type  4   force =     0.00779572    0.00454357   -0.00277015
     atom  148 type  4   force =     0.00165426   -0.00742590    0.03539507
     atom  149 type  4   force =    -0.00929092    0.03921454    0.00092164
     atom  150 type  4   force =     0.00207372   -0.00046842    0.00794461
     atom  151 type  4   force =    -0.03003288    0.00087863    0.00762749
     atom  152 type  4   force =    -0.01361236    0.00143847   -0.00042439
     atom  153 type  4   force =     0.01213663    0.00360452   -0.00251534
     atom  154 type  4   force =    -0.00245836   -0.00280010    0.00248751
     atom  155 type  4   force =     0.00905868    0.02584277   -0.00263874
     atom  156 type  4   force =     0.03351627   -0.00619107    0.00600042
     atom  157 type  4   force =    -0.00077075    0.00073710   -0.00091469
     atom  158 type  5   force =    -0.00037543    0.00023193    0.00040008

     Total force =     0.004809     Total SCF correction =     0.000279
     Energy error            =      3.8E-05 Ry
     Gradient error          =      9.3E-04 Ry/Bohr

     bfgs converged in  38 scf cycles and  37 bfgs steps
     (criteria: energy <  1.0E-04 Ry, force <  1.0E-03 Ry/Bohr)

     End of BFGS Geometry Optimization

     Final energy             =   -7738.3168797253 Ry

     File ./tmp/pwscf.bfgs deleted, as requested
Begin final coordinates

ATOMIC_POSITIONS (angstrom)
Ni               2.3088626486        7.9090517711       16.0833908113
Mn               4.4672017988        7.2976717758       13.1706403721
Ni               0.0913442492        2.8996815476       16.3690232581
Ni               2.3577407415        2.2505274612       13.1782865428
Ni               4.5701274362       10.1919175612       14.6903818395
Ni               2.3008339677        5.0492687453       14.7852646527
P                1.9087098484        9.2406725937       13.1806598439
P                4.2626920726        6.1158196907       16.2855418965
P                2.6531775692        0.9927449966       16.2183471508
P                0.3569060844        4.0618665128       13.2203849967
O                1.2259569168        8.5708956903       14.4680804573
O                3.5292921533        6.6919491425       14.9264530066
O                3.3420924447        1.6070757695       14.8554171427
O                1.0647561482        3.3911008092       14.4931337547
O                1.3683835161        8.4036547477       11.9967609989
O                3.6839549019        7.0235366495       17.3582821612
O                3.2545469874        1.8747304836       17.3131287408
O                0.9086728626        3.2676722329       12.0112118812
O                0.9050047324        5.5255449242       13.2740469531
O                3.1716623310        9.7043500832       16.1855595290
O                3.4343066998        4.0337448109       13.3249123084
O                1.1130942725        1.0430524565       16.1226436542
O                1.1779540314        6.2043954255       16.0856106292
O                3.7733857428        4.6248520500       16.2441608339
O                1.3600872911        0.5028860791       13.2158171481
O                3.4442703400        9.1554350493       13.2836697683
Ni               2.2231694467        7.8387150113       10.2441428465    0   0   0
Mn               4.5291854344        7.1731699804        7.1554177006    0   0   0
Ni               0.0413377460        2.7013109415       10.2603882940    0   0   0
Ni               2.3609701921        2.0961861161        7.1899515213    0   0   0
Ni               4.5771780352       10.0853977451        8.7130228178    0   0   0
Ni               2.2920501783        4.9198282349        8.7227910824    0   0   0
P                1.9122808731        9.1033963050        7.2173607613    0   0   0
P                4.2159980376        5.9505261806       10.2027763372    0   0   0
P                2.6546169098        0.8591972239       10.2283303116    0   0   0
P                0.3619242519        3.9045525432        7.2190763494    0   0   0
O                1.2036838524        8.4272438680        8.5052521184    0   0   0
O                3.4908594272        6.6070736456        8.9170848147    0   0   0
O                3.3665734522        1.5317059583        8.9373367535    0   0   0
O                1.0719826629        3.2671856475        8.5242565260    0   0   0
O                1.3843584724        8.2616841471        6.0256206039    0   0   0
O                3.6610322847        6.7741729017       11.3943375015    0   0   0
O                3.2083661661        1.6483492612       11.4336134640    0   0   0
O                0.8980336260        3.1100721707        6.0140979227    0   0   0
O                0.9070304683        5.3599334065        7.2594010652    0   0   0
O                3.1870699093        9.5847542147       10.1494340391    0   0   0
O                3.4373778089        3.8725200731        7.3188449707    0   0   0
O                1.1269987174        0.9116358839       10.1328903704    0   0   0
O                1.1379920588        6.0211801669       10.1144969906    0   0   0
O                3.6884944322        4.4881192592       10.1758874244    0   0   0
O                1.3600796965        0.3668542279        7.2516081594    0   0   0
O                3.4345382286        9.0669591473        7.3057765327    0   0   0
Ni               2.2162947113        7.7473428066        4.2400449238    0   0   0
Mn               4.5223106990        7.0817977756        1.1513197779    0   0   0
Ni               0.0344630106        2.6099387368        4.2562903713    0   0   0
Ni               2.3540954567        2.0048139114        1.1858535986    0   0   0
Ni               4.5703032998        9.9940255404        2.7089248952    0   0   0
Ni               2.2851754429        4.8284560302        2.7186931597    0   0   0
P                1.9054061377        9.0120241003        1.2132628386    0   0   0
P                4.2091233022        5.8591539759        4.1986784145    0   0   0
P                2.6477421744        0.7678250192        4.2242323889    0   0   0
P                0.3550495165        3.8131803385        1.2149784268    0   0   0
O                1.1968091169        8.3358716633        2.5011541957    0   0   0
O                3.4839846918        6.5157014409        2.9129868921    0   0   0
O                3.3596987168        1.4403337535        2.9332388308    0   0   0
O                1.0651079275        3.1758134427        2.5201586033    0   0   0
O                1.3774837370        8.1703119424        0.0215226813    0   0   0
O                3.6541575493        6.6828006969        5.3902395788    0   0   0
O                3.2014914307        1.5569770565        5.4295155413    0   0   0
O                0.8911588906        3.0186999659        0.0100000000    0   0   0
O                0.9001557329        5.2685612018        1.2553031425    0   0   0
O                3.1801951739        9.4933820100        4.1453361164    0   0   0
O                3.4305030735        3.7811478683        1.3147470481    0   0   0
O                1.1201239820        0.8202636792        4.1287924477    0   0   0
O                1.1311173233        5.9298079622        4.1103990679    0   0   0
O                3.6816196968        4.3967470545        4.1717895017    0   0   0
O                1.3532049611        0.2754820232        1.2475102367    0   0   0
O                3.4276634932        8.9755869426        1.3016786101    0   0   0
Ni               6.9203785962        7.9490800519       16.0863253272
Mn               9.0788636315        7.2980568329       13.1703592926
Ni               4.6002393965        2.8064065580       16.0575509313
Ni               6.9649270122        2.2439306955       13.1630928930
Ni               9.1827800245       10.2194848629       14.7158134523
Ni               6.9272363695        5.0769835145       14.7486295341
P                6.5219149887        9.2408034685       13.1733257578
P                8.8535116562        6.1524193304       16.2824256347
P                7.2457964230        1.0561394014       16.1551270960
P                4.9671079771        4.0805210438       13.1939770425
O                5.8333638151        8.5712599941       14.4624074746
O                8.1223170920        6.7450453469       14.9202772518
O                7.9495430151        1.6090600255       14.8054039004
O                5.6931312638        3.4237657986       14.4714042677
O                5.9847249072        8.3881903202       11.9989327101
O                8.3080369988        7.0881894201       17.3503272052
O                7.7704850558        1.9732377691       17.2551451187
O                5.5168166450        3.2756554659       11.9957412465
O                5.5165941577        5.5400976689       13.2479410919
O                7.7541476532        9.7582509209       16.1932610905
O                8.0310889727        4.0382711045       13.3109361288
O                5.6977578659        1.0798297886       16.0452344249
O                5.7998801792        6.1951071715       16.1118190919
O                8.3013151360        4.6899038356       16.2185740252
O                5.9520154444        0.4960545394       13.1875100355
O                8.0559160784        9.1713586747       13.2849196671
Ni               6.8287916588        7.8387150113       10.2441428465    0   0   0
Mn               9.1348076465        7.1731699804        7.1554177006    0   0   0
Ni               4.6469599580        2.7013109415       10.2603882940    0   0   0
Ni               6.9665924042        2.0961861161        7.1899515213    0   0   0
Ni               9.1828002472       10.0853977451        8.7130228178    0   0   0
Ni               6.8976723903        4.9198282349        8.7227910824    0   0   0
P                6.5179030852        9.1033963050        7.2173607613    0   0   0
P                8.8216202497        5.9505261806       10.2027763372    0   0   0
P                7.2602391219        0.8591972239       10.2283303116    0   0   0
P                4.9675464640        3.9045525432        7.2190763494    0   0   0
O                5.8093060644        8.4272438680        8.5052521184    0   0   0
O                8.0964816393        6.6070736456        8.9170848147    0   0   0
O                7.9721956643        1.5317059583        8.9373367535    0   0   0
O                5.6776048750        3.2671856475        8.5242565260    0   0   0
O                5.9899806845        8.2616841471        6.0256206039    0   0   0
O                8.2666544968        6.7741729017       11.3943375015    0   0   0
O                7.8139883782        1.6483492612       11.4336134640    0   0   0
O                5.5036558380        3.1100721707        6.0140979227    0   0   0
O                5.5126526804        5.3599334065        7.2594010652    0   0   0
O                7.7926921213        9.5847542147       10.1494340391    0   0   0
O                8.0430000209        3.8725200731        7.3188449707    0   0   0
O                5.7326209294        0.9116358839       10.1328903704    0   0   0
O                5.7436142708        6.0211801669       10.1144969906    0   0   0
O                8.2941166443        4.4881192592       10.1758874244    0   0   0
O                5.9657019086        0.3668542279        7.2516081594    0   0   0
O                8.0401604407        9.0669591473        7.3057765327    0   0   0
Ni               6.8219169233        7.7473428066        4.2400449238    0   0   0
Mn               9.1279329110        7.0817977756        1.1513197779    0   0   0
Ni               4.6400852226        2.6099387368        4.2562903713    0   0   0
Ni               6.9597176688        2.0048139114        1.1858535986    0   0   0
Ni               9.1759255118        9.9940255404        2.7089248952    0   0   0
Ni               6.8907976549        4.8284560302        2.7186931597    0   0   0
P                6.5110283498        9.0120241003        1.2132628386    0   0   0
P                8.8147455142        5.8591539759        4.1986784145    0   0   0
P                7.2533643865        0.7678250192        4.2242323889    0   0   0
P                4.9606717285        3.8131803385        1.2149784268    0   0   0
O                5.8024313290        8.3358716633        2.5011541957    0   0   0
O                8.0896069039        6.5157014409        2.9129868921    0   0   0
O                7.9653209289        1.4403337535        2.9332388308    0   0   0
O                5.6707301395        3.1758134427        2.5201586033    0   0   0
O                5.9831059490        8.1703119424        0.0215226813    0   0   0
O                8.2597797614        6.6828006969        5.3902395788    0   0   0
O                7.8071136427        1.5569770565        5.4295155413    0   0   0
O                5.4967811026        3.0186999659        0.0100000000    0   0   0
O                5.5057779450        5.2685612018        1.2553031425    0   0   0
O                7.7858173859        9.4933820100        4.1453361164    0   0   0
O                8.0361252855        3.7811478683        1.3147470481    0   0   0
O                5.7257461940        0.8202636792        4.1287924477    0   0   0
O                5.7367395354        5.9298079622        4.1103990679    0   0   0
O                8.2872419088        4.3967470545        4.1717895017    0   0   0
O                5.9588271731        0.2754820232        1.2475102367    0   0   0
O                8.0332857052        8.9755869426        1.3016786101    0   0   0
O                1.1775356965        3.6613369154       17.6082567874
H                1.9564618855        3.0864283960       17.8242513945
End final coordinates



     Writing all to output data dir ./tmp/pwscf.save/
 
     init_run     :      7.80s CPU      8.37s WALL (       1 calls)
     electrons    :  11550.58s CPU  12131.66s WALL (      38 calls)
     update_pot   :     16.78s CPU     19.89s WALL (      37 calls)
     forces       :    166.06s CPU    184.44s WALL (      38 calls)
     force_london :      3.36s CPU      3.36s WALL (      38 calls)

     Called by init_run:
     wfcinit      :      4.63s CPU      4.76s WALL (       1 calls)
     potinit      :      0.62s CPU      0.81s WALL (       1 calls)
     hinit0       :      1.44s CPU      1.56s WALL (       1 calls)

     Called by electrons:
     c_bands      :   8886.30s CPU   9116.85s WALL (     843 calls)
     sum_band     :   1617.42s CPU   1723.98s WALL (     843 calls)
     v_of_rho     :    293.78s CPU    419.93s WALL (     856 calls)
     newd         :    539.81s CPU    627.86s WALL (     856 calls)
     mix_rho      :    220.92s CPU    222.03s WALL (     843 calls)
     energy_londo :      3.14s CPU      3.14s WALL (      38 calls)

     Called by c_bands:
     init_us_2    :     16.87s CPU     17.24s WALL (    3450 calls)
     init_us_2:cp :     16.85s CPU     17.23s WALL (    3450 calls)
     regterg      :   8719.54s CPU   8947.73s WALL (    1687 calls)

     Called by *egterg:
     rdiaghg      :   2045.66s CPU   2152.84s WALL (    5551 calls)
     h_psi        :   3310.60s CPU   3364.82s WALL (    5677 calls)
     s_psi        :    423.58s CPU    423.79s WALL (    5677 calls)
     g_psi        :      3.49s CPU      3.52s WALL (    3988 calls)

     Called by h_psi:
     h_psi:calbec :    916.93s CPU    961.28s WALL (    5677 calls)
     vloc_psi     :   1967.29s CPU   1972.63s WALL (    5677 calls)
     add_vuspsi   :    421.35s CPU    425.80s WALL (    5677 calls)

     General routines
     calbec       :   1417.73s CPU   1486.20s WALL (    7667 calls)
     fft          :    583.28s CPU    731.55s WALL (   15964 calls)
     ffts         :    137.36s CPU    137.58s WALL (   98495 calls)
     fftw         :   2315.96s CPU   2321.98s WALL ( 2884152 calls)
     interpolate  :     21.48s CPU     22.68s WALL (    1712 calls)
 
     Parallel routines
 
     PWSCF        :      3h16m CPU      3h27m WALL

 
   This run was terminated on:  22:51:28  10Nov2025            

=------------------------------------------------------------------------------=
   JOB DONE.
=------------------------------------------------------------------------------=
