
     Program PWSCF v.7.2 starts on 17Nov2025 at 20:50:59 

     This program is part of the open-source Quantum ESPRESSO suite
     for quantum simulation of materials; please cite
         "P. Giannozzi et al., J. Phys.:Condens. Matter 21 395502 (2009);
         "P. Giannozzi et al., J. Phys.:Condens. Matter 29 465901 (2017);
         "P. Giannozzi et al., J. Chem. Phys. 152 154105 (2020);
          URL http://www.quantum-espresso.org", 
     in publications or presentations arising from this work. More details at
     http://www.quantum-espresso.org/quote

     Parallel version (MPI), running on    64 processors

     MPI processes distributed on     4 nodes
     445482 MiB available memory on the printing compute node when the environment starts
 
     Reading input from PWINPUT_atm157_xp

     Current dimensions of program PWSCF are:
     Max number of different atomic species (ntypx) = 10
     Max number of k-points (npk) =  40000
     Max angular momentum in pseudopotentials (lmaxx) =  4
     Presently no symmetry can be used with electric field

     file Ni.pbe-n-rrkjus_psl.1.0.0.UPF: wavefunction(s)  3D renormalized
     file Mn.pbe-spn-rrkjus_psl.0.3.1.UPF: wavefunction(s)  3D renormalized
     file O.pbe-rrkjus.UPF: wavefunction(s)  2S renormalized
     file H.pbe-rrkjus.UPF: wavefunction(s)  1S renormalized

     gamma-point specific algorithms are used
 
     R & G space division:  proc/nbgrp/npool/nimage =      64
     Subspace diagonalization in iterative solution of the eigenvalue problem:
     one sub-group per band group will be used
     custom distributed-memory algorithm (size of sub-group:  7*  7 procs)

 
     Parallelization info
     --------------------
     sticks:   dense  smooth     PW     G-vecs:    dense   smooth      PW
     Min         214      85     20                61830    15614    1928
     Max         216      86     22                61864    15658    1982
     Sum       13727    5503   1375              3958051  1001255  125211
 
     Using Slab Decomposition
 


     bravais-lattice index     =            0
     lattice parameter (alat)  =      17.8532  a.u.
     unit-cell volume          =   20962.6682 (a.u.)^3
     number of atoms/cell      =          158
     number of atomic types    =            5
     number of electrons       =      1108.00
     number of Kohn-Sham states=          665
     kinetic-energy cutoff     =      50.0000  Ry
     charge density cutoff     =     500.0000  Ry
     scf convergence threshold =      1.0E-06
     mixing beta               =       0.1000
     number of iterations used =            8  local-TF  mixing
     Exchange-correlation=  SLA  PW   PBE  PBE
                           (   1   4   3   4   0   0   0)

     celldm(1)=  17.853155  celldm(2)=   0.000000  celldm(3)=   0.000000
     celldm(4)=   0.000000  celldm(5)=   0.000000  celldm(6)=   0.000000

     crystal axes: (cart. coord. in units of alat)
               a(1) = (   1.000000   0.000000   0.000000 )  
               a(2) = (   0.003237   1.081997   0.000000 )  
               a(3) = (   0.000000   0.000000   3.404673 )  

     reciprocal axes: (cart. coord. in units 2 pi/alat)
               b(1) = (  1.000000 -0.002992  0.000000 )  
               b(2) = (  0.000000  0.924217  0.000000 )  
               b(3) = (  0.000000  0.000000  0.293714 )  


     PseudoPot. # 1 for Ni read from file:
     ~/PSEUDO/Ni.pbe-n-rrkjus_psl.1.0.0.UPF
     MD5 check sum: Not computed, couldn't open file
     Pseudo is Ultrasoft + core correction, Zval = 10.0
     Generated using "atomic" code by A. Dal Corso  v.5.1.2
     Using radial grid of 1195 points,  6 beta functions with: 
                l(1) =   0
                l(2) =   0
                l(3) =   1
                l(4) =   1
                l(5) =   2
                l(6) =   2
     Q(r) pseudized with 0 coefficients 


     PseudoPot. # 2 for Mn read from file:
     ~/PSEUDO/Mn.pbe-spn-rrkjus_psl.0.3.1.UPF
     MD5 check sum: Not computed, couldn't open file
     Pseudo is Ultrasoft + core correction, Zval = 15.0
     Generated using &quot;atomic&quot; code by A. Dal Corso  v.6.2.2
     Using radial grid of 1187 points,  6 beta functions with: 
                l(1) =   0
                l(2) =   0
                l(3) =   1
                l(4) =   1
                l(5) =   2
                l(6) =   2
     Q(r) pseudized with 0 coefficients 


     PseudoPot. # 3 for P  read from file:
     ~/PSEUDO/P.pbe-n-rrkjus_psl.1.0.0.UPF
     MD5 check sum: Not computed, couldn't open file
     Pseudo is Ultrasoft + core correction, Zval =  5.0
     Generated using "atomic" code by A. Dal Corso  v.5.1
     Using radial grid of 1147 points,  6 beta functions with: 
                l(1) =   0
                l(2) =   0
                l(3) =   1
                l(4) =   1
                l(5) =   2
                l(6) =   2
     Q(r) pseudized with 0 coefficients 


     PseudoPot. # 4 for O  read from file:
     ~/PSEUDO/O.pbe-rrkjus.UPF
     MD5 check sum: Not computed, couldn't open file
     Pseudo is Ultrasoft, Zval =  6.0
     Generated by new atomic code, or converted to UPF format
     Using radial grid of 1269 points,  4 beta functions with: 
                l(1) =   0
                l(2) =   0
                l(3) =   1
                l(4) =   1
     Q(r) pseudized with 0 coefficients 


     PseudoPot. # 5 for H  read from file:
     ~/PSEUDO/H.pbe-rrkjus.UPF
     MD5 check sum: Not computed, couldn't open file
     Pseudo is Ultrasoft, Zval =  1.0
     Generated by new atomic code, or converted to UPF format
     Using radial grid of 1061 points,  2 beta functions with: 
                l(1) =   0
                l(2) =   0
     Q(r) pseudized with 0 coefficients 


     atomic species   valence    mass     pseudopotential
     Ni               10.00    58.69300     Ni( 1.00)
     Mn               15.00    54.93800     Mn( 1.00)
     P                 5.00    30.97300     P ( 1.00)
     O                 6.00    15.99900     O ( 1.00)
     H                 1.00     1.00790     H ( 1.00)

     Starting magnetic structure 
     atomic species   magnetization
     Ni              1.000
     Mn              1.000
     P               1.000
     O               1.000
     H               0.000

     No symmetry found



   Cartesian axes

     site n.     atom                  positions (alat units)
         1        Ni     tau(   1) = (   0.2517947   0.8308062   1.6798145  )
         2        Ni     tau(   2) = (   0.4936747   0.7709440   1.3761619  )
         3        Mn     tau(   3) = (  -0.0006949   0.2926025   1.6978565  )
         4        Ni     tau(   4) = (   0.2575842   0.2245205   1.3772040  )
         5        Ni     tau(   5) = (   0.9981759   1.0713947   1.5343648  )
         6        Ni     tau(   6) = (   0.2543054   0.5308410   1.5398740  )
         7        Ni     tau(   7) = (   0.7435028   0.8375320   1.7165919  )
         8        Mn     tau(   8) = (   0.9865751   0.7666227   1.3736630  )
         9        Mn     tau(   9) = (   0.4996451   0.2904739   1.7005406  )
        10        Ni     tau(  10) = (   0.7542979   0.2248113   1.3769056  )
        11        Ni     tau(  11) = (   0.4992111   1.0687842   1.5407895  )
        12        Ni     tau(  12) = (   0.7522699   0.5334078   1.5431579  )
        13        P      tau(  13) = (   0.2122732   0.9675179   1.3790338  )
        14        P      tau(  14) = (   0.4636670   0.6428258   1.6974055  )
        15        P      tau(  15) = (   0.2826693   0.0948330   1.6935633  )
        16        P      tau(  16) = (   0.0402322   0.4230972   1.3861994  )
        17        O      tau(  17) = (   0.1342861   0.9002079   1.5145551  )
        18        O      tau(  18) = (   0.3875170   0.7007805   1.5523123  )
        19        O      tau(  19) = (   0.3603904   0.1558919   1.5519331  )
        20        O      tau(  20) = (   0.1179641   0.3570356   1.5223770  )
        21        O      tau(  21) = (   0.1523626   0.8778677   1.2552603  )
        22        O      tau(  22) = (   0.4007827   0.7381390   1.8117461  )
        23        O      tau(  23) = (   0.3394366   0.1915516   1.8103802  )
        24        O      tau(  24) = (   0.0993295   0.3317293   1.2638219  )
        25        O      tau(  25) = (   0.0994981   0.5767588   1.3831024  )
        26        O      tau(  26) = (   0.3415998   1.0213345   1.6959896  )
        27        O      tau(  27) = (   0.3787012   0.4162907   1.3963877  )
        28        O      tau(  28) = (   0.1188676   0.1027011   1.6814257  )
        29        O      tau(  29) = (   0.1300685   0.6487944   1.6816090  )
        30        O      tau(  30) = (   0.4072339   0.4864053   1.6996410  )
        31        O      tau(  31) = (   0.1485429   0.0392695   1.3797960  )
        32        O      tau(  32) = (   0.3748507   0.9597227   1.3916350  )
        33        P      tau(  33) = (   0.7067859   0.9648092   1.3807737  )
        34        P      tau(  34) = (   0.9661010   0.6467709   1.6983707  )
        35        P      tau(  35) = (   0.7853041   0.0968538   1.6915256  )
        36        P      tau(  36) = (   0.5415999   0.4266598   1.3859227  )
        37        O      tau(  37) = (   0.6313507   0.8926442   1.5144945  )
        38        O      tau(  38) = (   0.8870659   0.7007313   1.5564639  )
        39        O      tau(  39) = (   0.8612862   0.1599492   1.5488139  )
        40        O      tau(  40) = (   0.6193244   0.3584745   1.5208942  )
        41        O      tau(  41) = (   0.6484478   0.8775121   1.2540428  )
        42        O      tau(  42) = (   0.9103151   0.7438835   1.8141780  )
        43        O      tau(  43) = (   0.8423867   0.1959417   1.8071958  )
        44        O      tau(  44) = (   0.6011106   0.3361580   1.2625598  )
        45        O      tau(  45) = (   0.5997133   0.5808070   1.3850906  )
        46        O      tau(  46) = (   0.8494289   1.0258964   1.6899651  )
        47        O      tau(  47) = (   0.8775213   0.4170975   1.3970294  )
        48        O      tau(  48) = (   0.6220353   0.1048302   1.6800061  )
        49        O      tau(  49) = (   0.6273408   0.6440149   1.6877536  )
        50        O      tau(  50) = (   0.9121546   0.4889331   1.7040726  )
        51        O      tau(  51) = (   0.6454907   0.0374457   1.3840800  )
        52        O      tau(  52) = (   0.8701405   0.9588967   1.3902436  )
        53        Ni     tau(  53) = (   0.2420320   0.8169913   1.0699082  )
        54        Ni     tau(  54) = (   0.4893084   0.7542727   0.7477128  )
        55        Mn     tau(  55) = (   0.0085152   0.2729728   1.0755565  )
        56        Ni     tau(  56) = (   0.2558246   0.2079345   0.7498450  )
        57        Ni     tau(  57) = (   0.9991959   1.0516583   0.9080455  )
        58        Ni     tau(  58) = (   0.2490231   0.5149840   0.9092594  )
        59        Ni     tau(  59) = (   0.7373131   0.8159965   1.0690453  )
        60        Mn     tau(  60) = (   0.9859093   0.7511625   0.7423903  )
        61        Mn     tau(  61) = (   0.5085552   0.2755447   1.0757185  )
        62        Ni     tau(  62) = (   0.7532989   0.2074622   0.7493279  )
        63        Ni     tau(  63) = (   0.4981517   1.0523018   0.9093468  )
        64        Ni     tau(  64) = (   0.7469109   0.5147379   0.9081681  )
        65        P      tau(  65) = (   0.2119924   0.9497675   0.7533413  )
        66        P      tau(  66) = (   0.4579509   0.6252695   1.0650744  )
        67        P      tau(  67) = (   0.2855349   0.0724244   1.0650326  )
        68        P      tau(  68) = (   0.0381112   0.4032615   0.7561117  )
        69        O      tau(  69) = (   0.1352995   0.8818598   0.8892857  )
        70        O      tau(  70) = (   0.3789570   0.6924463   0.9291468  )
        71        O      tau(  71) = (   0.3610496   0.1419327   0.9291660  )
        72        O      tau(  72) = (   0.1179700   0.3356534   0.8894858  )
        73        O      tau(  73) = (   0.1524325   0.8608343   0.6290918  )
        74        O      tau(  74) = (   0.3994952   0.7128748   1.1905493  )
        75        O      tau(  75) = (   0.3426976   0.1634744   1.1889742  )
        76        O      tau(  76) = (   0.0989151   0.3155758   0.6321220  )
        77        O      tau(  77) = (   0.0942206   0.5581494   0.7569623  )
        78        O      tau(  78) = (   0.3506297   1.0014456   1.0645371  )
        79        O      tau(  79) = (   0.3750155   0.3983181   0.7655049  )
        80        O      tau(  80) = (   0.1228303   0.0764842   1.0543924  )
        81        O      tau(  81) = (   0.1204299   0.6293201   1.0530905  )
        82        O      tau(  82) = (   0.4000664   0.4708612   1.0626359  )
        83        O      tau(  83) = (   0.1483182   0.0216333   0.7546099  )
        84        O      tau(  84) = (   0.3748687   0.9435072   0.7627918  )
        85        P      tau(  85) = (   0.7056901   0.9492898   0.7521526  )
        86        P      tau(  86) = (   0.9575286   0.6220438   1.0623609  )
        87        P      tau(  87) = (   0.7847866   0.0710549   1.0641979  )
        88        P      tau(  88) = (   0.5377283   0.4083400   0.7551622  )
        89        O      tau(  89) = (   0.6295714   0.8788409   0.8879407  )
        90        O      tau(  90) = (   0.8781778   0.6902700   0.9288966  )
        91        O      tau(  91) = (   0.8603186   0.1398018   0.9279591  )
        92        O      tau(  92) = (   0.6174712   0.3389159   0.8881839  )
        93        O      tau(  93) = (   0.6471291   0.8583376   0.6285166  )
        94        O      tau(  94) = (   0.8962302   0.7094244   1.1861651  )
        95        O      tau(  95) = (   0.8420493   0.1616933   1.1885419  )
        96        O      tau(  96) = (   0.5995227   0.3203391   0.6315608  )
        97        O      tau(  97) = (   0.5932354   0.5636910   0.7569738  )
        98        O      tau(  98) = (   0.8487155   0.9994995   1.0634446  )
        99        O      tau(  99) = (   0.8751772   0.3959680   0.7655094  )
       100        O      tau( 100) = (   0.6223291   0.0767949   1.0539182  )
       101        O      tau( 101) = (   0.6209785   0.6292365   1.0537708  )
       102        O      tau( 102) = (   0.9010178   0.4674118   1.0608723  )
       103        O      tau( 103) = (   0.6430869   0.0213354   0.7538098  )
       104        O      tau( 104) = (   0.8684566   0.9446034   0.7630440  )
       105        Ni     tau( 105) = (   0.2392451   0.7980692   0.4424501  )
       106        Ni     tau( 106) = (   0.4865215   0.7353506   0.1202547  )
       107        Mn     tau( 107) = (   0.0057284   0.2540508   0.4480984  )
       108        Ni     tau( 108) = (   0.2530377   0.1890124   0.1223869  )
       109        Ni     tau( 109) = (   0.9964090   1.0327362   0.2805874  )
       110        Ni     tau( 110) = (   0.2462362   0.4960619   0.2818013  )
       111        Ni     tau( 111) = (   0.7345262   0.7970744   0.4415872  )
       112        Mn     tau( 112) = (   0.9831224   0.7322404   0.1149322  )
       113        Mn     tau( 113) = (   0.5057684   0.2566226   0.4482604  )
       114        Ni     tau( 114) = (   0.7505120   0.1885401   0.1218698  )
       115        Ni     tau( 115) = (   0.4953648   1.0333797   0.2818887  )
       116        Ni     tau( 116) = (   0.7441241   0.4958159   0.2807100  )
       117        P      tau( 117) = (   0.2092055   0.9308455   0.1258832  )
       118        P      tau( 118) = (   0.4551640   0.6063475   0.4376163  )
       119        P      tau( 119) = (   0.2827481   0.0535023   0.4375745  )
       120        P      tau( 120) = (   0.0353243   0.3843395   0.1286536  )
       121        O      tau( 121) = (   0.1325127   0.8629378   0.2618276  )
       122        O      tau( 122) = (   0.3761702   0.6735242   0.3016887  )
       123        O      tau( 123) = (   0.3582627   0.1230106   0.3017079  )
       124        O      tau( 124) = (   0.1151831   0.3167313   0.2620277  )
       125        O      tau( 125) = (   0.1496456   0.8419122   0.0016337  )
       126        O      tau( 126) = (   0.3967083   0.6939527   0.5630912  )
       127        O      tau( 127) = (   0.3399107   0.1445523   0.5615161  )
       128        O      tau( 128) = (   0.0961282   0.2966537   0.0046639  )
       129        O      tau( 129) = (   0.0914337   0.5392273   0.1295042  )
       130        O      tau( 130) = (   0.3478428   0.9825235   0.4370790  )
       131        O      tau( 131) = (   0.3722287   0.3793961   0.1380469  )
       132        O      tau( 132) = (   0.1200434   0.0575621   0.4269343  )
       133        O      tau( 133) = (   0.1176431   0.6103980   0.4256324  )
       134        O      tau( 134) = (   0.3972796   0.4519391   0.4351778  )
       135        O      tau( 135) = (   0.1455313   0.0027113   0.1271518  )
       136        O      tau( 136) = (   0.3720819   0.9245852   0.1353338  )
       137        P      tau( 137) = (   0.7029032   0.9303678   0.1246945  )
       138        P      tau( 138) = (   0.9547417   0.6031217   0.4349028  )
       139        P      tau( 139) = (   0.7819997   0.0521328   0.4367398  )
       140        P      tau( 140) = (   0.5349415   0.3894179   0.1277041  )
       141        O      tau( 141) = (   0.6267846   0.8599188   0.2604826  )
       142        O      tau( 142) = (   0.8753909   0.6713480   0.3014385  )
       143        O      tau( 143) = (   0.8575317   0.1208797   0.3005010  )
       144        O      tau( 144) = (   0.6146843   0.3199938   0.2607258  )
       145        O      tau( 145) = (   0.6443422   0.8394155   0.0010585  )
       146        O      tau( 146) = (   0.8934434   0.6905023   0.5587070  )
       147        O      tau( 147) = (   0.8392624   0.1427713   0.5610838  )
       148        O      tau( 148) = (   0.5967359   0.3014171   0.0041027  )
       149        O      tau( 149) = (   0.5904485   0.5447689   0.1295157  )
       150        O      tau( 150) = (   0.8459286   0.9805774   0.4359865  )
       151        O      tau( 151) = (   0.8723903   0.3770459   0.1380513  )
       152        O      tau( 152) = (   0.6195422   0.0578729   0.4264602  )
       153        O      tau( 153) = (   0.6181917   0.6103144   0.4263127  )
       154        O      tau( 154) = (   0.8982309   0.4484897   0.4334142  )
       155        O      tau( 155) = (   0.6403000   0.0024133   0.1263517  )
       156        O      tau( 156) = (   0.8656697   0.9256814   0.1355859  )
       157        O      tau( 157) = (   0.6286037   0.9241438   1.8429931  )
       158        H      tau( 158) = (   0.5438826   0.8656536   1.8664057  )

     -------------------------------------------------
     Parameters for Dispersion (Grimme-D2) Correction:
     -------------------------------------------------
       atom      VdW radius       C_6     

        Ni         2.952        374.666
        Mn         2.952        374.666
        P          3.222        271.980
        O          2.536         24.284
        H          1.892          4.857

     number of k points=     1  Gaussian smearing, width (Ry)=  0.0100
                       cart. coord. in units 2pi/alat
        k(    1) = (   0.0000000   0.0000000   0.0000000), wk =   1.0000000

     Dense  grid:  1979026 G-vectors     FFT dimensions: ( 128, 144, 450)

     Smooth grid:   500628 G-vectors     FFT dimensions: (  81,  90, 288)

     Estimated max dynamical RAM per process >     333.40 MB

     Estimated total dynamical RAM >      20.84 GB

     Check: negative core charge=   -0.000002
     Generating pointlists ...
     new r_m :   0.0790 (alat units)  1.4104 (a.u.) for type    1
     new r_m :   0.0884 (alat units)  1.5781 (a.u.) for type    2
     new r_m :   0.0665 (alat units)  1.1864 (a.u.) for type    3
     new r_m :   0.0436 (alat units)  0.7775 (a.u.) for type    4
     new r_m :   0.0436 (alat units)  0.7775 (a.u.) for type    5

     Initial potential from superposition of free atoms

     starting charge    1107.8886, renormalised to    1108.0000

     negative rho (up, down):  1.519E-03 4.677E-04
 
     Adding external electric field

     Computed dipole along edir(3) : 
        Dipole                1.6296 Ry au,          4.1421 Debye
        Dipole field          0.0010 Ry au, 
 
        Potential amp.       -0.1069 Ry
        Total length         54.7057 bohr
 
 
     Adding external electric field

     Computed dipole along edir(3) : 
        Dipole                1.6296 Ry au,          4.1421 Debye
        Dipole field          0.0010 Ry au, 
 
        Potential amp.       -0.1069 Ry
        Total length         54.7057 bohr
 
     Starting wfcs are  818 randomized atomic wfcs

     total cpu time spent up to now is       13.9 secs

     Self-consistent Calculation

     iteration #  1     ecut=    50.00 Ry     beta= 0.10
     Davidson diagonalization with overlap
     ethr =  1.00E-02,  avg # of iterations =  5.5

     negative rho (up, down):  4.323E-01 2.623E-07
 
     Adding external electric field

     Computed dipole along edir(3) : 
        Dipole               -3.7314 Ry au,         -9.4844 Debye
        Dipole field         -0.0022 Ry au, 
 
        Potential amp.        0.2447 Ry
        Total length         54.7057 bohr
 
 
     Adding external electric field

     Computed dipole along edir(3) : 
        Dipole               -3.7314 Ry au,         -9.4844 Debye
        Dipole field         -0.0022 Ry au, 
 
        Potential amp.        0.2447 Ry
        Total length         54.7057 bohr
 

     total cpu time spent up to now is       52.2 secs

     total energy              =   -7856.81496814 Ry
     estimated scf accuracy    <     730.52396476 Ry

     total magnetization       =   222.00 Bohr mag/cell
     absolute magnetization    =   319.69 Bohr mag/cell

     iteration #  2     ecut=    50.00 Ry     beta= 0.10
     Davidson diagonalization with overlap
     ethr =  1.00E-02,  avg # of iterations =  2.0

     negative rho (up, down):  4.073E-01 1.397E-07
 
     Adding external electric field

     Computed dipole along edir(3) : 
        Dipole               -2.5534 Ry au,         -6.4900 Debye
        Dipole field         -0.0015 Ry au, 
 
        Potential amp.        0.1675 Ry
        Total length         54.7057 bohr
 
 
     Adding external electric field

     Computed dipole along edir(3) : 
        Dipole               -2.5534 Ry au,         -6.4900 Debye
        Dipole field         -0.0015 Ry au, 
 
        Potential amp.        0.1675 Ry
        Total length         54.7057 bohr
 

     total cpu time spent up to now is       75.3 secs

     total energy              =   -7939.67296153 Ry
     estimated scf accuracy    <     202.96083401 Ry

     total magnetization       =   166.53 Bohr mag/cell
     absolute magnetization    =   213.63 Bohr mag/cell

     iteration #  3     ecut=    50.00 Ry     beta= 0.10
     Davidson diagonalization with overlap
     ethr =  1.00E-02,  avg # of iterations =  1.5

     negative rho (up, down):  3.630E-01 1.074E-07
 
     Adding external electric field

     Computed dipole along edir(3) : 
        Dipole               -2.2105 Ry au,         -5.6186 Debye
        Dipole field         -0.0013 Ry au, 
 
        Potential amp.        0.1450 Ry
        Total length         54.7057 bohr
 
 
     Adding external electric field

     Computed dipole along edir(3) : 
        Dipole               -2.2105 Ry au,         -5.6186 Debye
        Dipole field         -0.0013 Ry au, 
 
        Potential amp.        0.1450 Ry
        Total length         54.7057 bohr
 

     total cpu time spent up to now is       93.9 secs

     total energy              =   -7969.26490467 Ry
     estimated scf accuracy    <     104.81593298 Ry

     total magnetization       =   143.28 Bohr mag/cell
     absolute magnetization    =   192.34 Bohr mag/cell

     iteration #  4     ecut=    50.00 Ry     beta= 0.10
     Davidson diagonalization with overlap
     ethr =  9.46E-03,  avg # of iterations =  1.0

     negative rho (up, down):  2.959E-01 1.477E-08
 
     Adding external electric field

     Computed dipole along edir(3) : 
        Dipole               -2.1241 Ry au,         -5.3990 Debye
        Dipole field         -0.0013 Ry au, 
 
        Potential amp.        0.1393 Ry
        Total length         54.7057 bohr
 
 
     Adding external electric field

     Computed dipole along edir(3) : 
        Dipole               -2.1241 Ry au,         -5.3990 Debye
        Dipole field         -0.0013 Ry au, 
 
        Potential amp.        0.1393 Ry
        Total length         54.7057 bohr
 

     total cpu time spent up to now is      111.8 secs

     total energy              =   -7997.96381697 Ry
     estimated scf accuracy    <      85.06301049 Ry

     total magnetization       =   127.57 Bohr mag/cell
     absolute magnetization    =   178.26 Bohr mag/cell

     iteration #  5     ecut=    50.00 Ry     beta= 0.10
     Davidson diagonalization with overlap
     ethr =  7.68E-03,  avg # of iterations =  1.0

     negative rho (up, down):  6.401E-02 0.000E+00
 
     Adding external electric field

     Computed dipole along edir(3) : 
        Dipole               -1.6597 Ry au,         -4.2186 Debye
        Dipole field         -0.0010 Ry au, 
 
        Potential amp.        0.1089 Ry
        Total length         54.7057 bohr
 
 
     Adding external electric field

     Computed dipole along edir(3) : 
        Dipole               -1.6597 Ry au,         -4.2186 Debye
        Dipole field         -0.0010 Ry au, 
 
        Potential amp.        0.1089 Ry
        Total length         54.7057 bohr
 

     total cpu time spent up to now is      128.6 secs

     total energy              =   -8058.12726961 Ry
     estimated scf accuracy    <      71.45263921 Ry

     total magnetization       =   107.87 Bohr mag/cell
     absolute magnetization    =   161.44 Bohr mag/cell

     iteration #  6     ecut=    50.00 Ry     beta= 0.10
     Davidson diagonalization with overlap
     ethr =  6.45E-03,  avg # of iterations =  1.0

     negative rho (up, down):  5.621E-04 1.059E-03
 
     Adding external electric field

     Computed dipole along edir(3) : 
        Dipole               -1.1260 Ry au,         -2.8620 Debye
        Dipole field         -0.0007 Ry au, 
 
        Potential amp.        0.0739 Ry
        Total length         54.7057 bohr
 
 
     Adding external electric field

     Computed dipole along edir(3) : 
        Dipole               -1.1260 Ry au,         -2.8620 Debye
        Dipole field         -0.0007 Ry au, 
 
        Potential amp.        0.0739 Ry
        Total length         54.7057 bohr
 

     total cpu time spent up to now is      146.0 secs

     total energy              =   -8075.97204868 Ry
     estimated scf accuracy    <      20.16516782 Ry

     total magnetization       =   100.00 Bohr mag/cell
     absolute magnetization    =   135.37 Bohr mag/cell

     iteration #  7     ecut=    50.00 Ry     beta= 0.10
     Davidson diagonalization with overlap
     ethr =  1.82E-03,  avg # of iterations =  6.0

     negative rho (up, down):  5.421E-04 1.038E-03
 
     Adding external electric field

     Computed dipole along edir(3) : 
        Dipole               -1.1177 Ry au,         -2.8410 Debye
        Dipole field         -0.0007 Ry au, 
 
        Potential amp.        0.0733 Ry
        Total length         54.7057 bohr
 
 
     Adding external electric field

     Computed dipole along edir(3) : 
        Dipole               -1.1177 Ry au,         -2.8410 Debye
        Dipole field         -0.0007 Ry au, 
 
        Potential amp.        0.0733 Ry
        Total length         54.7057 bohr
 

     total cpu time spent up to now is      175.0 secs

     total energy              =   -8078.91164957 Ry
     estimated scf accuracy    <      33.59762535 Ry

     total magnetization       =    69.45 Bohr mag/cell
     absolute magnetization    =    87.06 Bohr mag/cell

     iteration #  8     ecut=    50.00 Ry     beta= 0.10
     Davidson diagonalization with overlap
     ethr =  1.82E-03,  avg # of iterations =  1.0

     negative rho (up, down):  5.511E-04 1.119E-03
 
     Adding external electric field

     Computed dipole along edir(3) : 
        Dipole               -1.1112 Ry au,         -2.8244 Debye
        Dipole field         -0.0007 Ry au, 
 
        Potential amp.        0.0729 Ry
        Total length         54.7057 bohr
 
 
     Adding external electric field

     Computed dipole along edir(3) : 
        Dipole               -1.1112 Ry au,         -2.8244 Debye
        Dipole field         -0.0007 Ry au, 
 
        Potential amp.        0.0729 Ry
        Total length         54.7057 bohr
 

     total cpu time spent up to now is      192.2 secs

     total energy              =   -8079.11038246 Ry
     estimated scf accuracy    <      33.02820406 Ry

     total magnetization       =    69.62 Bohr mag/cell
     absolute magnetization    =    86.73 Bohr mag/cell

     iteration #  9     ecut=    50.00 Ry     beta= 0.10
     Davidson diagonalization with overlap
     ethr =  1.82E-03,  avg # of iterations =  1.0

     negative rho (up, down):  4.699E-04 1.037E-03
 
     Adding external electric field

     Computed dipole along edir(3) : 
        Dipole               -1.0932 Ry au,         -2.7787 Debye
        Dipole field         -0.0007 Ry au, 
 
        Potential amp.        0.0717 Ry
        Total length         54.7057 bohr
 
 
     Adding external electric field

     Computed dipole along edir(3) : 
        Dipole               -1.0932 Ry au,         -2.7787 Debye
        Dipole field         -0.0007 Ry au, 
 
        Potential amp.        0.0717 Ry
        Total length         54.7057 bohr
 

     total cpu time spent up to now is      209.5 secs

     total energy              =   -8078.95726698 Ry
     estimated scf accuracy    <      35.80307951 Ry

     total magnetization       =    68.38 Bohr mag/cell
     absolute magnetization    =    85.28 Bohr mag/cell

     iteration # 10     ecut=    50.00 Ry     beta= 0.10
     Davidson diagonalization with overlap
     ethr =  1.82E-03,  avg # of iterations =  1.0

     negative rho (up, down):  2.924E-04 6.092E-04
 
     Adding external electric field

     Computed dipole along edir(3) : 
        Dipole               -1.0965 Ry au,         -2.7870 Debye
        Dipole field         -0.0007 Ry au, 
 
        Potential amp.        0.0719 Ry
        Total length         54.7057 bohr
 
 
     Adding external electric field

     Computed dipole along edir(3) : 
        Dipole               -1.0965 Ry au,         -2.7870 Debye
        Dipole field         -0.0007 Ry au, 
 
        Potential amp.        0.0719 Ry
        Total length         54.7057 bohr
 

     total cpu time spent up to now is      226.0 secs

     total energy              =   -8078.08498293 Ry
     estimated scf accuracy    <      31.04979470 Ry

     total magnetization       =    69.66 Bohr mag/cell
     absolute magnetization    =    85.79 Bohr mag/cell

     iteration # 11     ecut=    50.00 Ry     beta= 0.10
     Davidson diagonalization with overlap
     ethr =  1.82E-03,  avg # of iterations =  1.0

     negative rho (up, down):  2.499E-04 5.080E-04
 
     Adding external electric field

     Computed dipole along edir(3) : 
        Dipole               -1.0765 Ry au,         -2.7361 Debye
        Dipole field         -0.0006 Ry au, 
 
        Potential amp.        0.0706 Ry
        Total length         54.7057 bohr
 
 
     Adding external electric field

     Computed dipole along edir(3) : 
        Dipole               -1.0765 Ry au,         -2.7361 Debye
        Dipole field         -0.0006 Ry au, 
 
        Potential amp.        0.0706 Ry
        Total length         54.7057 bohr
 

     total cpu time spent up to now is      242.4 secs

     total energy              =   -8078.20805111 Ry
     estimated scf accuracy    <      11.55812049 Ry

     total magnetization       =    84.18 Bohr mag/cell
     absolute magnetization    =    96.41 Bohr mag/cell

     iteration # 12     ecut=    50.00 Ry     beta= 0.10
     Davidson diagonalization with overlap
     ethr =  1.04E-03,  avg # of iterations =  1.5

     negative rho (up, down):  2.001E-04 5.534E-04
 
     Adding external electric field

     Computed dipole along edir(3) : 
        Dipole               -1.0275 Ry au,         -2.6116 Debye
        Dipole field         -0.0006 Ry au, 
 
        Potential amp.        0.0674 Ry
        Total length         54.7057 bohr
 
 
     Adding external electric field

     Computed dipole along edir(3) : 
        Dipole               -1.0275 Ry au,         -2.6116 Debye
        Dipole field         -0.0006 Ry au, 
 
        Potential amp.        0.0674 Ry
        Total length         54.7057 bohr
 

     total cpu time spent up to now is      260.5 secs

     total energy              =   -8078.26100109 Ry
     estimated scf accuracy    <       5.66477985 Ry

     total magnetization       =    90.39 Bohr mag/cell
     absolute magnetization    =   100.45 Bohr mag/cell

     iteration # 13     ecut=    50.00 Ry     beta= 0.10
     Davidson diagonalization with overlap
     ethr =  5.11E-04,  avg # of iterations =  2.0

     negative rho (up, down):  1.696E-04 6.010E-04
 
     Adding external electric field

     Computed dipole along edir(3) : 
        Dipole               -1.0002 Ry au,         -2.5422 Debye
        Dipole field         -0.0006 Ry au, 
 
        Potential amp.        0.0656 Ry
        Total length         54.7057 bohr
 
 
     Adding external electric field

     Computed dipole along edir(3) : 
        Dipole               -1.0002 Ry au,         -2.5422 Debye
        Dipole field         -0.0006 Ry au, 
 
        Potential amp.        0.0656 Ry
        Total length         54.7057 bohr
 

     total cpu time spent up to now is      279.9 secs

     total energy              =   -8078.23913806 Ry
     estimated scf accuracy    <       4.01111263 Ry

     total magnetization       =    91.71 Bohr mag/cell
     absolute magnetization    =   101.00 Bohr mag/cell

     iteration # 14     ecut=    50.00 Ry     beta= 0.10
     Davidson diagonalization with overlap
     ethr =  3.62E-04,  avg # of iterations =  1.0

     negative rho (up, down):  1.612E-04 4.183E-04
 
     Adding external electric field

     Computed dipole along edir(3) : 
        Dipole               -0.9432 Ry au,         -2.3975 Debye
        Dipole field         -0.0006 Ry au, 
 
        Potential amp.        0.0619 Ry
        Total length         54.7057 bohr
 
 
     Adding external electric field

     Computed dipole along edir(3) : 
        Dipole               -0.9432 Ry au,         -2.3975 Debye
        Dipole field         -0.0006 Ry au, 
 
        Potential amp.        0.0619 Ry
        Total length         54.7057 bohr
 

     total cpu time spent up to now is      296.5 secs

     total energy              =   -8078.25270552 Ry
     estimated scf accuracy    <       3.34807089 Ry

     total magnetization       =    92.20 Bohr mag/cell
     absolute magnetization    =   100.80 Bohr mag/cell

     iteration # 15     ecut=    50.00 Ry     beta= 0.10
     Davidson diagonalization with overlap
     ethr =  3.02E-04,  avg # of iterations =  2.0

     negative rho (up, down):  1.355E-04 3.314E-04
 
     Adding external electric field

     Computed dipole along edir(3) : 
        Dipole               -0.9090 Ry au,         -2.3105 Debye
        Dipole field         -0.0005 Ry au, 
 
        Potential amp.        0.0596 Ry
        Total length         54.7057 bohr
 
 
     Adding external electric field

     Computed dipole along edir(3) : 
        Dipole               -0.9090 Ry au,         -2.3105 Debye
        Dipole field         -0.0005 Ry au, 
 
        Potential amp.        0.0596 Ry
        Total length         54.7057 bohr
 

     total cpu time spent up to now is      315.5 secs

     total energy              =   -8078.34136232 Ry
     estimated scf accuracy    <       1.46700083 Ry

     total magnetization       =    97.72 Bohr mag/cell
     absolute magnetization    =   104.95 Bohr mag/cell

     iteration # 16     ecut=    50.00 Ry     beta= 0.10
     Davidson diagonalization with overlap
     ethr =  1.32E-04,  avg # of iterations =  6.0

     negative rho (up, down):  5.986E-05 3.011E-04
 
     Adding external electric field

     Computed dipole along edir(3) : 
        Dipole               -0.7478 Ry au,         -1.9006 Debye
        Dipole field         -0.0004 Ry au, 
 
        Potential amp.        0.0490 Ry
        Total length         54.7057 bohr
 
 
     Adding external electric field

     Computed dipole along edir(3) : 
        Dipole               -0.7478 Ry au,         -1.9006 Debye
        Dipole field         -0.0004 Ry au, 
 
        Potential amp.        0.0490 Ry
        Total length         54.7057 bohr
 

     total cpu time spent up to now is      337.5 secs

     total energy              =   -8078.34822521 Ry
     estimated scf accuracy    <       1.28073621 Ry

     total magnetization       =    97.83 Bohr mag/cell
     absolute magnetization    =   104.65 Bohr mag/cell

     iteration # 17     ecut=    50.00 Ry     beta= 0.10
     Davidson diagonalization with overlap
     ethr =  1.16E-04,  avg # of iterations = 11.5

     negative rho (up, down):  5.913E-05 2.805E-04
 
     Adding external electric field

     Computed dipole along edir(3) : 
        Dipole               -0.7440 Ry au,         -1.8911 Debye
        Dipole field         -0.0004 Ry au, 
 
        Potential amp.        0.0488 Ry
        Total length         54.7057 bohr
 
 
     Adding external electric field

     Computed dipole along edir(3) : 
        Dipole               -0.7440 Ry au,         -1.8911 Debye
        Dipole field         -0.0004 Ry au, 
 
        Potential amp.        0.0488 Ry
        Total length         54.7057 bohr
 

     total cpu time spent up to now is      371.3 secs

     total energy              =   -8078.39041088 Ry
     estimated scf accuracy    <       0.83475942 Ry

     total magnetization       =    96.49 Bohr mag/cell
     absolute magnetization    =   101.70 Bohr mag/cell

     iteration # 18     ecut=    50.00 Ry     beta= 0.10
     Davidson diagonalization with overlap
     ethr =  7.53E-05,  avg # of iterations =  1.0

     negative rho (up, down):  3.895E-05 2.262E-04
 
     Adding external electric field

     Computed dipole along edir(3) : 
        Dipole               -0.7404 Ry au,         -1.8820 Debye
        Dipole field         -0.0004 Ry au, 
 
        Potential amp.        0.0486 Ry
        Total length         54.7057 bohr
 
 
     Adding external electric field

     Computed dipole along edir(3) : 
        Dipole               -0.7404 Ry au,         -1.8820 Debye
        Dipole field         -0.0004 Ry au, 
 
        Potential amp.        0.0486 Ry
        Total length         54.7057 bohr
 

     total cpu time spent up to now is      388.3 secs

     total energy              =   -8078.38105693 Ry
     estimated scf accuracy    <       0.91322794 Ry

     total magnetization       =    96.40 Bohr mag/cell
     absolute magnetization    =   101.48 Bohr mag/cell

     iteration # 19     ecut=    50.00 Ry     beta= 0.10
     Davidson diagonalization with overlap
     ethr =  7.53E-05,  avg # of iterations =  1.5

     negative rho (up, down):  3.058E-05 1.399E-04
 
     Adding external electric field

     Computed dipole along edir(3) : 
        Dipole               -0.7605 Ry au,         -1.9330 Debye
        Dipole field         -0.0005 Ry au, 
 
        Potential amp.        0.0499 Ry
        Total length         54.7057 bohr
 
 
     Adding external electric field

     Computed dipole along edir(3) : 
        Dipole               -0.7605 Ry au,         -1.9330 Debye
        Dipole field         -0.0005 Ry au, 
 
        Potential amp.        0.0499 Ry
        Total length         54.7057 bohr
 

     total cpu time spent up to now is      406.1 secs

     total energy              =   -8078.38991701 Ry
     estimated scf accuracy    <       0.73444501 Ry

     total magnetization       =    95.31 Bohr mag/cell
     absolute magnetization    =   100.39 Bohr mag/cell

     iteration # 20     ecut=    50.00 Ry     beta= 0.10
     Davidson diagonalization with overlap
     ethr =  6.63E-05,  avg # of iterations =  1.5

     negative rho (up, down):  2.325E-05 2.183E-04
 
     Adding external electric field

     Computed dipole along edir(3) : 
        Dipole               -0.7140 Ry au,         -1.8147 Debye
        Dipole field         -0.0004 Ry au, 
 
        Potential amp.        0.0468 Ry
        Total length         54.7057 bohr
 
 
     Adding external electric field

     Computed dipole along edir(3) : 
        Dipole               -0.7140 Ry au,         -1.8147 Debye
        Dipole field         -0.0004 Ry au, 
 
        Potential amp.        0.0468 Ry
        Total length         54.7057 bohr
 

     total cpu time spent up to now is      424.2 secs

     total energy              =   -8078.41389779 Ry
     estimated scf accuracy    <       0.43089115 Ry

     total magnetization       =    95.35 Bohr mag/cell
     absolute magnetization    =   100.53 Bohr mag/cell

     iteration # 21     ecut=    50.00 Ry     beta= 0.10
     Davidson diagonalization with overlap
     ethr =  3.89E-05,  avg # of iterations =  2.0

     negative rho (up, down):  1.726E-05 1.958E-04
 
     Adding external electric field

     Computed dipole along edir(3) : 
        Dipole               -0.6979 Ry au,         -1.7740 Debye
        Dipole field         -0.0004 Ry au, 
 
        Potential amp.        0.0458 Ry
        Total length         54.7057 bohr
 
 
     Adding external electric field

     Computed dipole along edir(3) : 
        Dipole               -0.6979 Ry au,         -1.7740 Debye
        Dipole field         -0.0004 Ry au, 
 
        Potential amp.        0.0458 Ry
        Total length         54.7057 bohr
 

     total cpu time spent up to now is      443.2 secs

     total energy              =   -8078.42810758 Ry
     estimated scf accuracy    <       0.35196393 Ry

     total magnetization       =    95.39 Bohr mag/cell
     absolute magnetization    =    99.92 Bohr mag/cell

     iteration # 22     ecut=    50.00 Ry     beta= 0.10
     Davidson diagonalization with overlap
     ethr =  3.18E-05,  avg # of iterations =  1.0

     negative rho (up, down):  2.560E-06 2.944E-04
 
     Adding external electric field

     Computed dipole along edir(3) : 
        Dipole               -0.5589 Ry au,         -1.4206 Debye
        Dipole field         -0.0003 Ry au, 
 
        Potential amp.        0.0367 Ry
        Total length         54.7057 bohr
 
 
     Adding external electric field

     Computed dipole along edir(3) : 
        Dipole               -0.5589 Ry au,         -1.4206 Debye
        Dipole field         -0.0003 Ry au, 
 
        Potential amp.        0.0367 Ry
        Total length         54.7057 bohr
 

     total cpu time spent up to now is      460.1 secs

     total energy              =   -8078.47291162 Ry
     estimated scf accuracy    <       0.34213508 Ry

     total magnetization       =    95.24 Bohr mag/cell
     absolute magnetization    =    99.46 Bohr mag/cell

     iteration # 23     ecut=    50.00 Ry     beta= 0.10
     Davidson diagonalization with overlap
     ethr =  3.09E-05,  avg # of iterations =  2.0

     negative rho (up, down):  2.242E-06 3.223E-04
 
     Adding external electric field

     Computed dipole along edir(3) : 
        Dipole               -0.4680 Ry au,         -1.1895 Debye
        Dipole field         -0.0003 Ry au, 
 
        Potential amp.        0.0307 Ry
        Total length         54.7057 bohr
 
 
     Adding external electric field

     Computed dipole along edir(3) : 
        Dipole               -0.4680 Ry au,         -1.1895 Debye
        Dipole field         -0.0003 Ry au, 
 
        Potential amp.        0.0307 Ry
        Total length         54.7057 bohr
 

     total cpu time spent up to now is      479.5 secs

     total energy              =   -8078.51746764 Ry
     estimated scf accuracy    <       0.29903454 Ry

     total magnetization       =    95.14 Bohr mag/cell
     absolute magnetization    =    97.78 Bohr mag/cell

     iteration # 24     ecut=    50.00 Ry     beta= 0.10
     Davidson diagonalization with overlap
     ethr =  2.70E-05,  avg # of iterations =  1.5

     negative rho (up, down):  3.001E-06 2.206E-04
 
     Adding external electric field

     Computed dipole along edir(3) : 
        Dipole               -0.4085 Ry au,         -1.0382 Debye
        Dipole field         -0.0002 Ry au, 
 
        Potential amp.        0.0268 Ry
        Total length         54.7057 bohr
 
 
     Adding external electric field

     Computed dipole along edir(3) : 
        Dipole               -0.4085 Ry au,         -1.0382 Debye
        Dipole field         -0.0002 Ry au, 
 
        Potential amp.        0.0268 Ry
        Total length         54.7057 bohr
 

     total cpu time spent up to now is      497.2 secs

     total energy              =   -8078.52716285 Ry
     estimated scf accuracy    <       0.34464879 Ry

     total magnetization       =    94.85 Bohr mag/cell
     absolute magnetization    =    96.75 Bohr mag/cell

     iteration # 25     ecut=    50.00 Ry     beta= 0.10
     Davidson diagonalization with overlap
     ethr =  2.70E-05,  avg # of iterations =  2.0

     negative rho (up, down):  2.839E-06 1.765E-04
 
     Adding external electric field

     Computed dipole along edir(3) : 
        Dipole               -0.3310 Ry au,         -0.8414 Debye
        Dipole field         -0.0002 Ry au, 
 
        Potential amp.        0.0217 Ry
        Total length         54.7057 bohr
 
 
     Adding external electric field

     Computed dipole along edir(3) : 
        Dipole               -0.3310 Ry au,         -0.8414 Debye
        Dipole field         -0.0002 Ry au, 
 
        Potential amp.        0.0217 Ry
        Total length         54.7057 bohr
 

     total cpu time spent up to now is      516.4 secs

     total energy              =   -8078.52405872 Ry
     estimated scf accuracy    <       0.18876815 Ry

     total magnetization       =    95.33 Bohr mag/cell
     absolute magnetization    =    97.07 Bohr mag/cell

     iteration # 26     ecut=    50.00 Ry     beta= 0.10
     Davidson diagonalization with overlap
     ethr =  1.70E-05,  avg # of iterations = 12.0

     negative rho (up, down):  5.819E-06 7.163E-05
 
     Adding external electric field

     Computed dipole along edir(3) : 
        Dipole               -0.2488 Ry au,         -0.6324 Debye
        Dipole field         -0.0001 Ry au, 
 
        Potential amp.        0.0163 Ry
        Total length         54.7057 bohr
 
 
     Adding external electric field

     Computed dipole along edir(3) : 
        Dipole               -0.2488 Ry au,         -0.6324 Debye
        Dipole field         -0.0001 Ry au, 
 
        Potential amp.        0.0163 Ry
        Total length         54.7057 bohr
 

     total cpu time spent up to now is      554.8 secs

     total energy              =   -8078.54827017 Ry
     estimated scf accuracy    <       0.12106946 Ry

     total magnetization       =    96.62 Bohr mag/cell
     absolute magnetization    =    97.95 Bohr mag/cell

     iteration # 27     ecut=    50.00 Ry     beta= 0.10
     Davidson diagonalization with overlap
     ethr =  1.09E-05,  avg # of iterations =  1.5

     negative rho (up, down):  3.737E-06 2.057E-05
 
     Adding external electric field

     Computed dipole along edir(3) : 
        Dipole               -0.1587 Ry au,         -0.4034 Debye
        Dipole field         -0.0001 Ry au, 
 
        Potential amp.        0.0104 Ry
        Total length         54.7057 bohr
 
 
     Adding external electric field

     Computed dipole along edir(3) : 
        Dipole               -0.1587 Ry au,         -0.4034 Debye
        Dipole field         -0.0001 Ry au, 
 
        Potential amp.        0.0104 Ry
        Total length         54.7057 bohr
 

     total cpu time spent up to now is      573.4 secs

     total energy              =   -8078.55278986 Ry
     estimated scf accuracy    <       0.09463650 Ry

     total magnetization       =    96.30 Bohr mag/cell
     absolute magnetization    =    97.59 Bohr mag/cell

     iteration # 28     ecut=    50.00 Ry     beta= 0.10
     Davidson diagonalization with overlap
     ethr =  8.54E-06,  avg # of iterations = 12.5

     negative rho (up, down):  5.171E-06 1.420E-05
 
     Adding external electric field

     Computed dipole along edir(3) : 
        Dipole               -0.0903 Ry au,         -0.2296 Debye
        Dipole field         -0.0001 Ry au, 
 
        Potential amp.        0.0059 Ry
        Total length         54.7057 bohr
 
 
     Adding external electric field

     Computed dipole along edir(3) : 
        Dipole               -0.0903 Ry au,         -0.2296 Debye
        Dipole field         -0.0001 Ry au, 
 
        Potential amp.        0.0059 Ry
        Total length         54.7057 bohr
 

     total cpu time spent up to now is      608.7 secs

     total energy              =   -8078.55634572 Ry
     estimated scf accuracy    <       0.08300098 Ry

     total magnetization       =    96.91 Bohr mag/cell
     absolute magnetization    =    98.13 Bohr mag/cell

     iteration # 29     ecut=    50.00 Ry     beta= 0.10
     Davidson diagonalization with overlap
     ethr =  7.49E-06,  avg # of iterations =  1.5

     negative rho (up, down):  2.873E-06 8.872E-06
 
     Adding external electric field

     Computed dipole along edir(3) : 
        Dipole               -0.1413 Ry au,         -0.3591 Debye
        Dipole field         -0.0001 Ry au, 
 
        Potential amp.        0.0093 Ry
        Total length         54.7057 bohr
 
 
     Adding external electric field

     Computed dipole along edir(3) : 
        Dipole               -0.1413 Ry au,         -0.3591 Debye
        Dipole field         -0.0001 Ry au, 
 
        Potential amp.        0.0093 Ry
        Total length         54.7057 bohr
 

     total cpu time spent up to now is      626.8 secs

     total energy              =   -8078.55621660 Ry
     estimated scf accuracy    <       0.10923038 Ry

     total magnetization       =    96.82 Bohr mag/cell
     absolute magnetization    =    98.10 Bohr mag/cell

     iteration # 30     ecut=    50.00 Ry     beta= 0.10
     Davidson diagonalization with overlap
     ethr =  7.49E-06,  avg # of iterations =  2.0

     negative rho (up, down):  1.990E-05 7.796E-05
 
     Adding external electric field

     Computed dipole along edir(3) : 
        Dipole               -0.0375 Ry au,         -0.0953 Debye
        Dipole field         -0.0000 Ry au, 
 
        Potential amp.        0.0025 Ry
        Total length         54.7057 bohr
 
 
     Adding external electric field

     Computed dipole along edir(3) : 
        Dipole               -0.0375 Ry au,         -0.0953 Debye
        Dipole field         -0.0000 Ry au, 
 
        Potential amp.        0.0025 Ry
        Total length         54.7057 bohr
 

     total cpu time spent up to now is      646.4 secs

     total energy              =   -8078.55230330 Ry
     estimated scf accuracy    <       0.10335145 Ry

     total magnetization       =    96.86 Bohr mag/cell
     absolute magnetization    =    98.13 Bohr mag/cell

     iteration # 31     ecut=    50.00 Ry     beta= 0.10
     Davidson diagonalization with overlap
     ethr =  7.49E-06,  avg # of iterations =  2.0

     negative rho (up, down):  2.231E-05 9.217E-05
 
     Adding external electric field

     Computed dipole along edir(3) : 
        Dipole               -0.0303 Ry au,         -0.0771 Debye
        Dipole field         -0.0000 Ry au, 
 
        Potential amp.        0.0020 Ry
        Total length         54.7057 bohr
 
 
     Adding external electric field

     Computed dipole along edir(3) : 
        Dipole               -0.0303 Ry au,         -0.0771 Debye
        Dipole field         -0.0000 Ry au, 
 
        Potential amp.        0.0020 Ry
        Total length         54.7057 bohr
 

     total cpu time spent up to now is      666.6 secs

     total energy              =   -8078.55128985 Ry
     estimated scf accuracy    <       0.09848590 Ry

     total magnetization       =    96.76 Bohr mag/cell
     absolute magnetization    =    98.10 Bohr mag/cell

     iteration # 32     ecut=    50.00 Ry     beta= 0.10
     Davidson diagonalization with overlap
     ethr =  7.49E-06,  avg # of iterations =  1.0

     negative rho (up, down):  1.787E-05 8.777E-05
 
     Adding external electric field

     Computed dipole along edir(3) : 
        Dipole               -0.0248 Ry au,         -0.0630 Debye
        Dipole field         -0.0000 Ry au, 
 
        Potential amp.        0.0016 Ry
        Total length         54.7057 bohr
 
 
     Adding external electric field

     Computed dipole along edir(3) : 
        Dipole               -0.0248 Ry au,         -0.0630 Debye
        Dipole field         -0.0000 Ry au, 
 
        Potential amp.        0.0016 Ry
        Total length         54.7057 bohr
 

     total cpu time spent up to now is      683.9 secs

     total energy              =   -8078.54979326 Ry
     estimated scf accuracy    <       0.09737057 Ry

     total magnetization       =    96.75 Bohr mag/cell
     absolute magnetization    =    98.12 Bohr mag/cell

     iteration # 33     ecut=    50.00 Ry     beta= 0.10
     Davidson diagonalization with overlap
     ethr =  7.49E-06,  avg # of iterations =  1.5

     negative rho (up, down):  3.931E-05 1.128E-04
 
     Adding external electric field

     Computed dipole along edir(3) : 
        Dipole               -0.0598 Ry au,         -0.1521 Debye
        Dipole field         -0.0000 Ry au, 
 
        Potential amp.        0.0039 Ry
        Total length         54.7057 bohr
 
 
     Adding external electric field

     Computed dipole along edir(3) : 
        Dipole               -0.0598 Ry au,         -0.1521 Debye
        Dipole field         -0.0000 Ry au, 
 
        Potential amp.        0.0039 Ry
        Total length         54.7057 bohr
 

     total cpu time spent up to now is      702.4 secs

     total energy              =   -8078.55150076 Ry
     estimated scf accuracy    <       0.09712438 Ry

     total magnetization       =    96.75 Bohr mag/cell
     absolute magnetization    =    98.11 Bohr mag/cell

     iteration # 34     ecut=    50.00 Ry     beta= 0.10
     Davidson diagonalization with overlap
     ethr =  7.49E-06,  avg # of iterations =  1.0

     negative rho (up, down):  2.347E-03 2.750E-03
 
     Adding external electric field

     Computed dipole along edir(3) : 
        Dipole                0.0476 Ry au,          0.1209 Debye
        Dipole field          0.0000 Ry au, 
 
        Potential amp.       -0.0031 Ry
        Total length         54.7057 bohr
 
 
     Adding external electric field

     Computed dipole along edir(3) : 
        Dipole                0.0476 Ry au,          0.1209 Debye
        Dipole field          0.0000 Ry au, 
 
        Potential amp.       -0.0031 Ry
        Total length         54.7057 bohr
 

     total cpu time spent up to now is      719.6 secs

     total energy              =   -8078.55218962 Ry
     estimated scf accuracy    <       0.07910915 Ry

     total magnetization       =    96.74 Bohr mag/cell
     absolute magnetization    =    98.22 Bohr mag/cell

     iteration # 35     ecut=    50.00 Ry     beta= 0.10
     Davidson diagonalization with overlap
     ethr =  7.14E-06,  avg # of iterations =  2.0

     negative rho (up, down):  3.519E-03 3.969E-03
 
     Adding external electric field

     Computed dipole along edir(3) : 
        Dipole                0.0783 Ry au,          0.1991 Debye
        Dipole field          0.0000 Ry au, 
 
        Potential amp.       -0.0051 Ry
        Total length         54.7057 bohr
 
 
     Adding external electric field

     Computed dipole along edir(3) : 
        Dipole                0.0783 Ry au,          0.1991 Debye
        Dipole field          0.0000 Ry au, 
 
        Potential amp.       -0.0051 Ry
        Total length         54.7057 bohr
 

     total cpu time spent up to now is      739.4 secs

     total energy              =   -8078.55230550 Ry
     estimated scf accuracy    <       0.05959058 Ry

     total magnetization       =    96.99 Bohr mag/cell
     absolute magnetization    =    98.60 Bohr mag/cell

     iteration # 36     ecut=    50.00 Ry     beta= 0.10
     Davidson diagonalization with overlap
     ethr =  5.38E-06,  avg # of iterations =  1.5

     negative rho (up, down):  1.214E-03 1.243E-03
 
     Adding external electric field

     Computed dipole along edir(3) : 
        Dipole                0.0413 Ry au,          0.1050 Debye
        Dipole field          0.0000 Ry au, 
 
        Potential amp.       -0.0027 Ry
        Total length         54.7057 bohr
 
 
     Adding external electric field

     Computed dipole along edir(3) : 
        Dipole                0.0413 Ry au,          0.1050 Debye
        Dipole field          0.0000 Ry au, 
 
        Potential amp.       -0.0027 Ry
        Total length         54.7057 bohr
 

     total cpu time spent up to now is      757.6 secs

     total energy              =   -8078.55172773 Ry
     estimated scf accuracy    <       0.05282618 Ry

     total magnetization       =    97.06 Bohr mag/cell
     absolute magnetization    =    98.70 Bohr mag/cell

     iteration # 37     ecut=    50.00 Ry     beta= 0.10
     Davidson diagonalization with overlap
     ethr =  4.77E-06,  avg # of iterations =  5.5

     negative rho (up, down):  9.630E-04 9.667E-04
 
     Adding external electric field

     Computed dipole along edir(3) : 
        Dipole                0.0362 Ry au,          0.0920 Debye
        Dipole field          0.0000 Ry au, 
 
        Potential amp.       -0.0024 Ry
        Total length         54.7057 bohr
 
 
     Adding external electric field

     Computed dipole along edir(3) : 
        Dipole                0.0362 Ry au,          0.0920 Debye
        Dipole field          0.0000 Ry au, 
 
        Potential amp.       -0.0024 Ry
        Total length         54.7057 bohr
 

     total cpu time spent up to now is      779.7 secs

     total energy              =   -8078.55204819 Ry
     estimated scf accuracy    <       0.03811041 Ry

     total magnetization       =    97.12 Bohr mag/cell
     absolute magnetization    =    98.76 Bohr mag/cell

     iteration # 38     ecut=    50.00 Ry     beta= 0.10
     Davidson diagonalization with overlap
     ethr =  3.44E-06,  avg # of iterations =  1.5

     negative rho (up, down):  1.230E-03 1.286E-03
 
     Adding external electric field

     Computed dipole along edir(3) : 
        Dipole                0.0682 Ry au,          0.1734 Debye
        Dipole field          0.0000 Ry au, 
 
        Potential amp.       -0.0045 Ry
        Total length         54.7057 bohr
 
 
     Adding external electric field

     Computed dipole along edir(3) : 
        Dipole                0.0682 Ry au,          0.1734 Debye
        Dipole field          0.0000 Ry au, 
 
        Potential amp.       -0.0045 Ry
        Total length         54.7057 bohr
 

     total cpu time spent up to now is      798.3 secs

     total energy              =   -8078.55218664 Ry
     estimated scf accuracy    <       0.03496469 Ry

     total magnetization       =    97.14 Bohr mag/cell
     absolute magnetization    =    98.78 Bohr mag/cell

     iteration # 39     ecut=    50.00 Ry     beta= 0.10
     Davidson diagonalization with overlap
     ethr =  3.16E-06,  avg # of iterations =  2.0

     negative rho (up, down):  2.765E-03 2.701E-03
 
     Adding external electric field

     Computed dipole along edir(3) : 
        Dipole                0.1285 Ry au,          0.3266 Debye
        Dipole field          0.0001 Ry au, 
 
        Potential amp.       -0.0084 Ry
        Total length         54.7057 bohr
 
 
     Adding external electric field

     Computed dipole along edir(3) : 
        Dipole                0.1285 Ry au,          0.3266 Debye
        Dipole field          0.0001 Ry au, 
 
        Potential amp.       -0.0084 Ry
        Total length         54.7057 bohr
 

     total cpu time spent up to now is      817.8 secs

     total energy              =   -8078.55285018 Ry
     estimated scf accuracy    <       0.02950194 Ry

     total magnetization       =    97.20 Bohr mag/cell
     absolute magnetization    =    98.81 Bohr mag/cell

     iteration # 40     ecut=    50.00 Ry     beta= 0.10
     Davidson diagonalization with overlap
     c_bands:  5 eigenvalues not converged
     c_bands:  2 eigenvalues not converged
     ethr =  2.66E-06,  avg # of iterations = 20.0

     negative rho (up, down):  3.322E-03 3.152E-03
 
     Adding external electric field

     Computed dipole along edir(3) : 
        Dipole                0.1680 Ry au,          0.4270 Debye
        Dipole field          0.0001 Ry au, 
 
        Potential amp.       -0.0110 Ry
        Total length         54.7057 bohr
 
 
     Adding external electric field

     Computed dipole along edir(3) : 
        Dipole                0.1680 Ry au,          0.4270 Debye
        Dipole field          0.0001 Ry au, 
 
        Potential amp.       -0.0110 Ry
        Total length         54.7057 bohr
 

     total cpu time spent up to now is      860.3 secs

     total energy              =   -8078.55393599 Ry
     estimated scf accuracy    <       0.01057453 Ry

     total magnetization       =    97.20 Bohr mag/cell
     absolute magnetization    =    98.63 Bohr mag/cell

     iteration # 41     ecut=    50.00 Ry     beta= 0.10
     Davidson diagonalization with overlap
     ethr =  9.54E-07,  avg # of iterations =  2.0

     negative rho (up, down):  1.590E-03 1.444E-03
 
     Adding external electric field

     Computed dipole along edir(3) : 
        Dipole                0.1780 Ry au,          0.4523 Debye
        Dipole field          0.0001 Ry au, 
 
        Potential amp.       -0.0117 Ry
        Total length         54.7057 bohr
 
 
     Adding external electric field

     Computed dipole along edir(3) : 
        Dipole                0.1780 Ry au,          0.4523 Debye
        Dipole field          0.0001 Ry au, 
 
        Potential amp.       -0.0117 Ry
        Total length         54.7057 bohr
 

     total cpu time spent up to now is      879.3 secs

     total energy              =   -8078.55457483 Ry
     estimated scf accuracy    <       0.00525156 Ry

     total magnetization       =    97.11 Bohr mag/cell
     absolute magnetization    =    98.37 Bohr mag/cell

     iteration # 42     ecut=    50.00 Ry     beta= 0.10
     Davidson diagonalization with overlap
     ethr =  4.74E-07,  avg # of iterations =  1.0

     negative rho (up, down):  2.234E-03 2.028E-03
 
     Adding external electric field

     Computed dipole along edir(3) : 
        Dipole                0.2028 Ry au,          0.5155 Debye
        Dipole field          0.0001 Ry au, 
 
        Potential amp.       -0.0133 Ry
        Total length         54.7057 bohr
 
 
     Adding external electric field

     Computed dipole along edir(3) : 
        Dipole                0.2028 Ry au,          0.5155 Debye
        Dipole field          0.0001 Ry au, 
 
        Potential amp.       -0.0133 Ry
        Total length         54.7057 bohr
 

     total cpu time spent up to now is      896.5 secs

     total energy              =   -8078.55454941 Ry
     estimated scf accuracy    <       0.00500069 Ry

     total magnetization       =    97.06 Bohr mag/cell
     absolute magnetization    =    98.31 Bohr mag/cell

     iteration # 43     ecut=    50.00 Ry     beta= 0.10
     Davidson diagonalization with overlap
     ethr =  4.51E-07,  avg # of iterations =  1.5

     negative rho (up, down):  5.454E-04 4.652E-04
 
     Adding external electric field

     Computed dipole along edir(3) : 
        Dipole                0.2322 Ry au,          0.5902 Debye
        Dipole field          0.0001 Ry au, 
 
        Potential amp.       -0.0152 Ry
        Total length         54.7057 bohr
 
 
     Adding external electric field

     Computed dipole along edir(3) : 
        Dipole                0.2322 Ry au,          0.5902 Debye
        Dipole field          0.0001 Ry au, 
 
        Potential amp.       -0.0152 Ry
        Total length         54.7057 bohr
 

     total cpu time spent up to now is      915.2 secs

     total energy              =   -8078.55474763 Ry
     estimated scf accuracy    <       0.00359942 Ry

     total magnetization       =    97.05 Bohr mag/cell
     absolute magnetization    =    98.26 Bohr mag/cell

     iteration # 44     ecut=    50.00 Ry     beta= 0.10
     Davidson diagonalization with overlap
     ethr =  3.25E-07,  avg # of iterations =  2.0

     negative rho (up, down):  7.783E-04 6.968E-04
 
     Adding external electric field

     Computed dipole along edir(3) : 
        Dipole                0.2786 Ry au,          0.7080 Debye
        Dipole field          0.0002 Ry au, 
 
        Potential amp.       -0.0183 Ry
        Total length         54.7057 bohr
 
 
     Adding external electric field

     Computed dipole along edir(3) : 
        Dipole                0.2786 Ry au,          0.7080 Debye
        Dipole field          0.0002 Ry au, 
 
        Potential amp.       -0.0183 Ry
        Total length         54.7057 bohr
 

     total cpu time spent up to now is      935.1 secs

     total energy              =   -8078.55495459 Ry
     estimated scf accuracy    <       0.00282828 Ry

     total magnetization       =    97.07 Bohr mag/cell
     absolute magnetization    =    98.31 Bohr mag/cell

     iteration # 45     ecut=    50.00 Ry     beta= 0.10
     Davidson diagonalization with overlap
     ethr =  2.55E-07,  avg # of iterations =  2.0

     negative rho (up, down):  6.529E-04 5.307E-04
 
     Adding external electric field

     Computed dipole along edir(3) : 
        Dipole                0.2891 Ry au,          0.7349 Debye
        Dipole field          0.0002 Ry au, 
 
        Potential amp.       -0.0190 Ry
        Total length         54.7057 bohr
 
 
     Adding external electric field

     Computed dipole along edir(3) : 
        Dipole                0.2891 Ry au,          0.7349 Debye
        Dipole field          0.0002 Ry au, 
 
        Potential amp.       -0.0190 Ry
        Total length         54.7057 bohr
 

     total cpu time spent up to now is      953.6 secs

     total energy              =   -8078.55502790 Ry
     estimated scf accuracy    <       0.00124816 Ry

     total magnetization       =    97.04 Bohr mag/cell
     absolute magnetization    =    98.27 Bohr mag/cell

     iteration # 46     ecut=    50.00 Ry     beta= 0.10
     Davidson diagonalization with overlap
     ethr =  1.13E-07,  avg # of iterations =  1.0

     negative rho (up, down):  5.780E-04 3.963E-04
 
     Adding external electric field

     Computed dipole along edir(3) : 
        Dipole                0.2955 Ry au,          0.7510 Debye
        Dipole field          0.0002 Ry au, 
 
        Potential amp.       -0.0194 Ry
        Total length         54.7057 bohr
 
 
     Adding external electric field

     Computed dipole along edir(3) : 
        Dipole                0.2955 Ry au,          0.7510 Debye
        Dipole field          0.0002 Ry au, 
 
        Potential amp.       -0.0194 Ry
        Total length         54.7057 bohr
 

     total cpu time spent up to now is      970.5 secs

     total energy              =   -8078.55503806 Ry
     estimated scf accuracy    <       0.00083093 Ry

     total magnetization       =    97.03 Bohr mag/cell
     absolute magnetization    =    98.26 Bohr mag/cell

     iteration # 47     ecut=    50.00 Ry     beta= 0.10
     Davidson diagonalization with overlap
     ethr =  7.50E-08,  avg # of iterations =  2.0

     negative rho (up, down):  4.425E-04 2.290E-04
 
     Adding external electric field

     Computed dipole along edir(3) : 
        Dipole                0.2838 Ry au,          0.7213 Debye
        Dipole field          0.0002 Ry au, 
 
        Potential amp.       -0.0186 Ry
        Total length         54.7057 bohr
 
 
     Adding external electric field

     Computed dipole along edir(3) : 
        Dipole                0.2838 Ry au,          0.7213 Debye
        Dipole field          0.0002 Ry au, 
 
        Potential amp.       -0.0186 Ry
        Total length         54.7057 bohr
 

     total cpu time spent up to now is      989.6 secs

     total energy              =   -8078.55502744 Ry
     estimated scf accuracy    <       0.00053995 Ry

     total magnetization       =    97.02 Bohr mag/cell
     absolute magnetization    =    98.26 Bohr mag/cell

     iteration # 48     ecut=    50.00 Ry     beta= 0.10
     Davidson diagonalization with overlap
     ethr =  4.87E-08,  avg # of iterations =  2.0

     negative rho (up, down):  1.048E-04 1.701E-05
 
     Adding external electric field

     Computed dipole along edir(3) : 
        Dipole                0.2683 Ry au,          0.6820 Debye
        Dipole field          0.0002 Ry au, 
 
        Potential amp.       -0.0176 Ry
        Total length         54.7057 bohr
 
 
     Adding external electric field

     Computed dipole along edir(3) : 
        Dipole                0.2683 Ry au,          0.6820 Debye
        Dipole field          0.0002 Ry au, 
 
        Potential amp.       -0.0176 Ry
        Total length         54.7057 bohr
 

     total cpu time spent up to now is     1008.1 secs

     total energy              =   -8078.55501137 Ry
     estimated scf accuracy    <       0.00032263 Ry

     total magnetization       =    97.03 Bohr mag/cell
     absolute magnetization    =    98.25 Bohr mag/cell

     iteration # 49     ecut=    50.00 Ry     beta= 0.10
     Davidson diagonalization with overlap
     ethr =  2.91E-08,  avg # of iterations =  2.0

     negative rho (up, down):  3.875E-04 1.719E-04
 
     Adding external electric field

     Computed dipole along edir(3) : 
        Dipole                0.2757 Ry au,          0.7009 Debye
        Dipole field          0.0002 Ry au, 
 
        Potential amp.       -0.0181 Ry
        Total length         54.7057 bohr
 
 
     Adding external electric field

     Computed dipole along edir(3) : 
        Dipole                0.2757 Ry au,          0.7009 Debye
        Dipole field          0.0002 Ry au, 
 
        Potential amp.       -0.0181 Ry
        Total length         54.7057 bohr
 

     total cpu time spent up to now is     1027.2 secs

     total energy              =   -8078.55502863 Ry
     estimated scf accuracy    <       0.00018812 Ry

     total magnetization       =    97.05 Bohr mag/cell
     absolute magnetization    =    98.27 Bohr mag/cell

     iteration # 50     ecut=    50.00 Ry     beta= 0.10
     Davidson diagonalization with overlap
     ethr =  1.70E-08,  avg # of iterations =  2.0

     negative rho (up, down):  2.362E-04 5.471E-05
 
     Adding external electric field

     Computed dipole along edir(3) : 
        Dipole                0.2751 Ry au,          0.6992 Debye
        Dipole field          0.0002 Ry au, 
 
        Potential amp.       -0.0180 Ry
        Total length         54.7057 bohr
 
 
     Adding external electric field

     Computed dipole along edir(3) : 
        Dipole                0.2751 Ry au,          0.6992 Debye
        Dipole field          0.0002 Ry au, 
 
        Potential amp.       -0.0180 Ry
        Total length         54.7057 bohr
 

     total cpu time spent up to now is     1046.0 secs

     total energy              =   -8078.55504445 Ry
     estimated scf accuracy    <       0.00012024 Ry

     total magnetization       =    97.05 Bohr mag/cell
     absolute magnetization    =    98.26 Bohr mag/cell

     iteration # 51     ecut=    50.00 Ry     beta= 0.10
     Davidson diagonalization with overlap
     ethr =  1.09E-08,  avg # of iterations =  2.0

     negative rho (up, down):  6.584E-04 3.203E-04
 
     Adding external electric field

     Computed dipole along edir(3) : 
        Dipole                0.2853 Ry au,          0.7253 Debye
        Dipole field          0.0002 Ry au, 
 
        Potential amp.       -0.0187 Ry
        Total length         54.7057 bohr
 
 
     Adding external electric field

     Computed dipole along edir(3) : 
        Dipole                0.2853 Ry au,          0.7253 Debye
        Dipole field          0.0002 Ry au, 
 
        Potential amp.       -0.0187 Ry
        Total length         54.7057 bohr
 

     total cpu time spent up to now is     1065.6 secs

     total energy              =   -8078.55505707 Ry
     estimated scf accuracy    <       0.00007513 Ry

     total magnetization       =    97.06 Bohr mag/cell
     absolute magnetization    =    98.27 Bohr mag/cell

     iteration # 52     ecut=    50.00 Ry     beta= 0.10
     Davidson diagonalization with overlap
     ethr =  6.78E-09,  avg # of iterations =  1.5

     negative rho (up, down):  1.083E-03 6.961E-04
 
     Adding external electric field

     Computed dipole along edir(3) : 
        Dipole                0.2941 Ry au,          0.7475 Debye
        Dipole field          0.0002 Ry au, 
 
        Potential amp.       -0.0193 Ry
        Total length         54.7057 bohr
 
 
     Adding external electric field

     Computed dipole along edir(3) : 
        Dipole                0.2941 Ry au,          0.7475 Debye
        Dipole field          0.0002 Ry au, 
 
        Potential amp.       -0.0193 Ry
        Total length         54.7057 bohr
 

     total cpu time spent up to now is     1083.6 secs

     total energy              =   -8078.55506413 Ry
     estimated scf accuracy    <       0.00002788 Ry

     total magnetization       =    97.05 Bohr mag/cell
     absolute magnetization    =    98.26 Bohr mag/cell

     iteration # 53     ecut=    50.00 Ry     beta= 0.10
     Davidson diagonalization with overlap
     ethr =  2.52E-09,  avg # of iterations =  2.0

     negative rho (up, down):  1.181E-03 7.382E-04
 
     Adding external electric field

     Computed dipole along edir(3) : 
        Dipole                0.2993 Ry au,          0.7608 Debye
        Dipole field          0.0002 Ry au, 
 
        Potential amp.       -0.0196 Ry
        Total length         54.7057 bohr
 
 
     Adding external electric field

     Computed dipole along edir(3) : 
        Dipole                0.2993 Ry au,          0.7608 Debye
        Dipole field          0.0002 Ry au, 
 
        Potential amp.       -0.0196 Ry
        Total length         54.7057 bohr
 

     total cpu time spent up to now is     1102.9 secs

     total energy              =   -8078.55506773 Ry
     estimated scf accuracy    <       0.00001522 Ry

     total magnetization       =    97.05 Bohr mag/cell
     absolute magnetization    =    98.26 Bohr mag/cell

     iteration # 54     ecut=    50.00 Ry     beta= 0.10
     Davidson diagonalization with overlap
     ethr =  1.37E-09,  avg # of iterations =  1.5

     negative rho (up, down):  1.386E-03 9.087E-04
 
     Adding external electric field

     Computed dipole along edir(3) : 
        Dipole                0.3047 Ry au,          0.7746 Debye
        Dipole field          0.0002 Ry au, 
 
        Potential amp.       -0.0200 Ry
        Total length         54.7057 bohr
 
 
     Adding external electric field

     Computed dipole along edir(3) : 
        Dipole                0.3047 Ry au,          0.7746 Debye
        Dipole field          0.0002 Ry au, 
 
        Potential amp.       -0.0200 Ry
        Total length         54.7057 bohr
 

     total cpu time spent up to now is     1120.4 secs

     total energy              =   -8078.55507035 Ry
     estimated scf accuracy    <       0.00000955 Ry

     total magnetization       =    97.06 Bohr mag/cell
     absolute magnetization    =    98.26 Bohr mag/cell

     iteration # 55     ecut=    50.00 Ry     beta= 0.10
     Davidson diagonalization with overlap
     ethr =  8.62E-10,  avg # of iterations =  1.5

     negative rho (up, down):  1.454E-03 9.578E-04
 
     Adding external electric field

     Computed dipole along edir(3) : 
        Dipole                0.3072 Ry au,          0.7808 Debye
        Dipole field          0.0002 Ry au, 
 
        Potential amp.       -0.0201 Ry
        Total length         54.7057 bohr
 
 
     Adding external electric field

     Computed dipole along edir(3) : 
        Dipole                0.3072 Ry au,          0.7808 Debye
        Dipole field          0.0002 Ry au, 
 
        Potential amp.       -0.0201 Ry
        Total length         54.7057 bohr
 

     total cpu time spent up to now is     1137.9 secs

     total energy              =   -8078.55507141 Ry
     estimated scf accuracy    <       0.00000589 Ry

     total magnetization       =    97.06 Bohr mag/cell
     absolute magnetization    =    98.26 Bohr mag/cell

     iteration # 56     ecut=    50.00 Ry     beta= 0.10
     Davidson diagonalization with overlap
     ethr =  5.32E-10,  avg # of iterations =  1.5

     negative rho (up, down):  1.473E-03 9.526E-04
 
     Adding external electric field

     Computed dipole along edir(3) : 
        Dipole                0.3107 Ry au,          0.7896 Debye
        Dipole field          0.0002 Ry au, 
 
        Potential amp.       -0.0204 Ry
        Total length         54.7057 bohr
 
 
     Adding external electric field

     Computed dipole along edir(3) : 
        Dipole                0.3107 Ry au,          0.7896 Debye
        Dipole field          0.0002 Ry au, 
 
        Potential amp.       -0.0204 Ry
        Total length         54.7057 bohr
 

     total cpu time spent up to now is     1155.4 secs

     total energy              =   -8078.55507199 Ry
     estimated scf accuracy    <       0.00000386 Ry

     total magnetization       =    97.06 Bohr mag/cell
     absolute magnetization    =    98.26 Bohr mag/cell

     iteration # 57     ecut=    50.00 Ry     beta= 0.10
     Davidson diagonalization with overlap
     ethr =  3.49E-10,  avg # of iterations =  1.5

     negative rho (up, down):  1.428E-03 8.944E-04
 
     Adding external electric field

     Computed dipole along edir(3) : 
        Dipole                0.3117 Ry au,          0.7923 Debye
        Dipole field          0.0002 Ry au, 
 
        Potential amp.       -0.0204 Ry
        Total length         54.7057 bohr
 
 
     Adding external electric field

     Computed dipole along edir(3) : 
        Dipole                0.3117 Ry au,          0.7923 Debye
        Dipole field          0.0002 Ry au, 
 
        Potential amp.       -0.0204 Ry
        Total length         54.7057 bohr
 

     total cpu time spent up to now is     1172.4 secs

     total energy              =   -8078.55507191 Ry
     estimated scf accuracy    <       0.00000200 Ry

     total magnetization       =    97.06 Bohr mag/cell
     absolute magnetization    =    98.27 Bohr mag/cell

     iteration # 58     ecut=    50.00 Ry     beta= 0.10
     Davidson diagonalization with overlap
     ethr =  1.80E-10,  avg # of iterations =  1.5

     negative rho (up, down):  1.378E-03 8.427E-04
 
     Adding external electric field

     Computed dipole along edir(3) : 
        Dipole                0.3120 Ry au,          0.7931 Debye
        Dipole field          0.0002 Ry au, 
 
        Potential amp.       -0.0205 Ry
[...]
    -5.9875  -5.9832  -5.9499  -5.9318  -5.8849  -5.8765  -5.8530  -5.8464
    -5.8266  -5.8070  -5.7890  -5.7615  -5.7519  -5.7367  -5.6946  -5.6853
    -5.6771  -5.6480  -5.6251  -5.6097  -5.5825  -5.5567  -5.5536  -5.5376
    -5.5179  -5.5144  -5.4902  -5.4778  -5.4667  -5.4569  -5.3870  -5.3786
    -5.3625  -5.3325  -5.3043  -5.2668  -5.2357  -5.1974  -5.1738  -5.1702
    -5.1502  -5.1068  -5.1008  -4.9982  -4.9635  -4.9513  -4.9498  -4.9124
    -4.8780  -4.8682  -4.8231  -4.7978  -4.7798  -4.7307  -4.7216  -4.7056
    -4.6622  -4.6027  -4.5803  -4.5653  -4.5090  -4.4685  -4.4471  -4.3935
    -4.3847  -4.3578  -4.3166  -4.2887  -4.2624  -4.2567  -4.2047  -4.1783
    -4.1347  -4.1144  -4.0913  -4.0614  -4.0516  -4.0154  -4.0000  -3.9611
    -3.8683  -3.8643  -3.8453  -3.8022  -3.7981  -3.7679  -3.7487  -3.7264
    -3.7100  -3.6886  -3.6654  -3.6144  -3.6104  -3.5880  -3.5853  -3.5690
    -3.5516  -3.5402  -3.5049  -3.4982  -3.4875  -3.4708  -3.4413  -3.4238
    -3.4180  -3.3998  -3.3984  -3.3633  -3.3276  -3.3247  -3.3139  -3.2959
    -3.2835  -3.2705  -3.2604  -3.2468  -3.2219  -3.1917  -3.1799  -3.1472
    -3.1313  -3.0991  -3.0567  -3.0378  -3.0236  -3.0123  -3.0030  -2.9829
    -2.9697  -2.9664  -2.9501  -2.8888  -2.8825  -2.8620  -2.8430  -2.8129
    -2.7968  -2.7759  -2.7222  -2.7142  -2.7018  -2.6771  -2.6736  -2.6649
    -2.6575  -2.6411  -2.6188  -2.6117  -2.5960  -2.5890  -2.5767  -2.5720
    -2.5516  -2.5407  -2.5274  -2.5208  -2.5022  -2.4867  -2.4743  -2.4470
    -2.4313  -2.4135  -2.3911  -2.3786  -2.3468  -2.3361  -2.3118  -2.3027
    -2.2843  -2.2805  -2.2622  -2.2547  -2.2146  -2.2134  -2.1899  -2.1768
    -2.1560  -2.1256  -2.1050  -2.0994  -2.0764  -2.0660  -2.0502  -2.0287
    -2.0158  -1.9962  -1.9702  -1.9577  -1.9330  -1.9137  -1.9067  -1.8769
    -1.8668  -1.8613  -1.8497  -1.8426  -1.8303  -1.7952  -1.7609  -1.7447
    -1.7371  -1.7086  -1.7048  -1.6908  -1.6690  -1.6529  -1.6034  -1.5957
    -1.5794  -1.5686  -1.5365  -1.5173  -1.4978  -1.4803  -1.4706  -1.4606
    -1.4453  -1.4204  -1.4182  -1.3798  -1.3689  -1.3584  -1.3160  -1.3030
    -1.2959  -1.2851  -1.2315  -1.2180  -1.1939  -1.1543  -1.1476  -1.1354
    -1.0948  -1.0735  -1.0010  -0.9612  -0.9430  -0.8216  -0.8083  -0.7703
    -0.7047  -0.6818  -0.6717  -0.4875  -0.3388  -0.2771  -0.2335  -0.1760
     0.1809   0.1948   0.2372   0.2582   0.2642   0.2673   0.2801   0.3021
     0.3329   0.3437   0.3874   0.3963   0.3977   0.4008   0.4054   0.4107
     0.4172   0.4252   0.4416   0.4448   0.4658   0.4702   0.4728   0.4777
     0.4860   0.4959   0.4996   0.5078   0.5145   0.5199   0.5269   0.5350
     0.5508   0.5568   0.5792   0.5835   0.5853   0.5870   0.5975   0.6068
     0.6171   0.6230   0.6280   0.6430   0.6556   0.6675   0.6712   0.6821
     0.6992   0.7052   0.7094   0.7219   0.7301   0.7341   0.7412   0.7726
     0.7757   0.7928   0.8041   0.8097   0.8134   0.8248   0.8346   0.8475
     0.8597   0.8645   0.8735   0.8843   0.8936   0.9097   0.9128   0.9431
     0.9945   1.0061   1.0127   1.0356   1.0822   1.1027   1.1687   1.2187
     1.6861   1.7691   1.7760   1.7897   1.8113   1.8185   1.8396   1.8664
     1.8892   1.9090   1.9305   1.9399   1.9648   1.9814   2.0296   2.0572
     2.0676   2.0848   2.0912   2.1113   2.1270   2.1483   2.1554   2.1586
     2.1998   2.2016   2.2218   2.2410   2.2458   2.2873   2.3001   2.3246
     2.3359   2.3404   2.3458   2.3659   2.3735   2.3830   2.4099   2.4304
     2.4678   2.4783   2.5159   2.5207   2.5377   2.5574   2.5807   2.6074
     2.6474   2.6578   2.7578   2.8274   2.8380   2.8734   2.8943   3.4806
     3.5568   3.6570   3.7197   3.7369   3.7521   3.7672   3.7899   3.8560
     3.9216   3.9351   3.9509   3.9761   3.9884   3.9988   4.0011   4.0191
     4.0603   4.0757   4.0855   4.0952   4.1493   4.1582   4.2059   4.2202
     4.2281   4.2411   4.2497   4.2681   4.3130   4.6066   4.6665   4.7752
     4.7862   4.8464   4.8938   4.9165   4.9698   4.9949   5.0027   5.0694
     5.0774   5.1096   5.1366   5.1757   5.2191   5.2330   5.3866   6.2097
     6.3401   6.4536   6.5318   6.7005   6.7103   6.7792   6.8523   6.8989
     6.9279   7.0006   7.0033   7.0708   7.2315   7.2955   7.3271   7.3782
     7.4081   7.4187   7.5057   7.5329   7.5611   7.6571   7.6938   7.7599
     7.8129   7.8631   7.8858   7.9347   7.9619   8.0109   8.0257   8.0712
     8.0761   8.0855   8.1248   8.1524   8.1682   8.2517   8.2805   8.3127
     8.3183   8.3529   8.3722   8.3832   8.4041   8.4143   8.4398   8.4497
     8.4536   8.4918   8.5364   8.5499   8.5625   8.6022   8.6127   8.6231
     8.6420

     the Fermi energy is     1.6941 ev

!    total energy              =   -8078.55507037 Ry
     estimated scf accuracy    <       0.00000067 Ry
     smearing contrib. (-TS)   =      -0.02591548 Ry
     internal energy E=F+TS    =   -8078.52915489 Ry

     The total energy is F=E-TS. E is the sum of the following terms:
     one-electron contribution =  -94638.10763069 Ry
     hartree contribution      =   47903.61930490 Ry
     xc contribution           =   -2177.36464321 Ry
     ewald contribution        =   40835.09247313 Ry
     Dispersion Correction     =      -1.76871890 Ry
     electric field correction =       0.00005988 Ry

     total magnetization       =    97.06 Bohr mag/cell
     absolute magnetization    =    98.27 Bohr mag/cell

     convergence has been achieved in  59 iterations

     negative rho (up, down):  1.162E-03 6.263E-04

     Forces acting on atoms (cartesian axes, Ry/au):

     atom    1 type  1   force =    -0.00011926   -0.00000322   -0.00002219
     atom    2 type  1   force =    -0.00024166   -0.00013758   -0.00001997
     atom    3 type  2   force =    -0.00055432   -0.00060081   -0.00018875
     atom    4 type  1   force =    -0.00015995    0.00003614   -0.00003866
     atom    5 type  1   force =    -0.00088159    0.00035838    0.00049797
     atom    6 type  1   force =    -0.00017098   -0.00016068    0.00015964
     atom    7 type  1   force =     0.00253462   -0.00108232   -0.00235289
     atom    8 type  2   force =    -0.00007797   -0.00018201    0.00078939
     atom    9 type  2   force =    -0.00011751   -0.00094645   -0.00026111
     atom   10 type  1   force =     0.00006032    0.00032067   -0.00006243
     atom   11 type  1   force =    -0.00060073    0.00018029   -0.00034881
     atom   12 type  1   force =     0.00032739   -0.00039450    0.00020958
     atom   13 type  3   force =     0.00041195    0.00027948    0.00003461
     atom   14 type  3   force =    -0.00033487   -0.00012133   -0.00039332
     atom   15 type  3   force =     0.00035873    0.00003905   -0.00015039
     atom   16 type  3   force =    -0.00017531   -0.00012316    0.00010938
     atom   17 type  4   force =     0.00046500   -0.00019234   -0.00022135
     atom   18 type  4   force =     0.00010875    0.00000200   -0.00005885
     atom   19 type  4   force =    -0.00051097    0.00034258   -0.00008605
     atom   20 type  4   force =    -0.00007086    0.00041027    0.00022420
     atom   21 type  4   force =     0.00006525   -0.00011470   -0.00021732
     atom   22 type  4   force =     0.00047839    0.00028457    0.00054191
     atom   23 type  4   force =    -0.00040118    0.00004384   -0.00004391
     atom   24 type  4   force =     0.00022476    0.00013509    0.00006233
     atom   25 type  4   force =    -0.00020962   -0.00006419    0.00025951
     atom   26 type  4   force =    -0.00011595   -0.00011581    0.00032793
     atom   27 type  4   force =    -0.00017894    0.00000118    0.00023879
     atom   28 type  4   force =     0.00073286   -0.00003571    0.00042300
     atom   29 type  4   force =    -0.00017471   -0.00019802   -0.00004783
     atom   30 type  4   force =     0.00037325    0.00039308    0.00002356
     atom   31 type  4   force =    -0.00040129   -0.00003790   -0.00047860
     atom   32 type  4   force =    -0.00029903   -0.00004920    0.00050264
     atom   33 type  3   force =     0.00014856    0.00014248   -0.00030662
     atom   34 type  3   force =     0.00016611   -0.00002052   -0.00038332
     atom   35 type  3   force =    -0.00012369   -0.00008357   -0.00003871
     atom   36 type  3   force =    -0.00008790    0.00049508    0.00015113
     atom   37 type  4   force =     0.00020073   -0.00000924   -0.00025115
     atom   38 type  4   force =     0.00031629    0.00036593    0.00004231
     atom   39 type  4   force =     0.00009821   -0.00020722    0.00047687
     atom   40 type  4   force =    -0.00013191    0.00023406   -0.00007234
     atom   41 type  4   force =     0.00014266    0.00002645    0.00003751
     atom   42 type  4   force =     0.00006591   -0.00015857   -0.00023378
     atom   43 type  4   force =    -0.00042369   -0.00023030   -0.00054441
     atom   44 type  4   force =     0.00000341    0.00033951   -0.00022241
     atom   45 type  4   force =    -0.00028593   -0.00019703    0.00031069
     atom   46 type  4   force =     0.00038268    0.00011823   -0.00027044
     atom   47 type  4   force =     0.00024011    0.00010345    0.00036848
     atom   48 type  4   force =     0.00000429    0.00023777    0.00035771
     atom   49 type  4   force =    -0.00001094    0.00005396    0.00038094
     atom   50 type  4   force =     0.00033592    0.00031745    0.00015016
     atom   51 type  4   force =    -0.00005710    0.00008722   -0.00053496
     atom   52 type  4   force =     0.00011802   -0.00015933   -0.00007840
     atom   53 type  1   force =     0.00043466   -0.00090226    0.00053791
     atom   54 type  1   force =     0.00091809    0.00070012   -0.00157839
     atom   55 type  2   force =     0.00094964    0.00076177    0.00475828
     atom   56 type  1   force =    -0.00069280   -0.00099730   -0.00134709
     atom   57 type  1   force =    -0.00013891   -0.00002620    0.00016376
     atom   58 type  1   force =    -0.00024294    0.00015779    0.00009606
     atom   59 type  1   force =     0.00090053    0.00025442    0.00118072
     atom   60 type  2   force =    -0.00015576    0.00003585   -0.00168060
     atom   61 type  2   force =     0.00104725    0.00128154    0.00474581
     atom   62 type  1   force =    -0.00036713   -0.00070680   -0.00127540
     atom   63 type  1   force =     0.00017475    0.00019309   -0.00012887
     atom   64 type  1   force =     0.00025475    0.00014788    0.00030457
     atom   65 type  3   force =    -0.00037532   -0.00081518   -0.00237716
     atom   66 type  3   force =    -0.00002672    0.00103491    0.00323968
     atom   67 type  3   force =    -0.00029991   -0.00016282   -0.00021926
     atom   68 type  3   force =    -0.00073661    0.00073771   -0.00102524
     atom   69 type  4   force =    -0.00067800    0.00043394    0.00070501
     atom   70 type  4   force =    -0.00018957   -0.00001805   -0.00094015
     atom   71 type  4   force =     0.00023332    0.00025643    0.00005317
     atom   72 type  4   force =     0.00021643   -0.00046127    0.00161819
     atom   73 type  4   force =    -0.00076699    0.00069923    0.00178590
     atom   74 type  4   force =     0.00055733   -0.00220819   -0.00181835
     atom   75 type  4   force =    -0.00126032    0.00039514   -0.00025426
     atom   76 type  4   force =    -0.00000087   -0.00065341    0.00143252
     atom   77 type  4   force =    -0.00043064   -0.00009902    0.00061979
     atom   78 type  4   force =    -0.00097693    0.00025334    0.00038281
     atom   79 type  4   force =     0.00028001    0.00028822    0.00065494
     atom   80 type  4   force =     0.00059356    0.00093326   -0.00030461
     atom   81 type  4   force =    -0.00021049   -0.00133005   -0.00124846
     atom   82 type  4   force =     0.00088690   -0.00179999    0.00056300
     atom   83 type  4   force =     0.00005197    0.00064697    0.00038360
     atom   84 type  4   force =    -0.00049434    0.00023380    0.00062784
     atom   85 type  3   force =    -0.00019773   -0.00105147   -0.00226119
     atom   86 type  3   force =     0.00054651    0.00189753    0.00246891
     atom   87 type  3   force =    -0.00028281   -0.00208293    0.00160202
     atom   88 type  3   force =    -0.00068164    0.00086388   -0.00074915
     atom   89 type  4   force =    -0.00016870   -0.00007290    0.00019367
     atom   90 type  4   force =     0.00017440   -0.00091927   -0.00134304
     atom   91 type  4   force =     0.00051802    0.00050776   -0.00080830
     atom   92 type  4   force =     0.00036162   -0.00040762    0.00111551
     atom   93 type  4   force =    -0.00015376    0.00106134    0.00093050
     atom   94 type  4   force =     0.00128787    0.00024324    0.00117456
     atom   95 type  4   force =    -0.00159412    0.00042495    0.00058100
     atom   96 type  4   force =    -0.00015358   -0.00029818    0.00119489
     atom   97 type  4   force =    -0.00008124   -0.00057444    0.00070983
     atom   98 type  4   force =    -0.00030980    0.00101339   -0.00088431
     atom   99 type  4   force =     0.00065406   -0.00011978    0.00071322
     atom  100 type  4   force =     0.00026165    0.00106971   -0.00020513
     atom  101 type  4   force =    -0.00050319   -0.00119692   -0.00078783
     atom  102 type  4   force =     0.00134119   -0.00154643    0.00023647
     atom  103 type  4   force =     0.00033517    0.00036676    0.00027131
     atom  104 type  4   force =    -0.00006969   -0.00058760   -0.00025105
     atom  105 type  1   force =    -0.00087806    0.00205857   -0.00671382
     atom  106 type  1   force =     0.02816421    0.01373818    0.02206024
     atom  107 type  2   force =     0.00172320    0.00029742   -0.01050223
     atom  108 type  1   force =    -0.03110803    0.02293684    0.01699955
     atom  109 type  1   force =     0.00412789   -0.00287274   -0.00333718
     atom  110 type  1   force =    -0.00142646   -0.00652862   -0.00539332
     atom  111 type  1   force =    -0.00359224    0.00235213   -0.00592502
     atom  112 type  2   force =     0.03229410    0.01651279   -0.01021272
     atom  113 type  2   force =     0.00149951    0.00097751   -0.01018354
     atom  114 type  1   force =    -0.03186213    0.02423633    0.01791378
     atom  115 type  1   force =     0.00354926   -0.00472175   -0.00430634
     atom  116 type  1   force =    -0.00477487   -0.00814572   -0.00649109
     atom  117 type  3   force =    -0.02898711   -0.03569439   -0.06277805
     atom  118 type  3   force =     0.00317084    0.00034388   -0.00698132
     atom  119 type  3   force =     0.00073355   -0.00062889   -0.00912675
     atom  120 type  3   force =     0.02796508   -0.05775157   -0.08374225
     atom  121 type  4   force =    -0.00652916   -0.00321003    0.03047489
     atom  122 type  4   force =    -0.00145472   -0.00111623    0.00257206
     atom  123 type  4   force =     0.00156645   -0.00103751    0.00484453
     atom  124 type  4   force =     0.00353413    0.00315145    0.03400445
     atom  125 type  4   force =    -0.00226156   -0.00227187    0.03405827
     atom  126 type  4   force =    -0.00087691    0.00069545    0.00301886
     atom  127 type  4   force =     0.00217795    0.00310635    0.00426351
     atom  128 type  4   force =    -0.00315360   -0.00173215    0.02224480
     atom  129 type  4   force =    -0.01249086    0.03639426    0.00495199
     atom  130 type  4   force =    -0.00148779    0.00033364    0.00233695
     atom  131 type  4   force =    -0.01947361    0.00357148    0.00993398
     atom  132 type  4   force =    -0.00107154    0.00354577    0.00431282
     atom  133 type  4   force =    -0.00292107    0.00063156    0.00239447
     atom  134 type  4   force =     0.00146379   -0.00435784    0.00351818
     atom  135 type  4   force =     0.01378498    0.02358306   -0.00091258
     atom  136 type  4   force =     0.01320391   -0.00064176    0.00239404
     atom  137 type  3   force =    -0.03818401   -0.04126218   -0.06619166
     atom  138 type  3   force =     0.00647175   -0.00302276   -0.00139638
     atom  139 type  3   force =     0.00026732   -0.00158245   -0.00942804
     atom  140 type  3   force =     0.02904623   -0.05119230   -0.08330546
     atom  141 type  4   force =    -0.00103260    0.00274861    0.02933785
     atom  142 type  4   force =     0.00044749    0.00237180   -0.00628180
     atom  143 type  4   force =     0.00163668   -0.00086940    0.00425996
     atom  144 type  4   force =     0.00420753    0.00182235    0.03461577
     atom  145 type  4   force =     0.00897702    0.00382930    0.03119650
     atom  146 type  4   force =    -0.00029510    0.00053778    0.00169765
     atom  147 type  4   force =     0.00268635    0.00344300    0.00394773
     atom  148 type  4   force =    -0.00395009   -0.00139265    0.02215245
     atom  149 type  4   force =    -0.00995199    0.03019613    0.00423583
     atom  150 type  4   force =    -0.00191210    0.00042447    0.00277857
     atom  151 type  4   force =    -0.01854301    0.00504022    0.00990361
     atom  152 type  4   force =    -0.00080951    0.00344660    0.00430661
     atom  153 type  4   force =    -0.00128916    0.00025834    0.00296560
     atom  154 type  4   force =     0.00213617   -0.00252406    0.00281151
     atom  155 type  4   force =     0.01473214    0.02462426    0.00015490
     atom  156 type  4   force =     0.02236518   -0.00366920    0.00143189
     atom  157 type  4   force =    -0.01381937   -0.00593642    0.00585702
     atom  158 type  5   force =     0.01001852    0.00737457   -0.00305013

     Total force =     0.238461     Total SCF correction =     0.003238
 
     init_run     :     11.01s CPU     11.66s WALL (       1 calls)
     electrons    :   1156.76s CPU   1195.78s WALL (       1 calls)
     forces       :      6.62s CPU      6.96s WALL (       1 calls)
     force_london :      0.11s CPU      0.11s WALL (       1 calls)

     Called by init_run:
     wfcinit      :      6.49s CPU      6.71s WALL (       1 calls)
     potinit      :      0.73s CPU      0.90s WALL (       1 calls)
     hinit0       :      2.16s CPU      2.24s WALL (       1 calls)

     Called by electrons:
     c_bands      :    891.19s CPU    910.31s WALL (      59 calls)
     sum_band     :    160.61s CPU    169.93s WALL (      59 calls)
     v_of_rho     :     17.79s CPU     20.57s WALL (      60 calls)
     newd         :     64.58s CPU     72.13s WALL (      60 calls)
     mix_rho      :     21.59s CPU     21.97s WALL (      59 calls)
     energy_londo :      0.08s CPU      0.09s WALL (       1 calls)

     Called by c_bands:
     init_us_2    :      1.76s CPU      1.81s WALL (     240 calls)
     init_us_2:cp :      1.76s CPU      1.81s WALL (     240 calls)
     regterg      :    875.38s CPU    894.31s WALL (     121 calls)

     Called by *egterg:
     rdiaghg      :    211.93s CPU    221.35s WALL (     438 calls)
     h_psi        :    339.10s CPU    343.49s WALL (     440 calls)
     s_psi        :     42.03s CPU     42.10s WALL (     440 calls)
     g_psi        :      0.30s CPU      0.30s WALL (     317 calls)

     Called by h_psi:
     h_psi:calbec :     88.70s CPU     92.12s WALL (     440 calls)
     vloc_psi     :    206.91s CPU    207.38s WALL (     440 calls)
     add_vuspsi   :     42.90s CPU     43.39s WALL (     440 calls)

     General routines
     calbec       :    130.01s CPU    135.21s WALL (     566 calls)
     fft          :     53.35s CPU     56.87s WALL (    1093 calls)
     ffts         :     12.06s CPU     12.09s WALL (    7313 calls)
     fftw         :    234.50s CPU    235.02s WALL (  207428 calls)
     interpolate  :      1.99s CPU      2.06s WALL (     120 calls)
 
     Parallel routines
 
     PWSCF        :  19m36.53s CPU  20m16.84s WALL

 
   This run was terminated on:  21:11:16  17Nov2025            

=------------------------------------------------------------------------------=
   JOB DONE.
=------------------------------------------------------------------------------=
