
     Program PWSCF v.7.2 starts on 18Nov2025 at  2:47: 9 

     This program is part of the open-source Quantum ESPRESSO suite
     for quantum simulation of materials; please cite
         "P. Giannozzi et al., J. Phys.:Condens. Matter 21 395502 (2009);
         "P. Giannozzi et al., J. Phys.:Condens. Matter 29 465901 (2017);
         "P. Giannozzi et al., J. Chem. Phys. 152 154105 (2020);
          URL http://www.quantum-espresso.org", 
     in publications or presentations arising from this work. More details at
     http://www.quantum-espresso.org/quote

     Parallel version (MPI), running on    64 processors

     MPI processes distributed on     4 nodes
     454035 MiB available memory on the printing compute node when the environment starts
 
     Reading input from PWINPUT_atm158_zm

     Current dimensions of program PWSCF are:
     Max number of different atomic species (ntypx) = 10
     Max number of k-points (npk) =  40000
     Max angular momentum in pseudopotentials (lmaxx) =  4
     Presently no symmetry can be used with electric field

     file Ni.pbe-n-rrkjus_psl.1.0.0.UPF: wavefunction(s)  3D renormalized
     file Mn.pbe-spn-rrkjus_psl.0.3.1.UPF: wavefunction(s)  3D renormalized
     file O.pbe-rrkjus.UPF: wavefunction(s)  2S renormalized
     file H.pbe-rrkjus.UPF: wavefunction(s)  1S renormalized

     gamma-point specific algorithms are used
 
     R & G space division:  proc/nbgrp/npool/nimage =      64
     Subspace diagonalization in iterative solution of the eigenvalue problem:
     one sub-group per band group will be used
     custom distributed-memory algorithm (size of sub-group:  7*  7 procs)

 
     Parallelization info
     --------------------
     sticks:   dense  smooth     PW     G-vecs:    dense   smooth      PW
     Min         214      85     20                61830    15614    1928
     Max         216      86     22                61864    15658    1982
     Sum       13727    5503   1375              3958051  1001255  125211
 
     Using Slab Decomposition
 


     bravais-lattice index     =            0
     lattice parameter (alat)  =      17.8532  a.u.
     unit-cell volume          =   20962.6682 (a.u.)^3
     number of atoms/cell      =          158
     number of atomic types    =            5
     number of electrons       =      1108.00
     number of Kohn-Sham states=          665
     kinetic-energy cutoff     =      50.0000  Ry
     charge density cutoff     =     500.0000  Ry
     scf convergence threshold =      1.0E-06
     mixing beta               =       0.1000
     number of iterations used =            8  local-TF  mixing
     Exchange-correlation=  SLA  PW   PBE  PBE
                           (   1   4   3   4   0   0   0)

     celldm(1)=  17.853155  celldm(2)=   0.000000  celldm(3)=   0.000000
     celldm(4)=   0.000000  celldm(5)=   0.000000  celldm(6)=   0.000000

     crystal axes: (cart. coord. in units of alat)
               a(1) = (   1.000000   0.000000   0.000000 )  
               a(2) = (   0.003237   1.081997   0.000000 )  
               a(3) = (   0.000000   0.000000   3.404673 )  

     reciprocal axes: (cart. coord. in units 2 pi/alat)
               b(1) = (  1.000000 -0.002992  0.000000 )  
               b(2) = (  0.000000  0.924217  0.000000 )  
               b(3) = (  0.000000  0.000000  0.293714 )  


     PseudoPot. # 1 for Ni read from file:
     ~/PSEUDO/Ni.pbe-n-rrkjus_psl.1.0.0.UPF
     MD5 check sum: Not computed, couldn't open file
     Pseudo is Ultrasoft + core correction, Zval = 10.0
     Generated using "atomic" code by A. Dal Corso  v.5.1.2
     Using radial grid of 1195 points,  6 beta functions with: 
                l(1) =   0
                l(2) =   0
                l(3) =   1
                l(4) =   1
                l(5) =   2
                l(6) =   2
     Q(r) pseudized with 0 coefficients 


     PseudoPot. # 2 for Mn read from file:
     ~/PSEUDO/Mn.pbe-spn-rrkjus_psl.0.3.1.UPF
     MD5 check sum: Not computed, couldn't open file
     Pseudo is Ultrasoft + core correction, Zval = 15.0
     Generated using &quot;atomic&quot; code by A. Dal Corso  v.6.2.2
     Using radial grid of 1187 points,  6 beta functions with: 
                l(1) =   0
                l(2) =   0
                l(3) =   1
                l(4) =   1
                l(5) =   2
                l(6) =   2
     Q(r) pseudized with 0 coefficients 


     PseudoPot. # 3 for P  read from file:
     ~/PSEUDO/P.pbe-n-rrkjus_psl.1.0.0.UPF
     MD5 check sum: Not computed, couldn't open file
     Pseudo is Ultrasoft + core correction, Zval =  5.0
     Generated using "atomic" code by A. Dal Corso  v.5.1
     Using radial grid of 1147 points,  6 beta functions with: 
                l(1) =   0
                l(2) =   0
                l(3) =   1
                l(4) =   1
                l(5) =   2
                l(6) =   2
     Q(r) pseudized with 0 coefficients 


     PseudoPot. # 4 for O  read from file:
     ~/PSEUDO/O.pbe-rrkjus.UPF
     MD5 check sum: Not computed, couldn't open file
     Pseudo is Ultrasoft, Zval =  6.0
     Generated by new atomic code, or converted to UPF format
     Using radial grid of 1269 points,  4 beta functions with: 
                l(1) =   0
                l(2) =   0
                l(3) =   1
                l(4) =   1
     Q(r) pseudized with 0 coefficients 


     PseudoPot. # 5 for H  read from file:
     ~/PSEUDO/H.pbe-rrkjus.UPF
     MD5 check sum: Not computed, couldn't open file
     Pseudo is Ultrasoft, Zval =  1.0
     Generated by new atomic code, or converted to UPF format
     Using radial grid of 1061 points,  2 beta functions with: 
                l(1) =   0
                l(2) =   0
     Q(r) pseudized with 0 coefficients 


     atomic species   valence    mass     pseudopotential
     Ni               10.00    58.69300     Ni( 1.00)
     Mn               15.00    54.93800     Mn( 1.00)
     P                 5.00    30.97300     P ( 1.00)
     O                 6.00    15.99900     O ( 1.00)
     H                 1.00     1.00790     H ( 1.00)

     Starting magnetic structure 
     atomic species   magnetization
     Ni              1.000
     Mn              1.000
     P               1.000
     O               1.000
     H               0.000

     No symmetry found



   Cartesian axes

     site n.     atom                  positions (alat units)
         1        Ni     tau(   1) = (   0.2517947   0.8308062   1.6798145  )
         2        Ni     tau(   2) = (   0.4936747   0.7709440   1.3761619  )
         3        Mn     tau(   3) = (  -0.0006949   0.2926025   1.6978565  )
         4        Ni     tau(   4) = (   0.2575842   0.2245205   1.3772040  )
         5        Ni     tau(   5) = (   0.9981759   1.0713947   1.5343648  )
         6        Ni     tau(   6) = (   0.2543054   0.5308410   1.5398740  )
         7        Ni     tau(   7) = (   0.7435028   0.8375320   1.7165919  )
         8        Mn     tau(   8) = (   0.9865751   0.7666227   1.3736630  )
         9        Mn     tau(   9) = (   0.4996451   0.2904739   1.7005406  )
        10        Ni     tau(  10) = (   0.7542979   0.2248113   1.3769056  )
        11        Ni     tau(  11) = (   0.4992111   1.0687842   1.5407895  )
        12        Ni     tau(  12) = (   0.7522699   0.5334078   1.5431579  )
        13        P      tau(  13) = (   0.2122732   0.9675179   1.3790338  )
        14        P      tau(  14) = (   0.4636670   0.6428258   1.6974055  )
        15        P      tau(  15) = (   0.2826693   0.0948330   1.6935633  )
        16        P      tau(  16) = (   0.0402322   0.4230972   1.3861994  )
        17        O      tau(  17) = (   0.1342861   0.9002079   1.5145551  )
        18        O      tau(  18) = (   0.3875170   0.7007805   1.5523123  )
        19        O      tau(  19) = (   0.3603904   0.1558919   1.5519331  )
        20        O      tau(  20) = (   0.1179641   0.3570356   1.5223770  )
        21        O      tau(  21) = (   0.1523626   0.8778677   1.2552603  )
        22        O      tau(  22) = (   0.4007827   0.7381390   1.8117461  )
        23        O      tau(  23) = (   0.3394366   0.1915516   1.8103802  )
        24        O      tau(  24) = (   0.0993295   0.3317293   1.2638219  )
        25        O      tau(  25) = (   0.0994981   0.5767588   1.3831024  )
        26        O      tau(  26) = (   0.3415998   1.0213345   1.6959896  )
        27        O      tau(  27) = (   0.3787012   0.4162907   1.3963877  )
        28        O      tau(  28) = (   0.1188676   0.1027011   1.6814257  )
        29        O      tau(  29) = (   0.1300685   0.6487944   1.6816090  )
        30        O      tau(  30) = (   0.4072339   0.4864053   1.6996410  )
        31        O      tau(  31) = (   0.1485429   0.0392695   1.3797960  )
        32        O      tau(  32) = (   0.3748507   0.9597227   1.3916350  )
        33        P      tau(  33) = (   0.7067859   0.9648092   1.3807737  )
        34        P      tau(  34) = (   0.9661010   0.6467709   1.6983707  )
        35        P      tau(  35) = (   0.7853041   0.0968538   1.6915256  )
        36        P      tau(  36) = (   0.5415999   0.4266598   1.3859227  )
        37        O      tau(  37) = (   0.6313507   0.8926442   1.5144945  )
        38        O      tau(  38) = (   0.8870659   0.7007313   1.5564639  )
        39        O      tau(  39) = (   0.8612862   0.1599492   1.5488139  )
        40        O      tau(  40) = (   0.6193244   0.3584745   1.5208942  )
        41        O      tau(  41) = (   0.6484478   0.8775121   1.2540428  )
        42        O      tau(  42) = (   0.9103151   0.7438835   1.8141780  )
        43        O      tau(  43) = (   0.8423867   0.1959417   1.8071958  )
        44        O      tau(  44) = (   0.6011106   0.3361580   1.2625598  )
        45        O      tau(  45) = (   0.5997133   0.5808070   1.3850906  )
        46        O      tau(  46) = (   0.8494289   1.0258964   1.6899651  )
        47        O      tau(  47) = (   0.8775213   0.4170975   1.3970294  )
        48        O      tau(  48) = (   0.6220353   0.1048302   1.6800061  )
        49        O      tau(  49) = (   0.6273408   0.6440149   1.6877536  )
        50        O      tau(  50) = (   0.9121546   0.4889331   1.7040726  )
        51        O      tau(  51) = (   0.6454907   0.0374457   1.3840800  )
        52        O      tau(  52) = (   0.8701405   0.9588967   1.3902436  )
        53        Ni     tau(  53) = (   0.2420320   0.8169913   1.0699082  )
        54        Ni     tau(  54) = (   0.4893084   0.7542727   0.7477128  )
        55        Mn     tau(  55) = (   0.0085152   0.2729728   1.0755565  )
        56        Ni     tau(  56) = (   0.2558246   0.2079345   0.7498450  )
        57        Ni     tau(  57) = (   0.9991959   1.0516583   0.9080455  )
        58        Ni     tau(  58) = (   0.2490231   0.5149840   0.9092594  )
        59        Ni     tau(  59) = (   0.7373131   0.8159965   1.0690453  )
        60        Mn     tau(  60) = (   0.9859093   0.7511625   0.7423903  )
        61        Mn     tau(  61) = (   0.5085552   0.2755447   1.0757185  )
        62        Ni     tau(  62) = (   0.7532989   0.2074622   0.7493279  )
        63        Ni     tau(  63) = (   0.4981517   1.0523018   0.9093468  )
        64        Ni     tau(  64) = (   0.7469109   0.5147379   0.9081681  )
        65        P      tau(  65) = (   0.2119924   0.9497675   0.7533413  )
        66        P      tau(  66) = (   0.4579509   0.6252695   1.0650744  )
        67        P      tau(  67) = (   0.2855349   0.0724244   1.0650326  )
        68        P      tau(  68) = (   0.0381112   0.4032615   0.7561117  )
        69        O      tau(  69) = (   0.1352995   0.8818598   0.8892857  )
        70        O      tau(  70) = (   0.3789570   0.6924463   0.9291468  )
        71        O      tau(  71) = (   0.3610496   0.1419327   0.9291660  )
        72        O      tau(  72) = (   0.1179700   0.3356534   0.8894858  )
        73        O      tau(  73) = (   0.1524325   0.8608343   0.6290918  )
        74        O      tau(  74) = (   0.3994952   0.7128748   1.1905493  )
        75        O      tau(  75) = (   0.3426976   0.1634744   1.1889742  )
        76        O      tau(  76) = (   0.0989151   0.3155758   0.6321220  )
        77        O      tau(  77) = (   0.0942206   0.5581494   0.7569623  )
        78        O      tau(  78) = (   0.3506297   1.0014456   1.0645371  )
        79        O      tau(  79) = (   0.3750155   0.3983181   0.7655049  )
        80        O      tau(  80) = (   0.1228303   0.0764842   1.0543924  )
        81        O      tau(  81) = (   0.1204299   0.6293201   1.0530905  )
        82        O      tau(  82) = (   0.4000664   0.4708612   1.0626359  )
        83        O      tau(  83) = (   0.1483182   0.0216333   0.7546099  )
        84        O      tau(  84) = (   0.3748687   0.9435072   0.7627918  )
        85        P      tau(  85) = (   0.7056901   0.9492898   0.7521526  )
        86        P      tau(  86) = (   0.9575286   0.6220438   1.0623609  )
        87        P      tau(  87) = (   0.7847866   0.0710549   1.0641979  )
        88        P      tau(  88) = (   0.5377283   0.4083400   0.7551622  )
        89        O      tau(  89) = (   0.6295714   0.8788409   0.8879407  )
        90        O      tau(  90) = (   0.8781778   0.6902700   0.9288966  )
        91        O      tau(  91) = (   0.8603186   0.1398018   0.9279591  )
        92        O      tau(  92) = (   0.6174712   0.3389159   0.8881839  )
        93        O      tau(  93) = (   0.6471291   0.8583376   0.6285166  )
        94        O      tau(  94) = (   0.8962302   0.7094244   1.1861651  )
        95        O      tau(  95) = (   0.8420493   0.1616933   1.1885419  )
        96        O      tau(  96) = (   0.5995227   0.3203391   0.6315608  )
        97        O      tau(  97) = (   0.5932354   0.5636910   0.7569738  )
        98        O      tau(  98) = (   0.8487155   0.9994995   1.0634446  )
        99        O      tau(  99) = (   0.8751772   0.3959680   0.7655094  )
       100        O      tau( 100) = (   0.6223291   0.0767949   1.0539182  )
       101        O      tau( 101) = (   0.6209785   0.6292365   1.0537708  )
       102        O      tau( 102) = (   0.9010178   0.4674118   1.0608723  )
       103        O      tau( 103) = (   0.6430869   0.0213354   0.7538098  )
       104        O      tau( 104) = (   0.8684566   0.9446034   0.7630440  )
       105        Ni     tau( 105) = (   0.2392451   0.7980692   0.4424501  )
       106        Ni     tau( 106) = (   0.4865215   0.7353506   0.1202547  )
       107        Mn     tau( 107) = (   0.0057284   0.2540508   0.4480984  )
       108        Ni     tau( 108) = (   0.2530377   0.1890124   0.1223869  )
       109        Ni     tau( 109) = (   0.9964090   1.0327362   0.2805874  )
       110        Ni     tau( 110) = (   0.2462362   0.4960619   0.2818013  )
       111        Ni     tau( 111) = (   0.7345262   0.7970744   0.4415872  )
       112        Mn     tau( 112) = (   0.9831224   0.7322404   0.1149322  )
       113        Mn     tau( 113) = (   0.5057684   0.2566226   0.4482604  )
       114        Ni     tau( 114) = (   0.7505120   0.1885401   0.1218698  )
       115        Ni     tau( 115) = (   0.4953648   1.0333797   0.2818887  )
       116        Ni     tau( 116) = (   0.7441241   0.4958159   0.2807100  )
       117        P      tau( 117) = (   0.2092055   0.9308455   0.1258832  )
       118        P      tau( 118) = (   0.4551640   0.6063475   0.4376163  )
       119        P      tau( 119) = (   0.2827481   0.0535023   0.4375745  )
       120        P      tau( 120) = (   0.0353243   0.3843395   0.1286536  )
       121        O      tau( 121) = (   0.1325127   0.8629378   0.2618276  )
       122        O      tau( 122) = (   0.3761702   0.6735242   0.3016887  )
       123        O      tau( 123) = (   0.3582627   0.1230106   0.3017079  )
       124        O      tau( 124) = (   0.1151831   0.3167313   0.2620277  )
       125        O      tau( 125) = (   0.1496456   0.8419122   0.0016337  )
       126        O      tau( 126) = (   0.3967083   0.6939527   0.5630912  )
       127        O      tau( 127) = (   0.3399107   0.1445523   0.5615161  )
       128        O      tau( 128) = (   0.0961282   0.2966537   0.0046639  )
       129        O      tau( 129) = (   0.0914337   0.5392273   0.1295042  )
       130        O      tau( 130) = (   0.3478428   0.9825235   0.4370790  )
       131        O      tau( 131) = (   0.3722287   0.3793961   0.1380469  )
       132        O      tau( 132) = (   0.1200434   0.0575621   0.4269343  )
       133        O      tau( 133) = (   0.1176431   0.6103980   0.4256324  )
       134        O      tau( 134) = (   0.3972796   0.4519391   0.4351778  )
       135        O      tau( 135) = (   0.1455313   0.0027113   0.1271518  )
       136        O      tau( 136) = (   0.3720819   0.9245852   0.1353338  )
       137        P      tau( 137) = (   0.7029032   0.9303678   0.1246945  )
       138        P      tau( 138) = (   0.9547417   0.6031217   0.4349028  )
       139        P      tau( 139) = (   0.7819997   0.0521328   0.4367398  )
       140        P      tau( 140) = (   0.5349415   0.3894179   0.1277041  )
       141        O      tau( 141) = (   0.6267846   0.8599188   0.2604826  )
       142        O      tau( 142) = (   0.8753909   0.6713480   0.3014385  )
       143        O      tau( 143) = (   0.8575317   0.1208797   0.3005010  )
       144        O      tau( 144) = (   0.6146843   0.3199938   0.2607258  )
       145        O      tau( 145) = (   0.6443422   0.8394155   0.0010585  )
       146        O      tau( 146) = (   0.8934434   0.6905023   0.5587070  )
       147        O      tau( 147) = (   0.8392624   0.1427713   0.5610838  )
       148        O      tau( 148) = (   0.5967359   0.3014171   0.0041027  )
       149        O      tau( 149) = (   0.5904485   0.5447689   0.1295157  )
       150        O      tau( 150) = (   0.8459286   0.9805774   0.4359865  )
       151        O      tau( 151) = (   0.8723903   0.3770459   0.1380513  )
       152        O      tau( 152) = (   0.6195422   0.0578729   0.4264602  )
       153        O      tau( 153) = (   0.6181917   0.6103144   0.4263127  )
       154        O      tau( 154) = (   0.8982309   0.4484897   0.4334142  )
       155        O      tau( 155) = (   0.6403000   0.0024133   0.1263517  )
       156        O      tau( 156) = (   0.8656697   0.9256814   0.1355859  )
       157        O      tau( 157) = (   0.6275452   0.9241438   1.8429931  )
       158        H      tau( 158) = (   0.5438826   0.8656536   1.8653473  )

     -------------------------------------------------
     Parameters for Dispersion (Grimme-D2) Correction:
     -------------------------------------------------
       atom      VdW radius       C_6     

        Ni         2.952        374.666
        Mn         2.952        374.666
        P          3.222        271.980
        O          2.536         24.284
        H          1.892          4.857

     number of k points=     1  Gaussian smearing, width (Ry)=  0.0100
                       cart. coord. in units 2pi/alat
        k(    1) = (   0.0000000   0.0000000   0.0000000), wk =   1.0000000

     Dense  grid:  1979026 G-vectors     FFT dimensions: ( 128, 144, 450)

     Smooth grid:   500628 G-vectors     FFT dimensions: (  81,  90, 288)

     Estimated max dynamical RAM per process >     333.40 MB

     Estimated total dynamical RAM >      20.84 GB

     Check: negative core charge=   -0.000002
     Generating pointlists ...
     new r_m :   0.0793 (alat units)  1.4151 (a.u.) for type    1
     new r_m :   0.0884 (alat units)  1.5781 (a.u.) for type    2
     new r_m :   0.0665 (alat units)  1.1864 (a.u.) for type    3
     new r_m :   0.0431 (alat units)  0.7696 (a.u.) for type    4
     new r_m :   0.0431 (alat units)  0.7696 (a.u.) for type    5

     Initial potential from superposition of free atoms

     starting charge    1107.8886, renormalised to    1108.0000

     negative rho (up, down):  1.521E-03 4.678E-04
 
     Adding external electric field

     Computed dipole along edir(3) : 
        Dipole                1.6278 Ry au,          4.1375 Debye
        Dipole field          0.0010 Ry au, 
 
        Potential amp.       -0.1068 Ry
        Total length         54.7057 bohr
 
 
     Adding external electric field

     Computed dipole along edir(3) : 
        Dipole                1.6278 Ry au,          4.1375 Debye
        Dipole field          0.0010 Ry au, 
 
        Potential amp.       -0.1068 Ry
        Total length         54.7057 bohr
 
     Starting wfcs are  818 randomized atomic wfcs

     total cpu time spent up to now is       14.5 secs

     Self-consistent Calculation

     iteration #  1     ecut=    50.00 Ry     beta= 0.10
     Davidson diagonalization with overlap
     ethr =  1.00E-02,  avg # of iterations =  5.5

     negative rho (up, down):  4.503E-01 5.553E-07
 
     Adding external electric field

     Computed dipole along edir(3) : 
        Dipole               -3.3150 Ry au,         -8.4259 Debye
        Dipole field         -0.0020 Ry au, 
 
        Potential amp.        0.2174 Ry
        Total length         54.7057 bohr
 
 
     Adding external electric field

     Computed dipole along edir(3) : 
        Dipole               -3.3150 Ry au,         -8.4259 Debye
        Dipole field         -0.0020 Ry au, 
 
        Potential amp.        0.2174 Ry
        Total length         54.7057 bohr
 

     total cpu time spent up to now is       49.8 secs

     total energy              =   -7859.43651980 Ry
     estimated scf accuracy    <     730.28040340 Ry

     total magnetization       =   222.00 Bohr mag/cell
     absolute magnetization    =   319.61 Bohr mag/cell

     iteration #  2     ecut=    50.00 Ry     beta= 0.10
     Davidson diagonalization with overlap
     ethr =  1.00E-02,  avg # of iterations =  2.0

     negative rho (up, down):  4.107E-01 3.375E-07
 
     Adding external electric field

     Computed dipole along edir(3) : 
        Dipole               -2.4951 Ry au,         -6.3418 Debye
        Dipole field         -0.0015 Ry au, 
 
        Potential amp.        0.1636 Ry
        Total length         54.7057 bohr
 
 
     Adding external electric field

     Computed dipole along edir(3) : 
        Dipole               -2.4951 Ry au,         -6.3418 Debye
        Dipole field         -0.0015 Ry au, 
 
        Potential amp.        0.1636 Ry
        Total length         54.7057 bohr
 

     total cpu time spent up to now is       72.1 secs

     total energy              =   -7942.46213971 Ry
     estimated scf accuracy    <     155.09322377 Ry

     total magnetization       =   160.31 Bohr mag/cell
     absolute magnetization    =   209.32 Bohr mag/cell

     iteration #  3     ecut=    50.00 Ry     beta= 0.10
     Davidson diagonalization with overlap
     ethr =  1.00E-02,  avg # of iterations =  1.0

     negative rho (up, down):  3.567E-01 2.448E-07
 
     Adding external electric field

     Computed dipole along edir(3) : 
        Dipole               -2.0317 Ry au,         -5.1640 Debye
        Dipole field         -0.0012 Ry au, 
 
        Potential amp.        0.1333 Ry
        Total length         54.7057 bohr
 
 
     Adding external electric field

     Computed dipole along edir(3) : 
        Dipole               -2.0317 Ry au,         -5.1640 Debye
        Dipole field         -0.0012 Ry au, 
 
        Potential amp.        0.1333 Ry
        Total length         54.7057 bohr
 

     total cpu time spent up to now is       88.5 secs

     total energy              =   -7975.95129679 Ry
     estimated scf accuracy    <     102.97525513 Ry

     total magnetization       =   139.26 Bohr mag/cell
     absolute magnetization    =   189.52 Bohr mag/cell

     iteration #  4     ecut=    50.00 Ry     beta= 0.10
     Davidson diagonalization with overlap
     ethr =  9.29E-03,  avg # of iterations =  1.0

     negative rho (up, down):  2.864E-01 3.155E-08
 
     Adding external electric field

     Computed dipole along edir(3) : 
        Dipole               -2.1070 Ry au,         -5.3555 Debye
        Dipole field         -0.0013 Ry au, 
 
        Potential amp.        0.1382 Ry
        Total length         54.7057 bohr
 
 
     Adding external electric field

     Computed dipole along edir(3) : 
        Dipole               -2.1070 Ry au,         -5.3555 Debye
        Dipole field         -0.0013 Ry au, 
 
        Potential amp.        0.1382 Ry
        Total length         54.7057 bohr
 

     total cpu time spent up to now is      104.6 secs

     total energy              =   -8003.81889165 Ry
     estimated scf accuracy    <      82.03043408 Ry

     total magnetization       =   121.52 Bohr mag/cell
     absolute magnetization    =   174.37 Bohr mag/cell

     iteration #  5     ecut=    50.00 Ry     beta= 0.10
     Davidson diagonalization with overlap
     ethr =  7.40E-03,  avg # of iterations =  1.0

     negative rho (up, down):  2.821E-02 0.000E+00
 
     Adding external electric field

     Computed dipole along edir(3) : 
        Dipole               -1.5499 Ry au,         -3.9394 Debye
        Dipole field         -0.0009 Ry au, 
 
        Potential amp.        0.1017 Ry
        Total length         54.7057 bohr
 
 
     Adding external electric field

     Computed dipole along edir(3) : 
        Dipole               -1.5499 Ry au,         -3.9394 Debye
        Dipole field         -0.0009 Ry au, 
 
        Potential amp.        0.1017 Ry
        Total length         54.7057 bohr
 

     total cpu time spent up to now is      120.4 secs

     total energy              =   -8064.61748867 Ry
     estimated scf accuracy    <      67.07844739 Ry

     total magnetization       =   106.09 Bohr mag/cell
     absolute magnetization    =   159.20 Bohr mag/cell

     iteration #  6     ecut=    50.00 Ry     beta= 0.10
     Davidson diagonalization with overlap
     ethr =  6.05E-03,  avg # of iterations =  1.0

     negative rho (up, down):  1.202E-04 2.546E-04
 
     Adding external electric field

     Computed dipole along edir(3) : 
        Dipole               -1.0835 Ry au,         -2.7539 Debye
        Dipole field         -0.0006 Ry au, 
 
        Potential amp.        0.0711 Ry
        Total length         54.7057 bohr
 
 
     Adding external electric field

     Computed dipole along edir(3) : 
        Dipole               -1.0835 Ry au,         -2.7539 Debye
        Dipole field         -0.0006 Ry au, 
 
        Potential amp.        0.0711 Ry
        Total length         54.7057 bohr
 

     total cpu time spent up to now is      137.1 secs

     total energy              =   -8076.38194838 Ry
     estimated scf accuracy    <      14.32633593 Ry

     total magnetization       =   100.00 Bohr mag/cell
     absolute magnetization    =   131.46 Bohr mag/cell

     iteration #  7     ecut=    50.00 Ry     beta= 0.10
     Davidson diagonalization with overlap
     ethr =  1.29E-03,  avg # of iterations =  6.0

     negative rho (up, down):  1.201E-04 2.572E-04
 
     Adding external electric field

     Computed dipole along edir(3) : 
        Dipole               -1.0843 Ry au,         -2.7560 Debye
        Dipole field         -0.0006 Ry au, 
 
        Potential amp.        0.0711 Ry
        Total length         54.7057 bohr
 
 
     Adding external electric field

     Computed dipole along edir(3) : 
        Dipole               -1.0843 Ry au,         -2.7560 Debye
        Dipole field         -0.0006 Ry au, 
 
        Potential amp.        0.0711 Ry
        Total length         54.7057 bohr
 

     total cpu time spent up to now is      164.9 secs

     total energy              =   -8078.84556358 Ry
     estimated scf accuracy    <      33.35296696 Ry

     total magnetization       =    69.90 Bohr mag/cell
     absolute magnetization    =    87.69 Bohr mag/cell

     iteration #  8     ecut=    50.00 Ry     beta= 0.10
     Davidson diagonalization with overlap
     ethr =  1.29E-03,  avg # of iterations =  1.0

     negative rho (up, down):  1.228E-04 2.935E-04
 
     Adding external electric field

     Computed dipole along edir(3) : 
        Dipole               -1.0638 Ry au,         -2.7039 Debye
        Dipole field         -0.0006 Ry au, 
 
        Potential amp.        0.0698 Ry
        Total length         54.7057 bohr
 
 
     Adding external electric field

     Computed dipole along edir(3) : 
        Dipole               -1.0638 Ry au,         -2.7039 Debye
        Dipole field         -0.0006 Ry au, 
 
        Potential amp.        0.0698 Ry
        Total length         54.7057 bohr
 

     total cpu time spent up to now is      180.4 secs

     total energy              =   -8079.01415065 Ry
     estimated scf accuracy    <      33.30031147 Ry

     total magnetization       =    69.91 Bohr mag/cell
     absolute magnetization    =    87.29 Bohr mag/cell

     iteration #  9     ecut=    50.00 Ry     beta= 0.10
     Davidson diagonalization with overlap
     ethr =  1.29E-03,  avg # of iterations =  1.0

     negative rho (up, down):  1.259E-04 3.306E-04
 
     Adding external electric field

     Computed dipole along edir(3) : 
        Dipole               -1.0733 Ry au,         -2.7279 Debye
        Dipole field         -0.0006 Ry au, 
 
        Potential amp.        0.0704 Ry
        Total length         54.7057 bohr
 
 
     Adding external electric field

     Computed dipole along edir(3) : 
        Dipole               -1.0733 Ry au,         -2.7279 Debye
        Dipole field         -0.0006 Ry au, 
 
        Potential amp.        0.0704 Ry
        Total length         54.7057 bohr
 

     total cpu time spent up to now is      197.1 secs

     total energy              =   -8078.91022542 Ry
     estimated scf accuracy    <      34.70168558 Ry

     total magnetization       =    69.35 Bohr mag/cell
     absolute magnetization    =    86.44 Bohr mag/cell

     iteration # 10     ecut=    50.00 Ry     beta= 0.10
     Davidson diagonalization with overlap
     ethr =  1.29E-03,  avg # of iterations =  1.0

     negative rho (up, down):  2.755E-02 3.220E-02
 
     Adding external electric field

     Computed dipole along edir(3) : 
        Dipole               -1.1353 Ry au,         -2.8858 Debye
        Dipole field         -0.0007 Ry au, 
 
        Potential amp.        0.0745 Ry
        Total length         54.7057 bohr
 
 
     Adding external electric field

     Computed dipole along edir(3) : 
        Dipole               -1.1353 Ry au,         -2.8858 Debye
        Dipole field         -0.0007 Ry au, 
 
        Potential amp.        0.0745 Ry
        Total length         54.7057 bohr
 

     total cpu time spent up to now is      212.8 secs

     total energy              =   -8077.99757135 Ry
     estimated scf accuracy    <      32.31171124 Ry

     total magnetization       =    69.87 Bohr mag/cell
     absolute magnetization    =    86.36 Bohr mag/cell

     iteration # 11     ecut=    50.00 Ry     beta= 0.10
     Davidson diagonalization with overlap
     ethr =  1.29E-03,  avg # of iterations =  1.0

     negative rho (up, down):  6.721E-02 7.680E-02
 
     Adding external electric field

     Computed dipole along edir(3) : 
        Dipole               -1.1636 Ry au,         -2.9577 Debye
        Dipole field         -0.0007 Ry au, 
 
        Potential amp.        0.0763 Ry
        Total length         54.7057 bohr
 
 
     Adding external electric field

     Computed dipole along edir(3) : 
        Dipole               -1.1636 Ry au,         -2.9577 Debye
        Dipole field         -0.0007 Ry au, 
 
        Potential amp.        0.0763 Ry
        Total length         54.7057 bohr
 

     total cpu time spent up to now is      228.0 secs

     total energy              =   -8078.12228385 Ry
     estimated scf accuracy    <       9.98891800 Ry

     total magnetization       =    84.17 Bohr mag/cell
     absolute magnetization    =    96.28 Bohr mag/cell

     iteration # 12     ecut=    50.00 Ry     beta= 0.10
     Davidson diagonalization with overlap
     ethr =  9.02E-04,  avg # of iterations =  1.5

     negative rho (up, down):  7.908E-02 9.358E-02
 
     Adding external electric field

     Computed dipole along edir(3) : 
        Dipole               -1.1720 Ry au,         -2.9790 Debye
        Dipole field         -0.0007 Ry au, 
 
        Potential amp.        0.0769 Ry
        Total length         54.7057 bohr
 
 
     Adding external electric field

     Computed dipole along edir(3) : 
        Dipole               -1.1720 Ry au,         -2.9790 Debye
        Dipole field         -0.0007 Ry au, 
 
        Potential amp.        0.0769 Ry
        Total length         54.7057 bohr
 

     total cpu time spent up to now is      244.6 secs

     total energy              =   -8078.21663296 Ry
     estimated scf accuracy    <       4.52404307 Ry

     total magnetization       =    91.53 Bohr mag/cell
     absolute magnetization    =   100.81 Bohr mag/cell

     iteration # 13     ecut=    50.00 Ry     beta= 0.10
     Davidson diagonalization with overlap
     ethr =  4.08E-04,  avg # of iterations =  1.5

     negative rho (up, down):  8.681E-02 1.041E-01
 
     Adding external electric field

     Computed dipole along edir(3) : 
        Dipole               -1.2281 Ry au,         -3.1215 Debye
        Dipole field         -0.0007 Ry au, 
 
        Potential amp.        0.0805 Ry
        Total length         54.7057 bohr
 
 
     Adding external electric field

     Computed dipole along edir(3) : 
        Dipole               -1.2281 Ry au,         -3.1215 Debye
        Dipole field         -0.0007 Ry au, 
 
        Potential amp.        0.0805 Ry
        Total length         54.7057 bohr
 

     total cpu time spent up to now is      260.7 secs

     total energy              =   -8078.21767905 Ry
     estimated scf accuracy    <       3.16659558 Ry

     total magnetization       =    92.46 Bohr mag/cell
     absolute magnetization    =   100.86 Bohr mag/cell

     iteration # 14     ecut=    50.00 Ry     beta= 0.10
     Davidson diagonalization with overlap
     ethr =  2.86E-04,  avg # of iterations =  1.5

     negative rho (up, down):  8.928E-02 1.062E-01
 
     Adding external electric field

     Computed dipole along edir(3) : 
        Dipole               -1.2935 Ry au,         -3.2878 Debye
        Dipole field         -0.0008 Ry au, 
 
        Potential amp.        0.0848 Ry
        Total length         54.7057 bohr
 
 
     Adding external electric field

     Computed dipole along edir(3) : 
        Dipole               -1.2935 Ry au,         -3.2878 Debye
        Dipole field         -0.0008 Ry au, 
 
        Potential amp.        0.0848 Ry
        Total length         54.7057 bohr
 

     total cpu time spent up to now is      277.2 secs

     total energy              =   -8078.29544499 Ry
     estimated scf accuracy    <       1.92977032 Ry

     total magnetization       =    93.85 Bohr mag/cell
     absolute magnetization    =   101.23 Bohr mag/cell

     iteration # 15     ecut=    50.00 Ry     beta= 0.10
     Davidson diagonalization with overlap
     ethr =  1.74E-04,  avg # of iterations =  2.0

     negative rho (up, down):  8.176E-02 9.996E-02
 
     Adding external electric field

     Computed dipole along edir(3) : 
        Dipole               -1.2467 Ry au,         -3.1688 Debye
        Dipole field         -0.0007 Ry au, 
 
        Potential amp.        0.0818 Ry
        Total length         54.7057 bohr
 
 
     Adding external electric field

     Computed dipole along edir(3) : 
        Dipole               -1.2467 Ry au,         -3.1688 Debye
        Dipole field         -0.0007 Ry au, 
 
        Potential amp.        0.0818 Ry
        Total length         54.7057 bohr
 

     total cpu time spent up to now is      294.1 secs

     total energy              =   -8078.33256559 Ry
     estimated scf accuracy    <       1.10342871 Ry

     total magnetization       =    98.03 Bohr mag/cell
     absolute magnetization    =   103.93 Bohr mag/cell

     iteration # 16     ecut=    50.00 Ry     beta= 0.10
     Davidson diagonalization with overlap
     c_bands:  3 eigenvalues not converged
     ethr =  9.96E-05,  avg # of iterations = 10.5

     negative rho (up, down):  3.520E-02 4.790E-02
 
     Adding external electric field

     Computed dipole along edir(3) : 
        Dipole               -1.0909 Ry au,         -2.7729 Debye
        Dipole field         -0.0007 Ry au, 
 
        Potential amp.        0.0716 Ry
        Total length         54.7057 bohr
 
 
     Adding external electric field

     Computed dipole along edir(3) : 
        Dipole               -1.0909 Ry au,         -2.7729 Debye
        Dipole field         -0.0007 Ry au, 
 
        Potential amp.        0.0716 Ry
        Total length         54.7057 bohr
 

     total cpu time spent up to now is      317.3 secs

     total energy              =   -8078.31214106 Ry
     estimated scf accuracy    <       0.92334758 Ry

     total magnetization       =    97.43 Bohr mag/cell
     absolute magnetization    =   102.87 Bohr mag/cell

     iteration # 17     ecut=    50.00 Ry     beta= 0.10
     Davidson diagonalization with overlap
     ethr =  8.33E-05,  avg # of iterations =  1.5

     negative rho (up, down):  1.871E-02 2.484E-02
 
     Adding external electric field

     Computed dipole along edir(3) : 
        Dipole               -1.0283 Ry au,         -2.6137 Debye
        Dipole field         -0.0006 Ry au, 
 
        Potential amp.        0.0674 Ry
        Total length         54.7057 bohr
 
 
     Adding external electric field

     Computed dipole along edir(3) : 
        Dipole               -1.0283 Ry au,         -2.6137 Debye
        Dipole field         -0.0006 Ry au, 
 
        Potential amp.        0.0674 Ry
        Total length         54.7057 bohr
 

     total cpu time spent up to now is      332.6 secs

     total energy              =   -8078.41365951 Ry
     estimated scf accuracy    <       0.87211344 Ry

     total magnetization       =    93.99 Bohr mag/cell
     absolute magnetization    =    99.08 Bohr mag/cell

     iteration # 18     ecut=    50.00 Ry     beta= 0.10
     Davidson diagonalization with overlap
     ethr =  7.87E-05,  avg # of iterations =  1.0

     negative rho (up, down):  9.434E-03 1.039E-02
 
     Adding external electric field

     Computed dipole along edir(3) : 
        Dipole               -0.9940 Ry au,         -2.5266 Debye
        Dipole field         -0.0006 Ry au, 
 
        Potential amp.        0.0652 Ry
        Total length         54.7057 bohr
 
 
     Adding external electric field

     Computed dipole along edir(3) : 
        Dipole               -0.9940 Ry au,         -2.5266 Debye
        Dipole field         -0.0006 Ry au, 
 
        Potential amp.        0.0652 Ry
        Total length         54.7057 bohr
 

     total cpu time spent up to now is      347.4 secs

     total energy              =   -8078.45409025 Ry
     estimated scf accuracy    <       0.56040250 Ry

     total magnetization       =    95.29 Bohr mag/cell
     absolute magnetization    =    99.81 Bohr mag/cell

     iteration # 19     ecut=    50.00 Ry     beta= 0.10
     Davidson diagonalization with overlap
     ethr =  5.06E-05,  avg # of iterations =  1.5

     negative rho (up, down):  2.299E-03 2.040E-03
 
     Adding external electric field

     Computed dipole along edir(3) : 
        Dipole               -0.9403 Ry au,         -2.3901 Debye
        Dipole field         -0.0006 Ry au, 
 
        Potential amp.        0.0617 Ry
        Total length         54.7057 bohr
 
 
     Adding external electric field

     Computed dipole along edir(3) : 
        Dipole               -0.9403 Ry au,         -2.3901 Debye
        Dipole field         -0.0006 Ry au, 
 
        Potential amp.        0.0617 Ry
        Total length         54.7057 bohr
 

     total cpu time spent up to now is      364.6 secs

     total energy              =   -8078.46557994 Ry
     estimated scf accuracy    <       0.39935373 Ry

     total magnetization       =    96.75 Bohr mag/cell
     absolute magnetization    =   101.16 Bohr mag/cell

     iteration # 20     ecut=    50.00 Ry     beta= 0.10
     Davidson diagonalization with overlap
     ethr =  3.60E-05,  avg # of iterations =  2.0

     negative rho (up, down):  8.625E-04 7.272E-04
 
     Adding external electric field

     Computed dipole along edir(3) : 
        Dipole               -0.8847 Ry au,         -2.2488 Debye
        Dipole field         -0.0005 Ry au, 
 
        Potential amp.        0.0580 Ry
        Total length         54.7057 bohr
 
 
     Adding external electric field

     Computed dipole along edir(3) : 
        Dipole               -0.8847 Ry au,         -2.2488 Debye
        Dipole field         -0.0005 Ry au, 
 
        Potential amp.        0.0580 Ry
        Total length         54.7057 bohr
 

     total cpu time spent up to now is      383.3 secs

     total energy              =   -8078.50667598 Ry
     estimated scf accuracy    <       0.27942828 Ry

     total magnetization       =    97.17 Bohr mag/cell
     absolute magnetization    =   101.17 Bohr mag/cell

     iteration # 21     ecut=    50.00 Ry     beta= 0.10
     Davidson diagonalization with overlap
     ethr =  2.52E-05,  avg # of iterations =  2.0

     negative rho (up, down):  7.263E-08 5.552E-08
 
     Adding external electric field

     Computed dipole along edir(3) : 
        Dipole               -0.7104 Ry au,         -1.8057 Debye
        Dipole field         -0.0004 Ry au, 
 
        Potential amp.        0.0466 Ry
        Total length         54.7057 bohr
 
 
     Adding external electric field

     Computed dipole along edir(3) : 
        Dipole               -0.7104 Ry au,         -1.8057 Debye
        Dipole field         -0.0004 Ry au, 
 
        Potential amp.        0.0466 Ry
        Total length         54.7057 bohr
 

     total cpu time spent up to now is      402.0 secs

     total energy              =   -8078.54080722 Ry
     estimated scf accuracy    <       0.18245351 Ry

     total magnetization       =    97.48 Bohr mag/cell
     absolute magnetization    =   100.61 Bohr mag/cell

     iteration # 22     ecut=    50.00 Ry     beta= 0.10
     Davidson diagonalization with overlap
     c_bands:  1 eigenvalues not converged
     ethr =  1.65E-05,  avg # of iterations = 11.0

     negative rho (up, down):  1.042E-06 6.627E-07
 
     Adding external electric field

     Computed dipole along edir(3) : 
        Dipole               -0.6939 Ry au,         -1.7637 Debye
        Dipole field         -0.0004 Ry au, 
 
        Potential amp.        0.0455 Ry
        Total length         54.7057 bohr
 
 
     Adding external electric field

     Computed dipole along edir(3) : 
        Dipole               -0.6939 Ry au,         -1.7637 Debye
        Dipole field         -0.0004 Ry au, 
 
        Potential amp.        0.0455 Ry
        Total length         54.7057 bohr
 

     total cpu time spent up to now is      432.2 secs

     total energy              =   -8078.55477592 Ry
     estimated scf accuracy    <       0.16313994 Ry

     total magnetization       =    96.56 Bohr mag/cell
     absolute magnetization    =    98.41 Bohr mag/cell

     iteration # 23     ecut=    50.00 Ry     beta= 0.10
     Davidson diagonalization with overlap
     ethr =  1.47E-05,  avg # of iterations =  2.0

     negative rho (up, down):  1.168E-04 7.620E-05
 
     Adding external electric field

     Computed dipole along edir(3) : 
        Dipole               -0.5829 Ry au,         -1.4817 Debye
        Dipole field         -0.0003 Ry au, 
 
        Potential amp.        0.0382 Ry
        Total length         54.7057 bohr
 
 
     Adding external electric field

     Computed dipole along edir(3) : 
        Dipole               -0.5829 Ry au,         -1.4817 Debye
        Dipole field         -0.0003 Ry au, 
 
        Potential amp.        0.0382 Ry
        Total length         54.7057 bohr
 

     total cpu time spent up to now is      450.9 secs

     total energy              =   -8078.55545474 Ry
     estimated scf accuracy    <       0.14722641 Ry

     total magnetization       =    96.76 Bohr mag/cell
     absolute magnetization    =    98.58 Bohr mag/cell

     iteration # 24     ecut=    50.00 Ry     beta= 0.10
     Davidson diagonalization with overlap
     ethr =  1.33E-05,  avg # of iterations = 12.0

     negative rho (up, down):  4.001E-04 2.580E-04
 
     Adding external electric field

     Computed dipole along edir(3) : 
        Dipole               -0.4812 Ry au,         -1.2230 Debye
        Dipole field         -0.0003 Ry au, 
 
        Potential amp.        0.0316 Ry
        Total length         54.7057 bohr
 
 
     Adding external electric field

     Computed dipole along edir(3) : 
        Dipole               -0.4812 Ry au,         -1.2230 Debye
        Dipole field         -0.0003 Ry au, 
 
        Potential amp.        0.0316 Ry
        Total length         54.7057 bohr
 

     total cpu time spent up to now is      485.8 secs

     total energy              =   -8078.55309246 Ry
     estimated scf accuracy    <       0.08860716 Ry

     total magnetization       =    97.15 Bohr mag/cell
     absolute magnetization    =    98.63 Bohr mag/cell

     iteration # 25     ecut=    50.00 Ry     beta= 0.10
     Davidson diagonalization with overlap
     ethr =  8.00E-06,  avg # of iterations =  9.0

     negative rho (up, down):  3.443E-04 2.405E-04
 
     Adding external electric field

     Computed dipole along edir(3) : 
        Dipole               -0.5318 Ry au,         -1.3517 Debye
        Dipole field         -0.0003 Ry au, 
 
        Potential amp.        0.0349 Ry
        Total length         54.7057 bohr
 
 
     Adding external electric field

     Computed dipole along edir(3) : 
        Dipole               -0.5318 Ry au,         -1.3517 Debye
        Dipole field         -0.0003 Ry au, 
 
        Potential amp.        0.0349 Ry
        Total length         54.7057 bohr
 

     total cpu time spent up to now is      509.3 secs

     total energy              =   -8078.55632228 Ry
     estimated scf accuracy    <       0.08947556 Ry

     total magnetization       =    97.21 Bohr mag/cell
     absolute magnetization    =    98.61 Bohr mag/cell

     iteration # 26     ecut=    50.00 Ry     beta= 0.10
     Davidson diagonalization with overlap
     ethr =  8.00E-06,  avg # of iterations =  1.5

     negative rho (up, down):  2.325E-04 1.683E-04
 
     Adding external electric field

     Computed dipole along edir(3) : 
        Dipole               -0.5844 Ry au,         -1.4853 Debye
        Dipole field         -0.0004 Ry au, 
 
        Potential amp.        0.0383 Ry
        Total length         54.7057 bohr
 
 
     Adding external electric field

     Computed dipole along edir(3) : 
        Dipole               -0.5844 Ry au,         -1.4853 Debye
        Dipole field         -0.0004 Ry au, 
 
        Potential amp.        0.0383 Ry
        Total length         54.7057 bohr
 

     total cpu time spent up to now is      526.8 secs

     total energy              =   -8078.55845947 Ry
     estimated scf accuracy    <       0.07066425 Ry

     total magnetization       =    97.30 Bohr mag/cell
     absolute magnetization    =    98.67 Bohr mag/cell

     iteration # 27     ecut=    50.00 Ry     beta= 0.10
     Davidson diagonalization with overlap
     ethr =  6.38E-06,  avg # of iterations =  1.5

     negative rho (up, down):  3.996E-04 3.062E-04
 
     Adding external electric field

     Computed dipole along edir(3) : 
        Dipole               -0.5472 Ry au,         -1.3909 Debye
        Dipole field         -0.0003 Ry au, 
 
        Potential amp.        0.0359 Ry
        Total length         54.7057 bohr
 
 
     Adding external electric field

     Computed dipole along edir(3) : 
        Dipole               -0.5472 Ry au,         -1.3909 Debye
        Dipole field         -0.0003 Ry au, 
 
        Potential amp.        0.0359 Ry
        Total length         54.7057 bohr
 

     total cpu time spent up to now is      544.4 secs

     total energy              =   -8078.55804645 Ry
     estimated scf accuracy    <       0.06582304 Ry

     total magnetization       =    97.33 Bohr mag/cell
     absolute magnetization    =    98.68 Bohr mag/cell

     iteration # 28     ecut=    50.00 Ry     beta= 0.10
     Davidson diagonalization with overlap
     ethr =  5.94E-06,  avg # of iterations =  1.5

     negative rho (up, down):  1.665E-04 1.103E-04
 
     Adding external electric field

     Computed dipole along edir(3) : 
        Dipole               -0.6393 Ry au,         -1.6249 Debye
        Dipole field         -0.0004 Ry au, 
 
        Potential amp.        0.0419 Ry
        Total length         54.7057 bohr
 
 
     Adding external electric field

     Computed dipole along edir(3) : 
        Dipole               -0.6393 Ry au,         -1.6249 Debye
        Dipole field         -0.0004 Ry au, 
 
        Potential amp.        0.0419 Ry
        Total length         54.7057 bohr
 

     total cpu time spent up to now is      561.5 secs

     total energy              =   -8078.55842966 Ry
     estimated scf accuracy    <       0.06413310 Ry

     total magnetization       =    97.32 Bohr mag/cell
     absolute magnetization    =    98.68 Bohr mag/cell

     iteration # 29     ecut=    50.00 Ry     beta= 0.10
     Davidson diagonalization with overlap
     ethr =  5.79E-06,  avg # of iterations =  1.5

     negative rho (up, down):  4.298E-04 3.634E-04
 
     Adding external electric field

     Computed dipole along edir(3) : 
        Dipole               -0.4351 Ry au,         -1.1058 Debye
        Dipole field         -0.0003 Ry au, 
 
        Potential amp.        0.0285 Ry
        Total length         54.7057 bohr
 
 
     Adding external electric field

     Computed dipole along edir(3) : 
        Dipole               -0.4351 Ry au,         -1.1058 Debye
        Dipole field         -0.0003 Ry au, 
 
        Potential amp.        0.0285 Ry
        Total length         54.7057 bohr
 

     total cpu time spent up to now is      578.5 secs

     total energy              =   -8078.55803980 Ry
     estimated scf accuracy    <       0.06681915 Ry

     total magnetization       =    97.40 Bohr mag/cell
     absolute magnetization    =    98.68 Bohr mag/cell

     iteration # 30     ecut=    50.00 Ry     beta= 0.10
     Davidson diagonalization with overlap
     ethr =  5.79E-06,  avg # of iterations =  2.0

     negative rho (up, down):  1.516E-03 1.311E-03
 
     Adding external electric field

     Computed dipole along edir(3) : 
        Dipole               -0.2740 Ry au,         -0.6965 Debye
        Dipole field         -0.0002 Ry au, 
 
        Potential amp.        0.0180 Ry
        Total length         54.7057 bohr
 
 
     Adding external electric field

     Computed dipole along edir(3) : 
        Dipole               -0.2740 Ry au,         -0.6965 Debye
        Dipole field         -0.0002 Ry au, 
 
        Potential amp.        0.0180 Ry
        Total length         54.7057 bohr
 

     total cpu time spent up to now is      597.0 secs

     total energy              =   -8078.55379600 Ry
     estimated scf accuracy    <       0.06201418 Ry

     total magnetization       =    97.27 Bohr mag/cell
     absolute magnetization    =    98.60 Bohr mag/cell

     iteration # 31     ecut=    50.00 Ry     beta= 0.10
     Davidson diagonalization with overlap
     ethr =  5.60E-06,  avg # of iterations =  2.0

     negative rho (up, down):  3.526E-03 3.077E-03
 
     Adding external electric field

     Computed dipole along edir(3) : 
        Dipole               -0.0926 Ry au,         -0.2354 Debye
        Dipole field         -0.0001 Ry au, 
 
        Potential amp.        0.0061 Ry
        Total length         54.7057 bohr
 
 
     Adding external electric field

     Computed dipole along edir(3) : 
        Dipole               -0.0926 Ry au,         -0.2354 Debye
        Dipole field         -0.0001 Ry au, 
 
        Potential amp.        0.0061 Ry
        Total length         54.7057 bohr
 

     total cpu time spent up to now is      615.2 secs

     total energy              =   -8078.55086036 Ry
     estimated scf accuracy    <       0.05446344 Ry

     total magnetization       =    97.29 Bohr mag/cell
     absolute magnetization    =    98.77 Bohr mag/cell

     iteration # 32     ecut=    50.00 Ry     beta= 0.10
     Davidson diagonalization with overlap
     ethr =  4.92E-06,  avg # of iterations =  6.5

     negative rho (up, down):  7.068E-03 6.437E-03
 
     Adding external electric field

     Computed dipole along edir(3) : 
        Dipole                0.2413 Ry au,          0.6132 Debye
        Dipole field          0.0001 Ry au, 
 
        Potential amp.       -0.0158 Ry
        Total length         54.7057 bohr
 
 
     Adding external electric field

     Computed dipole along edir(3) : 
        Dipole                0.2413 Ry au,          0.6132 Debye
        Dipole field          0.0001 Ry au, 
 
        Potential amp.       -0.0158 Ry
        Total length         54.7057 bohr
 

     total cpu time spent up to now is      636.3 secs

     total energy              =   -8078.55261906 Ry
     estimated scf accuracy    <       0.03876571 Ry

     total magnetization       =    97.28 Bohr mag/cell
     absolute magnetization    =    98.83 Bohr mag/cell

     iteration # 33     ecut=    50.00 Ry     beta= 0.10
     Davidson diagonalization with overlap
     c_bands:  4 eigenvalues not converged
     c_bands:  2 eigenvalues not converged
     ethr =  3.50E-06,  avg # of iterations = 20.0

     negative rho (up, down):  4.640E-03 4.512E-03
 
     Adding external electric field

     Computed dipole along edir(3) : 
        Dipole                0.2029 Ry au,          0.5156 Debye
        Dipole field          0.0001 Ry au, 
 
        Potential amp.       -0.0133 Ry
        Total length         54.7057 bohr
 
 
     Adding external electric field

     Computed dipole along edir(3) : 
        Dipole                0.2029 Ry au,          0.5156 Debye
        Dipole field          0.0001 Ry au, 
 
        Potential amp.       -0.0133 Ry
        Total length         54.7057 bohr
 

     total cpu time spent up to now is      675.0 secs

     total energy              =   -8078.55405433 Ry
     estimated scf accuracy    <       0.01452870 Ry

     total magnetization       =    97.07 Bohr mag/cell
     absolute magnetization    =    98.41 Bohr mag/cell

     iteration # 34     ecut=    50.00 Ry     beta= 0.10
     Davidson diagonalization with overlap
     ethr =  1.31E-06,  avg # of iterations =  3.0

     negative rho (up, down):  2.801E-03 2.675E-03
 
     Adding external electric field

     Computed dipole along edir(3) : 
        Dipole                0.2701 Ry au,          0.6865 Debye
        Dipole field          0.0002 Ry au, 
 
        Potential amp.       -0.0177 Ry
        Total length         54.7057 bohr
 
 
     Adding external electric field

     Computed dipole along edir(3) : 
        Dipole                0.2701 Ry au,          0.6865 Debye
        Dipole field          0.0002 Ry au, 
 
        Potential amp.       -0.0177 Ry
        Total length         54.7057 bohr
 

     total cpu time spent up to now is      694.1 secs

     total energy              =   -8078.55445805 Ry
     estimated scf accuracy    <       0.00870175 Ry

     total magnetization       =    96.94 Bohr mag/cell
     absolute magnetization    =    98.26 Bohr mag/cell

     iteration # 35     ecut=    50.00 Ry     beta= 0.10
     Davidson diagonalization with overlap
     c_bands:  1 eigenvalues not converged
     ethr =  7.85E-07,  avg # of iterations = 11.0

     negative rho (up, down):  1.122E-03 1.091E-03
 
     Adding external electric field

     Computed dipole along edir(3) : 
        Dipole                0.2380 Ry au,          0.6049 Debye
        Dipole field          0.0001 Ry au, 
 
        Potential amp.       -0.0156 Ry
        Total length         54.7057 bohr
 
 
     Adding external electric field

     Computed dipole along edir(3) : 
        Dipole                0.2380 Ry au,          0.6049 Debye
        Dipole field          0.0001 Ry au, 
 
        Potential amp.       -0.0156 Ry
        Total length         54.7057 bohr
 

     total cpu time spent up to now is      718.4 secs

     total energy              =   -8078.55488834 Ry
     estimated scf accuracy    <       0.00468945 Ry

     total magnetization       =    96.98 Bohr mag/cell
     absolute magnetization    =    98.23 Bohr mag/cell

     iteration # 36     ecut=    50.00 Ry     beta= 0.10
     Davidson diagonalization with overlap
     ethr =  4.23E-07,  avg # of iterations =  2.0

     negative rho (up, down):  2.064E-04 1.974E-04
 
     Adding external electric field

     Computed dipole along edir(3) : 
        Dipole                0.2313 Ry au,          0.5880 Debye
        Dipole field          0.0001 Ry au, 
 
        Potential amp.       -0.0152 Ry
        Total length         54.7057 bohr
 
 
     Adding external electric field

     Computed dipole along edir(3) : 
        Dipole                0.2313 Ry au,          0.5880 Debye
        Dipole field          0.0001 Ry au, 
 
        Potential amp.       -0.0152 Ry
        Total length         54.7057 bohr
 

     total cpu time spent up to now is      737.0 secs

     total energy              =   -8078.55489945 Ry
     estimated scf accuracy    <       0.00305537 Ry

     total magnetization       =    96.99 Bohr mag/cell
     absolute magnetization    =    98.21 Bohr mag/cell

     iteration # 37     ecut=    50.00 Ry     beta= 0.10
     Davidson diagonalization with overlap
     ethr =  2.76E-07,  avg # of iterations =  3.0

     negative rho (up, down):  1.145E-04 1.348E-04
 
     Adding external electric field

     Computed dipole along edir(3) : 
        Dipole                0.2245 Ry au,          0.5707 Debye
        Dipole field          0.0001 Ry au, 
 
        Potential amp.       -0.0147 Ry
        Total length         54.7057 bohr
 
 
     Adding external electric field

     Computed dipole along edir(3) : 
        Dipole                0.2245 Ry au,          0.5707 Debye
        Dipole field          0.0001 Ry au, 
 
        Potential amp.       -0.0147 Ry
        Total length         54.7057 bohr
 

     total cpu time spent up to now is      756.1 secs

     total energy              =   -8078.55488126 Ry
     estimated scf accuracy    <       0.00203787 Ry

     total magnetization       =    97.01 Bohr mag/cell
     absolute magnetization    =    98.20 Bohr mag/cell

     iteration # 38     ecut=    50.00 Ry     beta= 0.10
     Davidson diagonalization with overlap
     ethr =  1.84E-07,  avg # of iterations =  2.0

     negative rho (up, down):  1.026E-04 1.233E-04
 
     Adding external electric field

     Computed dipole along edir(3) : 
        Dipole                0.2103 Ry au,          0.5345 Debye
        Dipole field          0.0001 Ry au, 
 
        Potential amp.       -0.0138 Ry
        Total length         54.7057 bohr
 
 
     Adding external electric field

     Computed dipole along edir(3) : 
        Dipole                0.2103 Ry au,          0.5345 Debye
        Dipole field          0.0001 Ry au, 
 
        Potential amp.       -0.0138 Ry
        Total length         54.7057 bohr
 

     total cpu time spent up to now is      774.7 secs

     total energy              =   -8078.55488781 Ry
     estimated scf accuracy    <       0.00167385 Ry

     total magnetization       =    97.01 Bohr mag/cell
     absolute magnetization    =    98.23 Bohr mag/cell

     iteration # 39     ecut=    50.00 Ry     beta= 0.10
     Davidson diagonalization with overlap
     ethr =  1.51E-07,  avg # of iterations =  2.0

     negative rho (up, down):  8.266E-05 9.224E-05
 
     Adding external electric field

     Computed dipole along edir(3) : 
        Dipole                0.2375 Ry au,          0.6037 Debye
        Dipole field          0.0001 Ry au, 
 
        Potential amp.       -0.0156 Ry
        Total length         54.7057 bohr
 
 
     Adding external electric field

     Computed dipole along edir(3) : 
        Dipole                0.2375 Ry au,          0.6037 Debye
        Dipole field          0.0001 Ry au, 
 
        Potential amp.       -0.0156 Ry
        Total length         54.7057 bohr
 

     total cpu time spent up to now is      792.9 secs

     total energy              =   -8078.55491522 Ry
     estimated scf accuracy    <       0.00150459 Ry

     total magnetization       =    97.02 Bohr mag/cell
     absolute magnetization    =    98.25 Bohr mag/cell

     iteration # 40     ecut=    50.00 Ry     beta= 0.10
     Davidson diagonalization with overlap
     ethr =  1.36E-07,  avg # of iterations =  2.0

     negative rho (up, down):  9.515E-05 9.869E-05
 
     Adding external electric field

     Computed dipole along edir(3) : 
        Dipole                0.2137 Ry au,          0.5431 Debye
        Dipole field          0.0001 Ry au, 
 
        Potential amp.       -0.0140 Ry
        Total length         54.7057 bohr
 
 
     Adding external electric field

     Computed dipole along edir(3) : 
        Dipole                0.2137 Ry au,          0.5431 Debye
        Dipole field          0.0001 Ry au, 
 
        Potential amp.       -0.0140 Ry
        Total length         54.7057 bohr
 

     total cpu time spent up to now is      811.2 secs

     total energy              =   -8078.55494329 Ry
     estimated scf accuracy    <       0.00121105 Ry

     total magnetization       =    97.04 Bohr mag/cell
     absolute magnetization    =    98.25 Bohr mag/cell

     iteration # 41     ecut=    50.00 Ry     beta= 0.10
     Davidson diagonalization with overlap
     ethr =  1.09E-07,  avg # of iterations =  2.0

     negative rho (up, down):  1.187E-04 1.177E-04
 
     Adding external electric field

     Computed dipole along edir(3) : 
        Dipole                0.2298 Ry au,          0.5841 Debye
        Dipole field          0.0001 Ry au, 
 
        Potential amp.       -0.0151 Ry
        Total length         54.7057 bohr
 
 
     Adding external electric field

     Computed dipole along edir(3) : 
        Dipole                0.2298 Ry au,          0.5841 Debye
        Dipole field          0.0001 Ry au, 
 
        Potential amp.       -0.0151 Ry
        Total length         54.7057 bohr
 

     total cpu time spent up to now is      828.9 secs

     total energy              =   -8078.55498972 Ry
     estimated scf accuracy    <       0.00102985 Ry

     total magnetization       =    97.07 Bohr mag/cell
     absolute magnetization    =    98.29 Bohr mag/cell

     iteration # 42     ecut=    50.00 Ry     beta= 0.10
     Davidson diagonalization with overlap
     ethr =  9.29E-08,  avg # of iterations =  2.0

     negative rho (up, down):  1.196E-04 1.213E-04
 
     Adding external electric field

     Computed dipole along edir(3) : 
        Dipole                0.2586 Ry au,          0.6573 Debye
        Dipole field          0.0002 Ry au, 
 
        Potential amp.       -0.0170 Ry
        Total length         54.7057 bohr
 
 
     Adding external electric field

     Computed dipole along edir(3) : 
        Dipole                0.2586 Ry au,          0.6573 Debye
        Dipole field          0.0002 Ry au, 
 
        Potential amp.       -0.0170 Ry
        Total length         54.7057 bohr
 

     total cpu time spent up to now is      847.3 secs

     total energy              =   -8078.55502448 Ry
     estimated scf accuracy    <       0.00097730 Ry

     total magnetization       =    97.07 Bohr mag/cell
     absolute magnetization    =    98.28 Bohr mag/cell

     iteration # 43     ecut=    50.00 Ry     beta= 0.10
     Davidson diagonalization with overlap
     ethr =  8.82E-08,  avg # of iterations =  2.0

     negative rho (up, down):  1.469E-04 1.641E-04
 
     Adding external electric field

     Computed dipole along edir(3) : 
        Dipole                0.2696 Ry au,          0.6854 Debye
        Dipole field          0.0002 Ry au, 
 
        Potential amp.       -0.0177 Ry
        Total length         54.7057 bohr
 
 
     Adding external electric field

     Computed dipole along edir(3) : 
        Dipole                0.2696 Ry au,          0.6854 Debye
        Dipole field          0.0002 Ry au, 
 
        Potential amp.       -0.0177 Ry
        Total length         54.7057 bohr
 

     total cpu time spent up to now is      865.5 secs

     total energy              =   -8078.55502824 Ry
     estimated scf accuracy    <       0.00082770 Ry

     total magnetization       =    97.05 Bohr mag/cell
     absolute magnetization    =    98.26 Bohr mag/cell

     iteration # 44     ecut=    50.00 Ry     beta= 0.10
     Davidson diagonalization with overlap
     ethr =  7.47E-08,  avg # of iterations =  1.5

     negative rho (up, down):  2.049E-04 2.315E-04
 
     Adding external electric field

     Computed dipole along edir(3) : 
        Dipole                0.2696 Ry au,          0.6852 Debye
        Dipole field          0.0002 Ry au, 
 
        Potential amp.       -0.0177 Ry
        Total length         54.7057 bohr
 
 
     Adding external electric field

     Computed dipole along edir(3) : 
        Dipole                0.2696 Ry au,          0.6852 Debye
        Dipole field          0.0002 Ry au, 
 
        Potential amp.       -0.0177 Ry
        Total length         54.7057 bohr
 

     total cpu time spent up to now is      882.8 secs

     total energy              =   -8078.55502815 Ry
     estimated scf accuracy    <       0.00074352 Ry

     total magnetization       =    97.05 Bohr mag/cell
     absolute magnetization    =    98.25 Bohr mag/cell

     iteration # 45     ecut=    50.00 Ry     beta= 0.10
     Davidson diagonalization with overlap
     c_bands:  1 eigenvalues not converged
     ethr =  6.71E-08,  avg # of iterations = 11.0

     negative rho (up, down):  2.574E-04 2.801E-04
 
     Adding external electric field

     Computed dipole along edir(3) : 
        Dipole                0.2861 Ry au,          0.7272 Debye
        Dipole field          0.0002 Ry au, 
 
        Potential amp.       -0.0188 Ry
        Total length         54.7057 bohr
 
 
     Adding external electric field

     Computed dipole along edir(3) : 
        Dipole                0.2861 Ry au,          0.7272 Debye
        Dipole field          0.0002 Ry au, 
 
        Potential amp.       -0.0188 Ry
        Total length         54.7057 bohr
 

     total cpu time spent up to now is      907.2 secs

     total energy              =   -8078.55505887 Ry
     estimated scf accuracy    <       0.00060906 Ry

     total magnetization       =    97.04 Bohr mag/cell
     absolute magnetization    =    98.25 Bohr mag/cell

     iteration # 46     ecut=    50.00 Ry     beta= 0.10
     Davidson diagonalization with overlap
     ethr =  5.50E-08,  avg # of iterations =  2.0

     negative rho (up, down):  7.625E-04 6.292E-04
 
     Adding external electric field

     Computed dipole along edir(3) : 
        Dipole                0.2999 Ry au,          0.7623 Debye
        Dipole field          0.0002 Ry au, 
 
        Potential amp.       -0.0197 Ry
        Total length         54.7057 bohr
 
 
     Adding external electric field

     Computed dipole along edir(3) : 
        Dipole                0.2999 Ry au,          0.7623 Debye
        Dipole field          0.0002 Ry au, 
 
        Potential amp.       -0.0197 Ry
        Total length         54.7057 bohr
 

     total cpu time spent up to now is      925.5 secs

     total energy              =   -8078.55513207 Ry
     estimated scf accuracy    <       0.00046873 Ry

     total magnetization       =    97.04 Bohr mag/cell
     absolute magnetization    =    98.24 Bohr mag/cell

     iteration # 47     ecut=    50.00 Ry     beta= 0.10
     Davidson diagonalization with overlap
     ethr =  4.23E-08,  avg # of iterations =  2.0

     negative rho (up, down):  1.370E-03 1.229E-03
 
     Adding external electric field

     Computed dipole along edir(3) : 
        Dipole                0.2949 Ry au,          0.7495 Debye
        Dipole field          0.0002 Ry au, 
 
        Potential amp.       -0.0193 Ry
        Total length         54.7057 bohr
 
 
     Adding external electric field

     Computed dipole along edir(3) : 
        Dipole                0.2949 Ry au,          0.7495 Debye
        Dipole field          0.0002 Ry au, 
 
        Potential amp.       -0.0193 Ry
        Total length         54.7057 bohr
 

     total cpu time spent up to now is      943.7 secs

     total energy              =   -8078.55515046 Ry
     estimated scf accuracy    <       0.00020196 Ry

     total magnetization       =    97.06 Bohr mag/cell
     absolute magnetization    =    98.27 Bohr mag/cell

     iteration # 48     ecut=    50.00 Ry     beta= 0.10
     Davidson diagonalization with overlap
     ethr =  1.82E-08,  avg # of iterations =  2.0

     negative rho (up, down):  1.609E-03 1.398E-03
 
     Adding external electric field

     Computed dipole along edir(3) : 
        Dipole                0.2959 Ry au,          0.7522 Debye
        Dipole field          0.0002 Ry au, 
 
        Potential amp.       -0.0194 Ry
        Total length         54.7057 bohr
 
 
     Adding external electric field

     Computed dipole along edir(3) : 
        Dipole                0.2959 Ry au,          0.7522 Debye
        Dipole field          0.0002 Ry au, 
 
        Potential amp.       -0.0194 Ry
        Total length         54.7057 bohr
 

     total cpu time spent up to now is      962.0 secs

     total energy              =   -8078.55516427 Ry
     estimated scf accuracy    <       0.00012587 Ry

     total magnetization       =    97.06 Bohr mag/cell
     absolute magnetization    =    98.28 Bohr mag/cell

     iteration # 49     ecut=    50.00 Ry     beta= 0.10
     Davidson diagonalization with overlap
     ethr =  1.14E-08,  avg # of iterations =  3.0

     negative rho (up, down):  1.527E-03 1.136E-03
 
     Adding external electric field

     Computed dipole along edir(3) : 
        Dipole                0.3035 Ry au,          0.7715 Debye
        Dipole field          0.0002 Ry au, 
 
        Potential amp.       -0.0199 Ry
        Total length         54.7057 bohr
 
 
     Adding external electric field

     Computed dipole along edir(3) : 
        Dipole                0.3035 Ry au,          0.7715 Debye
        Dipole field          0.0002 Ry au, 
 
        Potential amp.       -0.0199 Ry
        Total length         54.7057 bohr
 

     total cpu time spent up to now is      981.0 secs

     total energy              =   -8078.55518055 Ry
     estimated scf accuracy    <       0.00008536 Ry

     total magnetization       =    97.06 Bohr mag/cell
     absolute magnetization    =    98.28 Bohr mag/cell

     iteration # 50     ecut=    50.00 Ry     beta= 0.10
     Davidson diagonalization with overlap
     ethr =  7.70E-09,  avg # of iterations =  2.0

     negative rho (up, down):  1.169E-03 6.531E-04
 
     Adding external electric field

     Computed dipole along edir(3) : 
        Dipole                0.3008 Ry au,          0.7647 Debye
        Dipole field          0.0002 Ry au, 
 
        Potential amp.       -0.0197 Ry
        Total length         54.7057 bohr
 
 
     Adding external electric field

     Computed dipole along edir(3) : 
        Dipole                0.3008 Ry au,          0.7647 Debye
        Dipole field          0.0002 Ry au, 
 
        Potential amp.       -0.0197 Ry
        Total length         54.7057 bohr
 

     total cpu time spent up to now is      999.0 secs

     total energy              =   -8078.55518497 Ry
     estimated scf accuracy    <       0.00003433 Ry

     total magnetization       =    97.05 Bohr mag/cell
     absolute magnetization    =    98.27 Bohr mag/cell

     iteration # 51     ecut=    50.00 Ry     beta= 0.10
     Davidson diagonalization with overlap
     ethr =  3.10E-09,  avg # of iterations =  5.5

     negative rho (up, down):  1.004E-03 4.789E-04
 
     Adding external electric field

     Computed dipole along edir(3) : 
        Dipole                0.2975 Ry au,          0.7563 Debye
        Dipole field          0.0002 Ry au, 
 
        Potential amp.       -0.0195 Ry
        Total length         54.7057 bohr
 
 
     Adding external electric field

     Computed dipole along edir(3) : 
        Dipole                0.2975 Ry au,          0.7563 Debye
        Dipole field          0.0002 Ry au, 
 
        Potential amp.       -0.0195 Ry
        Total length         54.7057 bohr
 

     total cpu time spent up to now is     1019.9 secs

     total energy              =   -8078.55518514 Ry
     estimated scf accuracy    <       0.00002086 Ry

     total magnetization       =    97.06 Bohr mag/cell
     absolute magnetization    =    98.27 Bohr mag/cell

     iteration # 52     ecut=    50.00 Ry     beta= 0.10
     Davidson diagonalization with overlap
     ethr =  1.88E-09,  avg # of iterations =  2.0

     negative rho (up, down):  1.149E-03 6.132E-04
 
     Adding external electric field

     Computed dipole along edir(3) : 
        Dipole                0.3011 Ry au,          0.7654 Debye
        Dipole field          0.0002 Ry au, 
 
        Potential amp.       -0.0198 Ry
        Total length         54.7057 bohr
 
 
     Adding external electric field

     Computed dipole along edir(3) : 
        Dipole                0.3011 Ry au,          0.7654 Debye
        Dipole field          0.0002 Ry au, 
 
        Potential amp.       -0.0198 Ry
        Total length         54.7057 bohr
 

     total cpu time spent up to now is     1038.2 secs

     total energy              =   -8078.55518714 Ry
     estimated scf accuracy    <       0.00001571 Ry

     total magnetization       =    97.06 Bohr mag/cell
     absolute magnetization    =    98.27 Bohr mag/cell

     iteration # 53     ecut=    50.00 Ry     beta= 0.10
     Davidson diagonalization with overlap
     ethr =  1.42E-09,  avg # of iterations =  2.0

     negative rho (up, down):  1.159E-03 6.206E-04
 
     Adding external electric field

     Computed dipole along edir(3) : 
        Dipole                0.3005 Ry au,          0.7638 Debye
        Dipole field          0.0002 Ry au, 
 
        Potential amp.       -0.0197 Ry
        Total length         54.7057 bohr
 
 
     Adding external electric field

     Computed dipole along edir(3) : 
        Dipole                0.3005 Ry au,          0.7638 Debye
        Dipole field          0.0002 Ry au, 
 
        Potential amp.       -0.0197 Ry
        Total length         54.7057 bohr
 

     total cpu time spent up to now is     1056.5 secs

     total energy              =   -8078.55518831 Ry
     estimated scf accuracy    <       0.00001123 Ry

     total magnetization       =    97.05 Bohr mag/cell
     absolute magnetization    =    98.27 Bohr mag/cell

     iteration # 54     ecut=    50.00 Ry     beta= 0.10
     Davidson diagonalization with overlap
     ethr =  1.01E-09,  avg # of iterations =  2.0

     negative rho (up, down):  1.356E-03 8.185E-04
 
     Adding external electric field

     Computed dipole along edir(3) : 
        Dipole                0.3021 Ry au,          0.7678 Debye
        Dipole field          0.0002 Ry au, 
 
        Potential amp.       -0.0198 Ry
        Total length         54.7057 bohr
 
 
     Adding external electric field

     Computed dipole along edir(3) : 
        Dipole                0.3021 Ry au,          0.7678 Debye
        Dipole field          0.0002 Ry au, 
 
        Potential amp.       -0.0198 Ry
        Total length         54.7057 bohr
 

     total cpu time spent up to now is     1074.8 secs

     total energy              =   -8078.55518971 Ry
     estimated scf accuracy    <       0.00000575 Ry

     total magnetization       =    97.06 Bohr mag/cell
     absolute magnetization    =    98.27 Bohr mag/cell

     iteration # 55     ecut=    50.00 Ry     beta= 0.10
     Davidson diagonalization with overlap
     ethr =  5.19E-10,  avg # of iterations =  3.0

     negative rho (up, down):  1.365E-03 8.287E-04
 
     Adding external electric field

     Computed dipole along edir(3) : 
        Dipole                0.3027 Ry au,          0.7693 Debye
        Dipole field          0.0002 Ry au, 
 
        Potential amp.       -0.0199 Ry
        Total length         54.7057 bohr
 
 
     Adding external electric field

     Computed dipole along edir(3) : 
        Dipole                0.3027 Ry au,          0.7693 Debye
        Dipole field          0.0002 Ry au, 
 
        Potential amp.       -0.0199 Ry
        Total length         54.7057 bohr
 

     total cpu time spent up to now is     1093.8 secs

     total energy              =   -8078.55519007 Ry
     estimated scf accuracy    <       0.00000277 Ry

     total magnetization       =    97.06 Bohr mag/cell
     absolute magnetization    =    98.27 Bohr mag/cell

     iteration # 56     ecut=    50.00 Ry     beta= 0.10
     Davidson diagonalization with overlap
     ethr =  2.50E-10,  avg # of iterations =  3.0

     negative rho (up, down):  1.263E-03 7.214E-04
 
     Adding external electric field

     Computed dipole along edir(3) : 
        Dipole                0.3023 Ry au,          0.7683 Debye
        Dipole field          0.0002 Ry au, 
 
        Potential amp.       -0.0198 Ry
        Total length         54.7057 bohr
 
 
     Adding external electric field

     Computed dipole along edir(3) : 
        Dipole                0.3023 Ry au,          0.7683 Debye
        Dipole field          0.0002 Ry au, 
 
        Potential amp.       -0.0198 Ry
        Total length         54.7057 bohr
 

     total cpu time spent up to now is     1112.6 secs

     total energy              =   -8078.55518962 Ry
     estimated scf accuracy    <       0.00000158 Ry

     total magnetization       =    97.06 Bohr mag/cell
     absolute magnetization    =    98.27 Bohr mag/cell

     iteration # 57     ecut=    50.00 Ry     beta= 0.10
     Davidson diagonalization with overlap
     ethr =  1.42E-10,  avg # of iterations =  4.5

     negative rho (up, down):  1.162E-03 6.263E-04
 
     Adding external electric field

     Computed dipole along edir(3) : 
        Dipole                0.3009 Ry au,          0.7648 Debye
        Dipole field          0.0002 Ry au, 
 
        Potential amp.       -0.0197 Ry
        Total length         54.7057 bohr
 
 
     Adding external electric field

     Computed dipole along edir(3) : 
        Dipole                0.3009 Ry au,          0.7648 Debye
        Dipole field          0.0002 Ry au, 
 
        Potential amp.       -0.0197 Ry
        Total length         54.7057 bohr
 
 
     Magnetic moment per site  (integrated on atomic sphere of radius R)
     atom   1 (R=0.079)  charge=  7.1392  magn=  1.4253
     atom   2 (R=0.079)  charge=  7.1137  magn=  1.5307
     atom   3 (R=0.088)  charge= 12.1428  magn=  3.8453
     atom   4 (R=0.079)  charge=  7.1153  magn=  1.5180
     atom   5 (R=0.079)  charge=  7.1277  magn=  1.4979
     atom   6 (R=0.079)  charge=  7.1279  magn=  1.4927
     atom   7 (R=0.079)  charge=  7.0886  magn=  1.6092
     atom   8 (R=0.088)  charge= 12.1512  magn=  3.8852
[...]
    -5.9907  -5.9866  -5.9531  -5.9349  -5.8879  -5.8797  -5.8561  -5.8491
    -5.8298  -5.8102  -5.7922  -5.7648  -5.7552  -5.7397  -5.6977  -5.6883
    -5.6802  -5.6511  -5.6279  -5.6130  -5.5856  -5.5596  -5.5566  -5.5409
    -5.5212  -5.5175  -5.4933  -5.4811  -5.4699  -5.4602  -5.3897  -5.3815
    -5.3656  -5.3352  -5.3073  -5.2698  -5.2389  -5.1999  -5.1771  -5.1734
    -5.1532  -5.1096  -5.1042  -5.0013  -4.9668  -4.9537  -4.9521  -4.9158
    -4.8802  -4.8706  -4.8252  -4.8009  -4.7823  -4.7339  -4.7248  -4.7091
    -4.6642  -4.6056  -4.5834  -4.5686  -4.5120  -4.4714  -4.4485  -4.3967
    -4.3877  -4.3607  -4.3192  -4.2918  -4.2653  -4.2581  -4.2068  -4.1806
    -4.1380  -4.1175  -4.0942  -4.0642  -4.0549  -4.0174  -4.0031  -3.9642
    -3.8713  -3.8668  -3.8485  -3.8054  -3.8012  -3.7705  -3.7517  -3.7293
    -3.7132  -3.6914  -3.6683  -3.6173  -3.6136  -3.5907  -3.5882  -3.5724
    -3.5546  -3.5432  -3.5079  -3.5015  -3.4906  -3.4738  -3.4443  -3.4267
    -3.4209  -3.4028  -3.4014  -3.3657  -3.3306  -3.3279  -3.3170  -3.2990
    -3.2867  -3.2732  -3.2633  -3.2497  -3.2250  -3.1950  -3.1826  -3.1497
    -3.1344  -3.1019  -3.0597  -3.0410  -3.0268  -3.0154  -3.0062  -2.9854
    -2.9724  -2.9696  -2.9526  -2.8918  -2.8855  -2.8651  -2.8459  -2.8159
    -2.7998  -2.7783  -2.7253  -2.7173  -2.7048  -2.6801  -2.6767  -2.6682
    -2.6608  -2.6442  -2.6218  -2.6146  -2.5988  -2.5920  -2.5798  -2.5751
    -2.5544  -2.5437  -2.5303  -2.5236  -2.5051  -2.4899  -2.4773  -2.4499
    -2.4347  -2.4168  -2.3936  -2.3816  -2.3498  -2.3392  -2.3148  -2.3056
    -2.2875  -2.2834  -2.2653  -2.2578  -2.2171  -2.2161  -2.1926  -2.1798
    -2.1589  -2.1289  -2.1081  -2.1020  -2.0791  -2.0684  -2.0532  -2.0316
    -2.0187  -1.9986  -1.9727  -1.9608  -1.9361  -1.9167  -1.9096  -1.8797
    -1.8694  -1.8643  -1.8530  -1.8454  -1.8335  -1.7985  -1.7643  -1.7475
    -1.7399  -1.7110  -1.7078  -1.6926  -1.6716  -1.6560  -1.6064  -1.5985
    -1.5806  -1.5717  -1.5381  -1.5204  -1.5008  -1.4831  -1.4713  -1.4634
    -1.4481  -1.4233  -1.4213  -1.3830  -1.3718  -1.3613  -1.3191  -1.3062
    -1.2990  -1.2875  -1.2343  -1.2203  -1.1961  -1.1560  -1.1499  -1.1389
    -1.0956  -1.0764  -1.0042  -0.9590  -0.9461  -0.8243  -0.8099  -0.7737
    -0.7025  -0.6791  -0.6744  -0.4905  -0.3420  -0.2800  -0.2154  -0.1788
     0.1776   0.1914   0.2339   0.2549   0.2612   0.2641   0.2771   0.2988
     0.3301   0.3404   0.3842   0.3930   0.3947   0.3977   0.4024   0.4075
     0.4137   0.4219   0.4383   0.4415   0.4626   0.4671   0.4694   0.4745
     0.4826   0.4926   0.4966   0.5045   0.5111   0.5164   0.5241   0.5316
     0.5474   0.5537   0.5758   0.5803   0.5822   0.5836   0.5943   0.6035
     0.6137   0.6200   0.6250   0.6397   0.6521   0.6642   0.6679   0.6789
     0.6960   0.7019   0.7060   0.7187   0.7268   0.7307   0.7379   0.7695
     0.7724   0.7894   0.8016   0.8063   0.8105   0.8215   0.8311   0.8446
     0.8563   0.8621   0.8707   0.8810   0.8903   0.9061   0.9098   0.9396
     0.9911   1.0027   1.0116   1.0322   1.0791   1.0994   1.1655   1.2156
     1.6822   1.7657   1.7728   1.7864   1.8079   1.8151   1.8362   1.8632
     1.8859   1.9056   1.9273   1.9371   1.9615   1.9781   2.0262   2.0542
     2.0645   2.0816   2.0879   2.1080   2.1240   2.1449   2.1525   2.1555
     2.1968   2.1983   2.2194   2.2378   2.2427   2.2839   2.2970   2.3213
     2.3327   2.3373   2.3426   2.3627   2.3708   2.3797   2.4068   2.4272
     2.4645   2.4748   2.5130   2.5173   2.5342   2.5540   2.5780   2.6037
     2.6438   2.6545   2.7546   2.8232   2.8347   2.8702   2.8909   3.4774
     3.5536   3.6538   3.7164   3.7335   3.7489   3.7639   3.7866   3.8526
     3.9184   3.9319   3.9476   3.9725   3.9851   3.9954   3.9977   4.0156
     4.0568   4.0723   4.0818   4.0918   4.1458   4.1548   4.2025   4.2166
     4.2246   4.2375   4.2462   4.2644   4.3093   4.6035   4.6633   4.7720
     4.7829   4.8431   4.8905   4.9136   4.9665   4.9915   4.9993   5.0662
     5.0740   5.1061   5.1332   5.1722   5.2157   5.2295   5.3840   6.2076
     6.3370   6.4504   6.5287   6.6981   6.7078   6.7770   6.8498   6.8963
     6.9248   6.9975   7.0005   7.0690   7.2290   7.2927   7.3240   7.3753
     7.4058   7.4221   7.5028   7.5306   7.5585   7.6541   7.6909   7.7568
     7.8121   7.8607   7.8835   7.9318   7.9590   8.0080   8.0226   8.0697
     8.0730   8.0827   8.1249   8.1494   8.1657   8.2486   8.2776   8.3100
     8.3160   8.3514   8.3712   8.3810   8.4014   8.4125   8.4394   8.4469
     8.4507   8.4896   8.5336   8.5473   8.5602   8.6008   8.6125   8.6224
     8.6415

     the Fermi energy is     1.6907 ev

!    total energy              =   -8078.55518874 Ry
     estimated scf accuracy    <       0.00000084 Ry
     smearing contrib. (-TS)   =      -0.02589733 Ry
     internal energy E=F+TS    =   -8078.52929141 Ry

     The total energy is F=E-TS. E is the sum of the following terms:
     one-electron contribution =  -94638.58831936 Ry
     hartree contribution      =   47903.82047101 Ry
     xc contribution           =   -2177.37181246 Ry
     ewald contribution        =   40835.37905780 Ry
     Dispersion Correction     =      -1.76874267 Ry
     electric field correction =       0.00005427 Ry

     total magnetization       =    97.06 Bohr mag/cell
     absolute magnetization    =    98.27 Bohr mag/cell

     convergence has been achieved in  57 iterations

     negative rho (up, down):  1.162E-03 6.263E-04

     Forces acting on atoms (cartesian axes, Ry/au):

     atom    1 type  1   force =     0.00020192   -0.00034652    0.00014890
     atom    2 type  1   force =    -0.00024192   -0.00029229   -0.00009259
     atom    3 type  2   force =    -0.00060305   -0.00026208   -0.00012968
     atom    4 type  1   force =    -0.00004993    0.00017912    0.00000707
     atom    5 type  1   force =    -0.00083131    0.00019440    0.00039243
     atom    6 type  1   force =     0.00002181    0.00002930    0.00020081
     atom    7 type  1   force =     0.00006428    0.00040664   -0.00011354
     atom    8 type  2   force =    -0.00011386   -0.00039541    0.00069683
     atom    9 type  2   force =    -0.00026001   -0.00065419   -0.00025082
     atom   10 type  1   force =    -0.00003377    0.00045692   -0.00004751
     atom   11 type  1   force =    -0.00057072   -0.00019853   -0.00032768
     atom   12 type  1   force =     0.00013820   -0.00016371    0.00022368
     atom   13 type  3   force =     0.00043329    0.00028305    0.00007922
     atom   14 type  3   force =    -0.00051374   -0.00002217   -0.00005826
     atom   15 type  3   force =     0.00045684   -0.00005319   -0.00002248
     atom   16 type  3   force =    -0.00018705   -0.00012150    0.00013842
     atom   17 type  4   force =     0.00042031   -0.00026455   -0.00016380
     atom   18 type  4   force =     0.00007284    0.00001875   -0.00015924
     atom   19 type  4   force =    -0.00044936    0.00042957   -0.00020475
     atom   20 type  4   force =    -0.00002029    0.00038826    0.00030327
     atom   21 type  4   force =     0.00003788   -0.00018692   -0.00027450
     atom   22 type  4   force =     0.00018182   -0.00019469    0.00009605
     atom   23 type  4   force =    -0.00036382    0.00018224    0.00013512
     atom   24 type  4   force =     0.00029461    0.00010386   -0.00001855
     atom   25 type  4   force =    -0.00017378    0.00000914    0.00024814
     atom   26 type  4   force =    -0.00013257   -0.00018743    0.00029521
     atom   27 type  4   force =    -0.00023313    0.00002441    0.00023373
     atom   28 type  4   force =     0.00050948   -0.00001641    0.00045249
     atom   29 type  4   force =    -0.00010491   -0.00021218   -0.00004900
     atom   30 type  4   force =     0.00035377    0.00026910   -0.00002755
     atom   31 type  4   force =    -0.00045870    0.00008886   -0.00050604
     atom   32 type  4   force =    -0.00021586   -0.00008146    0.00048957
     atom   33 type  3   force =     0.00011965    0.00011492   -0.00020608
     atom   34 type  3   force =     0.00012479    0.00007112   -0.00025241
     atom   35 type  3   force =    -0.00024755   -0.00005293    0.00003403
     atom   36 type  3   force =    -0.00009288    0.00050895    0.00018794
     atom   37 type  4   force =     0.00018987   -0.00001258   -0.00022598
     atom   38 type  4   force =     0.00032656    0.00034860   -0.00004449
     atom   39 type  4   force =     0.00017681   -0.00014263    0.00037817
     atom   40 type  4   force =    -0.00008371    0.00021231   -0.00001213
     atom   41 type  4   force =     0.00011900   -0.00003035   -0.00000360
     atom   42 type  4   force =    -0.00003066   -0.00006780   -0.00009549
     atom   43 type  4   force =    -0.00036018   -0.00012659   -0.00033549
     atom   44 type  4   force =     0.00005108    0.00032133   -0.00028610
     atom   45 type  4   force =    -0.00029028   -0.00019112    0.00031256
     atom   46 type  4   force =     0.00011597   -0.00023234    0.00005530
     atom   47 type  4   force =     0.00015140    0.00012523    0.00036468
     atom   48 type  4   force =    -0.00007327    0.00024526    0.00038271
     atom   49 type  4   force =     0.00009338    0.00009263    0.00036647
     atom   50 type  4   force =     0.00030742    0.00023086    0.00016635
     atom   51 type  4   force =    -0.00010289    0.00019761   -0.00056168
     atom   52 type  4   force =     0.00026114   -0.00018547   -0.00010086
     atom   53 type  1   force =     0.00064088   -0.00117052    0.00046344
     atom   54 type  1   force =     0.00092934    0.00059789   -0.00157900
     atom   55 type  2   force =     0.00095004    0.00105231    0.00468672
     atom   56 type  1   force =    -0.00065321   -0.00089305   -0.00133133
     atom   57 type  1   force =    -0.00015788   -0.00027186    0.00003402
     atom   58 type  1   force =    -0.00006716    0.00047024    0.00008858
     atom   59 type  1   force =     0.00065523    0.00002605    0.00109885
     atom   60 type  2   force =    -0.00019068   -0.00007754   -0.00170498
     atom   61 type  2   force =     0.00098370    0.00160044    0.00468671
     atom   62 type  1   force =    -0.00040123   -0.00069094   -0.00130939
     atom   63 type  1   force =     0.00019580   -0.00020172   -0.00028688
     atom   64 type  1   force =     0.00009387    0.00045677    0.00029279
     atom   65 type  3   force =    -0.00037102   -0.00082145   -0.00235411
     atom   66 type  3   force =    -0.00001829    0.00102644    0.00327356
     atom   67 type  3   force =    -0.00029184   -0.00016273   -0.00018951
     atom   68 type  3   force =    -0.00072426    0.00074362   -0.00099952
     atom   69 type  4   force =    -0.00066994    0.00040409    0.00073476
     atom   70 type  4   force =    -0.00015824   -0.00004001   -0.00089150
     atom   71 type  4   force =     0.00027534    0.00030189   -0.00000215
     atom   72 type  4   force =     0.00025875   -0.00047170    0.00166273
     atom   73 type  4   force =    -0.00075434    0.00067012    0.00178816
     atom   74 type  4   force =     0.00058176   -0.00222941   -0.00184415
     atom   75 type  4   force =    -0.00120412    0.00045694   -0.00014344
     atom   76 type  4   force =     0.00003508   -0.00065113    0.00140012
     atom   77 type  4   force =    -0.00040441   -0.00008089    0.00062378
     atom   78 type  4   force =    -0.00094126    0.00017416    0.00039925
     atom   79 type  4   force =     0.00026208    0.00031922    0.00065655
     atom   80 type  4   force =     0.00047534    0.00090089   -0.00028699
     atom   81 type  4   force =    -0.00017839   -0.00131612   -0.00123589
     atom   82 type  4   force =     0.00088591   -0.00177767    0.00057107
     atom   83 type  4   force =     0.00001892    0.00071139    0.00038486
     atom   84 type  4   force =    -0.00047174    0.00020073    0.00064807
     atom   85 type  3   force =    -0.00018454   -0.00104975   -0.00223810
     atom   86 type  3   force =     0.00055783    0.00188615    0.00249320
     atom   87 type  3   force =    -0.00027637   -0.00207716    0.00163112
     atom   88 type  3   force =    -0.00067526    0.00086838   -0.00072337
     atom   89 type  4   force =    -0.00016989   -0.00008727    0.00018517
     atom   90 type  4   force =     0.00015263   -0.00090984   -0.00131750
     atom   91 type  4   force =     0.00055422    0.00055704   -0.00087843
     atom   92 type  4   force =     0.00038501   -0.00040848    0.00115149
     atom   93 type  4   force =    -0.00015270    0.00104926    0.00097993
     atom   94 type  4   force =     0.00126750    0.00025769    0.00120498
     atom   95 type  4   force =    -0.00154025    0.00049339    0.00070794
     atom   96 type  4   force =    -0.00013048   -0.00028832    0.00116940
     atom   97 type  4   force =    -0.00010871   -0.00059791    0.00072358
     atom   98 type  4   force =    -0.00027631    0.00091081   -0.00086481
     atom   99 type  4   force =     0.00059792   -0.00009727    0.00071133
     atom  100 type  4   force =     0.00014661    0.00103735   -0.00018790
     atom  101 type  4   force =    -0.00053386   -0.00117455   -0.00078587
     atom  102 type  4   force =     0.00131191   -0.00155956    0.00025609
     atom  103 type  4   force =     0.00031236    0.00039566    0.00027559
     atom  104 type  4   force =    -0.00003342   -0.00059445   -0.00023387
     atom  105 type  1   force =    -0.00068075    0.00168801   -0.00671441
     atom  106 type  1   force =     0.02822050    0.01346001    0.02200583
     atom  107 type  2   force =     0.00165838    0.00060491   -0.01058038
     atom  108 type  1   force =    -0.03100083    0.02318192    0.01657093
     atom  109 type  1   force =     0.00403784   -0.00300099   -0.00355061
     atom  110 type  1   force =    -0.00125556   -0.00633708   -0.00552160
     atom  111 type  1   force =    -0.00381450    0.00209385   -0.00591753
     atom  112 type  2   force =     0.03231837    0.01632115   -0.01034458
     atom  113 type  2   force =     0.00151398    0.00137078   -0.01029756
     atom  114 type  1   force =    -0.03187181    0.02442759    0.01750861
     atom  115 type  1   force =     0.00362078   -0.00493985   -0.00453879
     atom  116 type  1   force =    -0.00491465   -0.00797289   -0.00669931
     atom  117 type  3   force =    -0.02899437   -0.03570256   -0.06275998
     atom  118 type  3   force =     0.00318264    0.00034277   -0.00695238
     atom  119 type  3   force =     0.00074230   -0.00063185   -0.00910257
     atom  120 type  3   force =     0.02796735   -0.05775343   -0.08372303
     atom  121 type  4   force =    -0.00651616   -0.00323330    0.03046988
     atom  122 type  4   force =    -0.00141364   -0.00117308    0.00265205
     atom  123 type  4   force =     0.00158258   -0.00099674    0.00480684
     atom  124 type  4   force =     0.00354202    0.00317366    0.03397224
     atom  125 type  4   force =    -0.00224558   -0.00224811    0.03412164
     atom  126 type  4   force =    -0.00083316    0.00065369    0.00297762
     atom  127 type  4   force =     0.00222411    0.00315869    0.00434985
     atom  128 type  4   force =    -0.00317025   -0.00166595    0.02237626
     atom  129 type  4   force =    -0.01252030    0.03631982    0.00496905
     atom  130 type  4   force =    -0.00146018    0.00026893    0.00236836
     atom  131 type  4   force =    -0.01938053    0.00358022    0.00993962
     atom  132 type  4   force =    -0.00116002    0.00353052    0.00433133
     atom  133 type  4   force =    -0.00294684    0.00063528    0.00239773
     atom  134 type  4   force =     0.00149237   -0.00429766    0.00351659
     atom  135 type  4   force =     0.01379099    0.02359077   -0.00092901
     atom  136 type  4   force =     0.01319473   -0.00066304    0.00238738
     atom  137 type  3   force =    -0.03818756   -0.04126752   -0.06617947
     atom  138 type  3   force =     0.00648079   -0.00303092   -0.00136858
     atom  139 type  3   force =     0.00028561   -0.00157782   -0.00940012
     atom  140 type  3   force =     0.02904584   -0.05118617   -0.08328763
     atom  141 type  4   force =    -0.00102543    0.00272997    0.02931590
     atom  142 type  4   force =     0.00046186    0.00234086   -0.00624202
     atom  143 type  4   force =     0.00163432   -0.00084614    0.00423793
     atom  144 type  4   force =     0.00421026    0.00185177    0.03458469
     atom  145 type  4   force =     0.00900683    0.00388079    0.03132504
     atom  146 type  4   force =    -0.00031211    0.00053082    0.00170461
     atom  147 type  4   force =     0.00271240    0.00348051    0.00401865
     atom  148 type  4   force =    -0.00396923   -0.00131430    0.02232519
     atom  149 type  4   force =    -0.01000228    0.03008340    0.00426677
     atom  150 type  4   force =    -0.00190019    0.00037126    0.00280117
     atom  151 type  4   force =    -0.01846939    0.00504525    0.00990312
     atom  152 type  4   force =    -0.00087879    0.00343792    0.00432767
     atom  153 type  4   force =    -0.00136471    0.00026707    0.00296753
     atom  154 type  4   force =     0.00213647   -0.00249649    0.00281525
     atom  155 type  4   force =     0.01475682    0.02460085    0.00014576
     atom  156 type  4   force =     0.02234725   -0.00367999    0.00142994
     atom  157 type  4   force =     0.00283224    0.00190028   -0.00074138
     atom  158 type  5   force =    -0.00388398   -0.00161247    0.00154593

     Total force =     0.237567     Total SCF correction =     0.004485
 
     init_run     :     10.98s CPU     11.69s WALL (       1 calls)
     electrons    :   1082.07s CPU   1117.72s WALL (       1 calls)
     forces       :      6.34s CPU      6.70s WALL (       1 calls)
     force_london :      0.08s CPU      0.08s WALL (       1 calls)

     Called by init_run:
     wfcinit      :      6.03s CPU      6.19s WALL (       1 calls)
     potinit      :      0.99s CPU      1.17s WALL (       1 calls)
     hinit0       :      2.14s CPU      2.36s WALL (       1 calls)

     Called by electrons:
     c_bands      :    836.23s CPU    856.10s WALL (      57 calls)
     sum_band     :    147.84s CPU    156.09s WALL (      57 calls)
     v_of_rho     :     16.97s CPU     17.93s WALL (      58 calls)
     newd         :     61.59s CPU     68.06s WALL (      58 calls)
     mix_rho      :     18.97s CPU     19.29s WALL (      57 calls)
     energy_londo :      0.08s CPU      0.08s WALL (       1 calls)

     Called by c_bands:
     init_us_2    :      1.29s CPU      1.34s WALL (     232 calls)
     init_us_2:cp :      1.29s CPU      1.34s WALL (     232 calls)
     regterg      :    822.39s CPU    842.11s WALL (     115 calls)

     Called by *egterg:
     rdiaghg      :    198.44s CPU    208.95s WALL (     502 calls)
     h_psi        :    296.98s CPU    300.92s WALL (     504 calls)
     s_psi        :     32.85s CPU     32.88s WALL (     504 calls)
     g_psi        :      0.24s CPU      0.24s WALL (     387 calls)

     Called by h_psi:
     h_psi:calbec :     84.53s CPU     87.67s WALL (     504 calls)
     vloc_psi     :    176.66s CPU    177.07s WALL (     504 calls)
     add_vuspsi   :     35.37s CPU     35.75s WALL (     504 calls)

     General routines
     calbec       :    123.62s CPU    128.30s WALL (     626 calls)
     fft          :     55.36s CPU     56.94s WALL (    1057 calls)
     ffts         :     10.88s CPU     10.89s WALL (    7061 calls)
     fftw         :    202.84s CPU    203.30s WALL (  198792 calls)
     interpolate  :      1.82s CPU      1.88s WALL (     116 calls)
 
     Parallel routines
 
     PWSCF        :  18m22.11s CPU  18m59.14s WALL

 
   This run was terminated on:   3: 6: 9  18Nov2025            

=------------------------------------------------------------------------------=
   JOB DONE.
=------------------------------------------------------------------------------=
