
     Program PWSCF v.7.2 starts on 18Nov2025 at  1:50:23 

     This program is part of the open-source Quantum ESPRESSO suite
     for quantum simulation of materials; please cite
         "P. Giannozzi et al., J. Phys.:Condens. Matter 21 395502 (2009);
         "P. Giannozzi et al., J. Phys.:Condens. Matter 29 465901 (2017);
         "P. Giannozzi et al., J. Chem. Phys. 152 154105 (2020);
          URL http://www.quantum-espresso.org", 
     in publications or presentations arising from this work. More details at
     http://www.quantum-espresso.org/quote

     Parallel version (MPI), running on    64 processors

     MPI processes distributed on     4 nodes
     454717 MiB available memory on the printing compute node when the environment starts
 
     Reading input from PWINPUT_atm158_ym

     Current dimensions of program PWSCF are:
     Max number of different atomic species (ntypx) = 10
     Max number of k-points (npk) =  40000
     Max angular momentum in pseudopotentials (lmaxx) =  4
     Presently no symmetry can be used with electric field

     file Ni.pbe-n-rrkjus_psl.1.0.0.UPF: wavefunction(s)  3D renormalized
     file Mn.pbe-spn-rrkjus_psl.0.3.1.UPF: wavefunction(s)  3D renormalized
     file O.pbe-rrkjus.UPF: wavefunction(s)  2S renormalized
     file H.pbe-rrkjus.UPF: wavefunction(s)  1S renormalized

     gamma-point specific algorithms are used
 
     R & G space division:  proc/nbgrp/npool/nimage =      64
     Subspace diagonalization in iterative solution of the eigenvalue problem:
     one sub-group per band group will be used
     custom distributed-memory algorithm (size of sub-group:  7*  7 procs)

 
     Parallelization info
     --------------------
     sticks:   dense  smooth     PW     G-vecs:    dense   smooth      PW
     Min         214      85     20                61830    15614    1928
     Max         216      86     22                61864    15658    1982
     Sum       13727    5503   1375              3958051  1001255  125211
 
     Using Slab Decomposition
 


     bravais-lattice index     =            0
     lattice parameter (alat)  =      17.8532  a.u.
     unit-cell volume          =   20962.6682 (a.u.)^3
     number of atoms/cell      =          158
     number of atomic types    =            5
     number of electrons       =      1108.00
     number of Kohn-Sham states=          665
     kinetic-energy cutoff     =      50.0000  Ry
     charge density cutoff     =     500.0000  Ry
     scf convergence threshold =      1.0E-06
     mixing beta               =       0.1000
     number of iterations used =            8  local-TF  mixing
     Exchange-correlation=  SLA  PW   PBE  PBE
                           (   1   4   3   4   0   0   0)

     celldm(1)=  17.853155  celldm(2)=   0.000000  celldm(3)=   0.000000
     celldm(4)=   0.000000  celldm(5)=   0.000000  celldm(6)=   0.000000

     crystal axes: (cart. coord. in units of alat)
               a(1) = (   1.000000   0.000000   0.000000 )  
               a(2) = (   0.003237   1.081997   0.000000 )  
               a(3) = (   0.000000   0.000000   3.404673 )  

     reciprocal axes: (cart. coord. in units 2 pi/alat)
               b(1) = (  1.000000 -0.002992  0.000000 )  
               b(2) = (  0.000000  0.924217  0.000000 )  
               b(3) = (  0.000000  0.000000  0.293714 )  


     PseudoPot. # 1 for Ni read from file:
     ~/PSEUDO/Ni.pbe-n-rrkjus_psl.1.0.0.UPF
     MD5 check sum: Not computed, couldn't open file
     Pseudo is Ultrasoft + core correction, Zval = 10.0
     Generated using "atomic" code by A. Dal Corso  v.5.1.2
     Using radial grid of 1195 points,  6 beta functions with: 
                l(1) =   0
                l(2) =   0
                l(3) =   1
                l(4) =   1
                l(5) =   2
                l(6) =   2
     Q(r) pseudized with 0 coefficients 


     PseudoPot. # 2 for Mn read from file:
     ~/PSEUDO/Mn.pbe-spn-rrkjus_psl.0.3.1.UPF
     MD5 check sum: Not computed, couldn't open file
     Pseudo is Ultrasoft + core correction, Zval = 15.0
     Generated using &quot;atomic&quot; code by A. Dal Corso  v.6.2.2
     Using radial grid of 1187 points,  6 beta functions with: 
                l(1) =   0
                l(2) =   0
                l(3) =   1
                l(4) =   1
                l(5) =   2
                l(6) =   2
     Q(r) pseudized with 0 coefficients 


     PseudoPot. # 3 for P  read from file:
     ~/PSEUDO/P.pbe-n-rrkjus_psl.1.0.0.UPF
     MD5 check sum: Not computed, couldn't open file
     Pseudo is Ultrasoft + core correction, Zval =  5.0
     Generated using "atomic" code by A. Dal Corso  v.5.1
     Using radial grid of 1147 points,  6 beta functions with: 
                l(1) =   0
                l(2) =   0
                l(3) =   1
                l(4) =   1
                l(5) =   2
                l(6) =   2
     Q(r) pseudized with 0 coefficients 


     PseudoPot. # 4 for O  read from file:
     ~/PSEUDO/O.pbe-rrkjus.UPF
     MD5 check sum: Not computed, couldn't open file
     Pseudo is Ultrasoft, Zval =  6.0
     Generated by new atomic code, or converted to UPF format
     Using radial grid of 1269 points,  4 beta functions with: 
                l(1) =   0
                l(2) =   0
                l(3) =   1
                l(4) =   1
     Q(r) pseudized with 0 coefficients 


     PseudoPot. # 5 for H  read from file:
     ~/PSEUDO/H.pbe-rrkjus.UPF
     MD5 check sum: Not computed, couldn't open file
     Pseudo is Ultrasoft, Zval =  1.0
     Generated by new atomic code, or converted to UPF format
     Using radial grid of 1061 points,  2 beta functions with: 
                l(1) =   0
                l(2) =   0
     Q(r) pseudized with 0 coefficients 


     atomic species   valence    mass     pseudopotential
     Ni               10.00    58.69300     Ni( 1.00)
     Mn               15.00    54.93800     Mn( 1.00)
     P                 5.00    30.97300     P ( 1.00)
     O                 6.00    15.99900     O ( 1.00)
     H                 1.00     1.00790     H ( 1.00)

     Starting magnetic structure 
     atomic species   magnetization
     Ni              1.000
     Mn              1.000
     P               1.000
     O               1.000
     H               0.000

     No symmetry found



   Cartesian axes

     site n.     atom                  positions (alat units)
         1        Ni     tau(   1) = (   0.2517947   0.8308062   1.6798145  )
         2        Ni     tau(   2) = (   0.4936747   0.7709440   1.3761619  )
         3        Mn     tau(   3) = (  -0.0006949   0.2926025   1.6978565  )
         4        Ni     tau(   4) = (   0.2575842   0.2245205   1.3772040  )
         5        Ni     tau(   5) = (   0.9981759   1.0713947   1.5343648  )
         6        Ni     tau(   6) = (   0.2543054   0.5308410   1.5398740  )
         7        Ni     tau(   7) = (   0.7435028   0.8375320   1.7165919  )
         8        Mn     tau(   8) = (   0.9865751   0.7666227   1.3736630  )
         9        Mn     tau(   9) = (   0.4996451   0.2904739   1.7005406  )
        10        Ni     tau(  10) = (   0.7542979   0.2248113   1.3769056  )
        11        Ni     tau(  11) = (   0.4992111   1.0687842   1.5407895  )
        12        Ni     tau(  12) = (   0.7522699   0.5334078   1.5431579  )
        13        P      tau(  13) = (   0.2122732   0.9675179   1.3790338  )
        14        P      tau(  14) = (   0.4636670   0.6428258   1.6974055  )
        15        P      tau(  15) = (   0.2826693   0.0948330   1.6935633  )
        16        P      tau(  16) = (   0.0402322   0.4230972   1.3861994  )
        17        O      tau(  17) = (   0.1342861   0.9002079   1.5145551  )
        18        O      tau(  18) = (   0.3875170   0.7007805   1.5523123  )
        19        O      tau(  19) = (   0.3603904   0.1558919   1.5519331  )
        20        O      tau(  20) = (   0.1179641   0.3570356   1.5223770  )
        21        O      tau(  21) = (   0.1523626   0.8778677   1.2552603  )
        22        O      tau(  22) = (   0.4007827   0.7381390   1.8117461  )
        23        O      tau(  23) = (   0.3394366   0.1915516   1.8103802  )
        24        O      tau(  24) = (   0.0993295   0.3317293   1.2638219  )
        25        O      tau(  25) = (   0.0994981   0.5767588   1.3831024  )
        26        O      tau(  26) = (   0.3415998   1.0213345   1.6959896  )
        27        O      tau(  27) = (   0.3787012   0.4162907   1.3963877  )
        28        O      tau(  28) = (   0.1188676   0.1027011   1.6814257  )
        29        O      tau(  29) = (   0.1300685   0.6487944   1.6816090  )
        30        O      tau(  30) = (   0.4072339   0.4864053   1.6996410  )
        31        O      tau(  31) = (   0.1485429   0.0392695   1.3797960  )
        32        O      tau(  32) = (   0.3748507   0.9597227   1.3916350  )
        33        P      tau(  33) = (   0.7067859   0.9648092   1.3807737  )
        34        P      tau(  34) = (   0.9661010   0.6467709   1.6983707  )
        35        P      tau(  35) = (   0.7853041   0.0968538   1.6915256  )
        36        P      tau(  36) = (   0.5415999   0.4266598   1.3859227  )
        37        O      tau(  37) = (   0.6313507   0.8926442   1.5144945  )
        38        O      tau(  38) = (   0.8870659   0.7007313   1.5564639  )
        39        O      tau(  39) = (   0.8612862   0.1599492   1.5488139  )
        40        O      tau(  40) = (   0.6193244   0.3584745   1.5208942  )
        41        O      tau(  41) = (   0.6484478   0.8775121   1.2540428  )
        42        O      tau(  42) = (   0.9103151   0.7438835   1.8141780  )
        43        O      tau(  43) = (   0.8423867   0.1959417   1.8071958  )
        44        O      tau(  44) = (   0.6011106   0.3361580   1.2625598  )
        45        O      tau(  45) = (   0.5997133   0.5808070   1.3850906  )
        46        O      tau(  46) = (   0.8494289   1.0258964   1.6899651  )
        47        O      tau(  47) = (   0.8775213   0.4170975   1.3970294  )
        48        O      tau(  48) = (   0.6220353   0.1048302   1.6800061  )
        49        O      tau(  49) = (   0.6273408   0.6440149   1.6877536  )
        50        O      tau(  50) = (   0.9121546   0.4889331   1.7040726  )
        51        O      tau(  51) = (   0.6454907   0.0374457   1.3840800  )
        52        O      tau(  52) = (   0.8701405   0.9588967   1.3902436  )
        53        Ni     tau(  53) = (   0.2420320   0.8169913   1.0699082  )
        54        Ni     tau(  54) = (   0.4893084   0.7542727   0.7477128  )
        55        Mn     tau(  55) = (   0.0085152   0.2729728   1.0755565  )
        56        Ni     tau(  56) = (   0.2558246   0.2079345   0.7498450  )
        57        Ni     tau(  57) = (   0.9991959   1.0516583   0.9080455  )
        58        Ni     tau(  58) = (   0.2490231   0.5149840   0.9092594  )
        59        Ni     tau(  59) = (   0.7373131   0.8159965   1.0690453  )
        60        Mn     tau(  60) = (   0.9859093   0.7511625   0.7423903  )
        61        Mn     tau(  61) = (   0.5085552   0.2755447   1.0757185  )
        62        Ni     tau(  62) = (   0.7532989   0.2074622   0.7493279  )
        63        Ni     tau(  63) = (   0.4981517   1.0523018   0.9093468  )
        64        Ni     tau(  64) = (   0.7469109   0.5147379   0.9081681  )
        65        P      tau(  65) = (   0.2119924   0.9497675   0.7533413  )
        66        P      tau(  66) = (   0.4579509   0.6252695   1.0650744  )
        67        P      tau(  67) = (   0.2855349   0.0724244   1.0650326  )
        68        P      tau(  68) = (   0.0381112   0.4032615   0.7561117  )
        69        O      tau(  69) = (   0.1352995   0.8818598   0.8892857  )
        70        O      tau(  70) = (   0.3789570   0.6924463   0.9291468  )
        71        O      tau(  71) = (   0.3610496   0.1419327   0.9291660  )
        72        O      tau(  72) = (   0.1179700   0.3356534   0.8894858  )
        73        O      tau(  73) = (   0.1524325   0.8608343   0.6290918  )
        74        O      tau(  74) = (   0.3994952   0.7128748   1.1905493  )
        75        O      tau(  75) = (   0.3426976   0.1634744   1.1889742  )
        76        O      tau(  76) = (   0.0989151   0.3155758   0.6321220  )
        77        O      tau(  77) = (   0.0942206   0.5581494   0.7569623  )
        78        O      tau(  78) = (   0.3506297   1.0014456   1.0645371  )
        79        O      tau(  79) = (   0.3750155   0.3983181   0.7655049  )
        80        O      tau(  80) = (   0.1228303   0.0764842   1.0543924  )
        81        O      tau(  81) = (   0.1204299   0.6293201   1.0530905  )
        82        O      tau(  82) = (   0.4000664   0.4708612   1.0626359  )
        83        O      tau(  83) = (   0.1483182   0.0216333   0.7546099  )
        84        O      tau(  84) = (   0.3748687   0.9435072   0.7627918  )
        85        P      tau(  85) = (   0.7056901   0.9492898   0.7521526  )
        86        P      tau(  86) = (   0.9575286   0.6220438   1.0623609  )
        87        P      tau(  87) = (   0.7847866   0.0710549   1.0641979  )
        88        P      tau(  88) = (   0.5377283   0.4083400   0.7551622  )
        89        O      tau(  89) = (   0.6295714   0.8788409   0.8879407  )
        90        O      tau(  90) = (   0.8781778   0.6902700   0.9288966  )
        91        O      tau(  91) = (   0.8603186   0.1398018   0.9279591  )
        92        O      tau(  92) = (   0.6174712   0.3389159   0.8881839  )
        93        O      tau(  93) = (   0.6471291   0.8583376   0.6285166  )
        94        O      tau(  94) = (   0.8962302   0.7094244   1.1861651  )
        95        O      tau(  95) = (   0.8420493   0.1616933   1.1885419  )
        96        O      tau(  96) = (   0.5995227   0.3203391   0.6315608  )
        97        O      tau(  97) = (   0.5932354   0.5636910   0.7569738  )
        98        O      tau(  98) = (   0.8487155   0.9994995   1.0634446  )
        99        O      tau(  99) = (   0.8751772   0.3959680   0.7655094  )
       100        O      tau( 100) = (   0.6223291   0.0767949   1.0539182  )
       101        O      tau( 101) = (   0.6209785   0.6292365   1.0537708  )
       102        O      tau( 102) = (   0.9010178   0.4674118   1.0608723  )
       103        O      tau( 103) = (   0.6430869   0.0213354   0.7538098  )
       104        O      tau( 104) = (   0.8684566   0.9446034   0.7630440  )
       105        Ni     tau( 105) = (   0.2392451   0.7980692   0.4424501  )
       106        Ni     tau( 106) = (   0.4865215   0.7353506   0.1202547  )
       107        Mn     tau( 107) = (   0.0057284   0.2540508   0.4480984  )
       108        Ni     tau( 108) = (   0.2530377   0.1890124   0.1223869  )
       109        Ni     tau( 109) = (   0.9964090   1.0327362   0.2805874  )
       110        Ni     tau( 110) = (   0.2462362   0.4960619   0.2818013  )
       111        Ni     tau( 111) = (   0.7345262   0.7970744   0.4415872  )
       112        Mn     tau( 112) = (   0.9831224   0.7322404   0.1149322  )
       113        Mn     tau( 113) = (   0.5057684   0.2566226   0.4482604  )
       114        Ni     tau( 114) = (   0.7505120   0.1885401   0.1218698  )
       115        Ni     tau( 115) = (   0.4953648   1.0333797   0.2818887  )
       116        Ni     tau( 116) = (   0.7441241   0.4958159   0.2807100  )
       117        P      tau( 117) = (   0.2092055   0.9308455   0.1258832  )
       118        P      tau( 118) = (   0.4551640   0.6063475   0.4376163  )
       119        P      tau( 119) = (   0.2827481   0.0535023   0.4375745  )
       120        P      tau( 120) = (   0.0353243   0.3843395   0.1286536  )
       121        O      tau( 121) = (   0.1325127   0.8629378   0.2618276  )
       122        O      tau( 122) = (   0.3761702   0.6735242   0.3016887  )
       123        O      tau( 123) = (   0.3582627   0.1230106   0.3017079  )
       124        O      tau( 124) = (   0.1151831   0.3167313   0.2620277  )
       125        O      tau( 125) = (   0.1496456   0.8419122   0.0016337  )
       126        O      tau( 126) = (   0.3967083   0.6939527   0.5630912  )
       127        O      tau( 127) = (   0.3399107   0.1445523   0.5615161  )
       128        O      tau( 128) = (   0.0961282   0.2966537   0.0046639  )
       129        O      tau( 129) = (   0.0914337   0.5392273   0.1295042  )
       130        O      tau( 130) = (   0.3478428   0.9825235   0.4370790  )
       131        O      tau( 131) = (   0.3722287   0.3793961   0.1380469  )
       132        O      tau( 132) = (   0.1200434   0.0575621   0.4269343  )
       133        O      tau( 133) = (   0.1176431   0.6103980   0.4256324  )
       134        O      tau( 134) = (   0.3972796   0.4519391   0.4351778  )
       135        O      tau( 135) = (   0.1455313   0.0027113   0.1271518  )
       136        O      tau( 136) = (   0.3720819   0.9245852   0.1353338  )
       137        P      tau( 137) = (   0.7029032   0.9303678   0.1246945  )
       138        P      tau( 138) = (   0.9547417   0.6031217   0.4349028  )
       139        P      tau( 139) = (   0.7819997   0.0521328   0.4367398  )
       140        P      tau( 140) = (   0.5349415   0.3894179   0.1277041  )
       141        O      tau( 141) = (   0.6267846   0.8599188   0.2604826  )
       142        O      tau( 142) = (   0.8753909   0.6713480   0.3014385  )
       143        O      tau( 143) = (   0.8575317   0.1208797   0.3005010  )
       144        O      tau( 144) = (   0.6146843   0.3199938   0.2607258  )
       145        O      tau( 145) = (   0.6443422   0.8394155   0.0010585  )
       146        O      tau( 146) = (   0.8934434   0.6905023   0.5587070  )
       147        O      tau( 147) = (   0.8392624   0.1427713   0.5610838  )
       148        O      tau( 148) = (   0.5967359   0.3014171   0.0041027  )
       149        O      tau( 149) = (   0.5904485   0.5447689   0.1295157  )
       150        O      tau( 150) = (   0.8459286   0.9805774   0.4359865  )
       151        O      tau( 151) = (   0.8723903   0.3770459   0.1380513  )
       152        O      tau( 152) = (   0.6195422   0.0578729   0.4264602  )
       153        O      tau( 153) = (   0.6181917   0.6103144   0.4263127  )
       154        O      tau( 154) = (   0.8982309   0.4484897   0.4334142  )
       155        O      tau( 155) = (   0.6403000   0.0024133   0.1263517  )
       156        O      tau( 156) = (   0.8656697   0.9256814   0.1355859  )
       157        O      tau( 157) = (   0.6275452   0.9241438   1.8429931  )
       158        H      tau( 158) = (   0.5438826   0.8645951   1.8664057  )

     -------------------------------------------------
     Parameters for Dispersion (Grimme-D2) Correction:
     -------------------------------------------------
       atom      VdW radius       C_6     

        Ni         2.952        374.666
        Mn         2.952        374.666
        P          3.222        271.980
        O          2.536         24.284
        H          1.892          4.857

     number of k points=     1  Gaussian smearing, width (Ry)=  0.0100
                       cart. coord. in units 2pi/alat
        k(    1) = (   0.0000000   0.0000000   0.0000000), wk =   1.0000000

     Dense  grid:  1979026 G-vectors     FFT dimensions: ( 128, 144, 450)

     Smooth grid:   500628 G-vectors     FFT dimensions: (  81,  90, 288)

     Estimated max dynamical RAM per process >     333.40 MB

     Estimated total dynamical RAM >      20.84 GB

     Check: negative core charge=   -0.000002
     Generating pointlists ...
     new r_m :   0.0793 (alat units)  1.4151 (a.u.) for type    1
     new r_m :   0.0884 (alat units)  1.5781 (a.u.) for type    2
     new r_m :   0.0665 (alat units)  1.1864 (a.u.) for type    3
     new r_m :   0.0434 (alat units)  0.7757 (a.u.) for type    4
     new r_m :   0.0434 (alat units)  0.7757 (a.u.) for type    5

     Initial potential from superposition of free atoms

     starting charge    1107.8886, renormalised to    1108.0000

     negative rho (up, down):  1.519E-03 4.687E-04
 
     Adding external electric field

     Computed dipole along edir(3) : 
        Dipole                1.6296 Ry au,          4.1421 Debye
        Dipole field          0.0010 Ry au, 
 
        Potential amp.       -0.1069 Ry
        Total length         54.7057 bohr
 
 
     Adding external electric field

     Computed dipole along edir(3) : 
        Dipole                1.6296 Ry au,          4.1421 Debye
        Dipole field          0.0010 Ry au, 
 
        Potential amp.       -0.1069 Ry
        Total length         54.7057 bohr
 
     Starting wfcs are  818 randomized atomic wfcs

     total cpu time spent up to now is       13.7 secs

     Self-consistent Calculation

     iteration #  1     ecut=    50.00 Ry     beta= 0.10
     Davidson diagonalization with overlap
     ethr =  1.00E-02,  avg # of iterations =  5.5

     negative rho (up, down):  4.395E-01 4.035E-07
 
     Adding external electric field

     Computed dipole along edir(3) : 
        Dipole               -3.6096 Ry au,         -9.1748 Debye
        Dipole field         -0.0022 Ry au, 
 
        Potential amp.        0.2367 Ry
        Total length         54.7057 bohr
 
 
     Adding external electric field

     Computed dipole along edir(3) : 
        Dipole               -3.6096 Ry au,         -9.1748 Debye
        Dipole field         -0.0022 Ry au, 
 
        Potential amp.        0.2367 Ry
        Total length         54.7057 bohr
 

     total cpu time spent up to now is       51.5 secs

     total energy              =   -7857.95562110 Ry
     estimated scf accuracy    <     729.96998704 Ry

     total magnetization       =   222.00 Bohr mag/cell
     absolute magnetization    =   319.71 Bohr mag/cell

     iteration #  2     ecut=    50.00 Ry     beta= 0.10
     Davidson diagonalization with overlap
     ethr =  1.00E-02,  avg # of iterations =  2.0

     negative rho (up, down):  4.087E-01 2.284E-07
 
     Adding external electric field

     Computed dipole along edir(3) : 
        Dipole               -2.5462 Ry au,         -6.4719 Debye
        Dipole field         -0.0015 Ry au, 
 
        Potential amp.        0.1670 Ry
        Total length         54.7057 bohr
 
 
     Adding external electric field

     Computed dipole along edir(3) : 
        Dipole               -2.5462 Ry au,         -6.4719 Debye
        Dipole field         -0.0015 Ry au, 
 
        Potential amp.        0.1670 Ry
        Total length         54.7057 bohr
 

     total cpu time spent up to now is       75.1 secs

     total energy              =   -7940.61993866 Ry
     estimated scf accuracy    <     183.50489211 Ry

     total magnetization       =   163.89 Bohr mag/cell
     absolute magnetization    =   211.73 Bohr mag/cell

     iteration #  3     ecut=    50.00 Ry     beta= 0.10
     Davidson diagonalization with overlap
     ethr =  1.00E-02,  avg # of iterations =  1.5

     negative rho (up, down):  3.607E-01 1.687E-07
 
     Adding external electric field

     Computed dipole along edir(3) : 
        Dipole               -2.1400 Ry au,         -5.4392 Debye
        Dipole field         -0.0013 Ry au, 
 
        Potential amp.        0.1404 Ry
        Total length         54.7057 bohr
 
 
     Adding external electric field

     Computed dipole along edir(3) : 
        Dipole               -2.1400 Ry au,         -5.4392 Debye
        Dipole field         -0.0013 Ry au, 
 
        Potential amp.        0.1404 Ry
        Total length         54.7057 bohr
 

     total cpu time spent up to now is       94.8 secs

     total energy              =   -7971.94994088 Ry
     estimated scf accuracy    <     104.47340676 Ry

     total magnetization       =   141.56 Bohr mag/cell
     absolute magnetization    =   191.26 Bohr mag/cell

     iteration #  4     ecut=    50.00 Ry     beta= 0.10
     Davidson diagonalization with overlap
     ethr =  9.43E-03,  avg # of iterations =  1.0

     negative rho (up, down):  2.922E-01 3.829E-08
 
     Adding external electric field

     Computed dipole along edir(3) : 
        Dipole               -2.1504 Ry au,         -5.4658 Debye
        Dipole field         -0.0013 Ry au, 
 
        Potential amp.        0.1410 Ry
        Total length         54.7057 bohr
 
 
     Adding external electric field

     Computed dipole along edir(3) : 
        Dipole               -2.1504 Ry au,         -5.4658 Debye
        Dipole field         -0.0013 Ry au, 
 
        Potential amp.        0.1410 Ry
        Total length         54.7057 bohr
 

     total cpu time spent up to now is      112.3 secs

     total energy              =   -8000.17127550 Ry
     estimated scf accuracy    <      83.66086015 Ry

     total magnetization       =   125.21 Bohr mag/cell
     absolute magnetization    =   176.76 Bohr mag/cell

     iteration #  5     ecut=    50.00 Ry     beta= 0.10
     Davidson diagonalization with overlap
     ethr =  7.55E-03,  avg # of iterations =  1.0

     negative rho (up, down):  4.927E-02 0.000E+00
 
     Adding external electric field

     Computed dipole along edir(3) : 
        Dipole               -1.7066 Ry au,         -4.3377 Debye
        Dipole field         -0.0010 Ry au, 
 
        Potential amp.        0.1119 Ry
        Total length         54.7057 bohr
 
 
     Adding external electric field

     Computed dipole along edir(3) : 
        Dipole               -1.7066 Ry au,         -4.3377 Debye
        Dipole field         -0.0010 Ry au, 
 
        Potential amp.        0.1119 Ry
        Total length         54.7057 bohr
 

     total cpu time spent up to now is      130.3 secs

     total energy              =   -8060.61454926 Ry
     estimated scf accuracy    <      69.77655848 Ry

     total magnetization       =   106.85 Bohr mag/cell
     absolute magnetization    =   160.51 Bohr mag/cell

     iteration #  6     ecut=    50.00 Ry     beta= 0.10
     Davidson diagonalization with overlap
     ethr =  6.30E-03,  avg # of iterations =  1.0

     negative rho (up, down):  3.106E-04 5.115E-04
 
     Adding external electric field

     Computed dipole along edir(3) : 
        Dipole               -1.1546 Ry au,         -2.9348 Debye
        Dipole field         -0.0007 Ry au, 
 
        Potential amp.        0.0757 Ry
        Total length         54.7057 bohr
 
 
     Adding external electric field

     Computed dipole along edir(3) : 
        Dipole               -1.1546 Ry au,         -2.9348 Debye
        Dipole field         -0.0007 Ry au, 
 
        Potential amp.        0.0757 Ry
        Total length         54.7057 bohr
 

     total cpu time spent up to now is      147.9 secs

     total energy              =   -8076.14572037 Ry
     estimated scf accuracy    <      18.61563997 Ry

     total magnetization       =   100.00 Bohr mag/cell
     absolute magnetization    =   134.02 Bohr mag/cell

     iteration #  7     ecut=    50.00 Ry     beta= 0.10
     Davidson diagonalization with overlap
     ethr =  1.68E-03,  avg # of iterations =  6.0

     negative rho (up, down):  2.997E-04 5.195E-04
 
     Adding external electric field

     Computed dipole along edir(3) : 
        Dipole               -1.1475 Ry au,         -2.9166 Debye
        Dipole field         -0.0007 Ry au, 
 
        Potential amp.        0.0753 Ry
        Total length         54.7057 bohr
 
 
     Adding external electric field

     Computed dipole along edir(3) : 
        Dipole               -1.1475 Ry au,         -2.9166 Debye
        Dipole field         -0.0007 Ry au, 
 
        Potential amp.        0.0753 Ry
        Total length         54.7057 bohr
 

     total cpu time spent up to now is      177.1 secs

     total energy              =   -8078.82352588 Ry
     estimated scf accuracy    <      33.39744757 Ry

     total magnetization       =    69.85 Bohr mag/cell
     absolute magnetization    =    87.74 Bohr mag/cell

     iteration #  8     ecut=    50.00 Ry     beta= 0.10
     Davidson diagonalization with overlap
     ethr =  1.68E-03,  avg # of iterations =  1.0

     negative rho (up, down):  2.971E-04 5.178E-04
 
     Adding external electric field

     Computed dipole along edir(3) : 
        Dipole               -1.1369 Ry au,         -2.8896 Debye
        Dipole field         -0.0007 Ry au, 
 
        Potential amp.        0.0746 Ry
        Total length         54.7057 bohr
 
 
     Adding external electric field

     Computed dipole along edir(3) : 
        Dipole               -1.1369 Ry au,         -2.8896 Debye
        Dipole field         -0.0007 Ry au, 
 
        Potential amp.        0.0746 Ry
        Total length         54.7057 bohr
 

     total cpu time spent up to now is      194.8 secs

     total energy              =   -8078.91173569 Ry
     estimated scf accuracy    <      32.51387444 Ry

     total magnetization       =    69.92 Bohr mag/cell
     absolute magnetization    =    87.30 Bohr mag/cell

     iteration #  9     ecut=    50.00 Ry     beta= 0.10
     Davidson diagonalization with overlap
     ethr =  1.68E-03,  avg # of iterations =  1.0

     negative rho (up, down):  4.506E-04 6.836E-04
 
     Adding external electric field

     Computed dipole along edir(3) : 
        Dipole               -1.2921 Ry au,         -3.2843 Debye
        Dipole field         -0.0008 Ry au, 
 
        Potential amp.        0.0847 Ry
        Total length         54.7057 bohr
 
 
     Adding external electric field

     Computed dipole along edir(3) : 
        Dipole               -1.2921 Ry au,         -3.2843 Debye
        Dipole field         -0.0008 Ry au, 
 
        Potential amp.        0.0847 Ry
        Total length         54.7057 bohr
 

     total cpu time spent up to now is      212.1 secs

     total energy              =   -8078.69040945 Ry
     estimated scf accuracy    <      32.49601286 Ry

     total magnetization       =    69.90 Bohr mag/cell
     absolute magnetization    =    86.95 Bohr mag/cell

     iteration # 10     ecut=    50.00 Ry     beta= 0.10
     Davidson diagonalization with overlap
     ethr =  1.68E-03,  avg # of iterations =  1.0

     negative rho (up, down):  3.136E-02 3.740E-02
 
     Adding external electric field

     Computed dipole along edir(3) : 
        Dipole               -1.9484 Ry au,         -4.9523 Debye
        Dipole field         -0.0012 Ry au, 
 
        Potential amp.        0.1278 Ry
        Total length         54.7057 bohr
 
 
     Adding external electric field

     Computed dipole along edir(3) : 
        Dipole               -1.9484 Ry au,         -4.9523 Debye
        Dipole field         -0.0012 Ry au, 
 
        Potential amp.        0.1278 Ry
        Total length         54.7057 bohr
 

     total cpu time spent up to now is      229.2 secs

     total energy              =   -8077.79000688 Ry
     estimated scf accuracy    <      30.17889393 Ry

     total magnetization       =    70.02 Bohr mag/cell
     absolute magnetization    =    86.53 Bohr mag/cell

     iteration # 11     ecut=    50.00 Ry     beta= 0.10
     Davidson diagonalization with overlap
     ethr =  1.68E-03,  avg # of iterations =  1.0

     negative rho (up, down):  2.617E-02 2.883E-02
 
     Adding external electric field

     Computed dipole along edir(3) : 
        Dipole               -1.8982 Ry au,         -4.8248 Debye
        Dipole field         -0.0011 Ry au, 
 
        Potential amp.        0.1245 Ry
        Total length         54.7057 bohr
 
 
     Adding external electric field

     Computed dipole along edir(3) : 
        Dipole               -1.8982 Ry au,         -4.8248 Debye
        Dipole field         -0.0011 Ry au, 
 
        Potential amp.        0.1245 Ry
        Total length         54.7057 bohr
 

     total cpu time spent up to now is      247.0 secs

     total energy              =   -8078.08569795 Ry
     estimated scf accuracy    <       9.52795120 Ry

     total magnetization       =    85.27 Bohr mag/cell
     absolute magnetization    =    98.00 Bohr mag/cell

     iteration # 12     ecut=    50.00 Ry     beta= 0.10
     Davidson diagonalization with overlap
     ethr =  8.60E-04,  avg # of iterations =  2.0

     negative rho (up, down):  2.740E-02 2.871E-02
 
     Adding external electric field

     Computed dipole along edir(3) : 
        Dipole               -1.9315 Ry au,         -4.9094 Debye
        Dipole field         -0.0012 Ry au, 
 
        Potential amp.        0.1267 Ry
        Total length         54.7057 bohr
 
 
     Adding external electric field

     Computed dipole along edir(3) : 
        Dipole               -1.9315 Ry au,         -4.9094 Debye
        Dipole field         -0.0012 Ry au, 
 
        Potential amp.        0.1267 Ry
        Total length         54.7057 bohr
 

     total cpu time spent up to now is      266.3 secs

     total energy              =   -8078.07256212 Ry
     estimated scf accuracy    <       8.93780536 Ry

     total magnetization       =    86.22 Bohr mag/cell
     absolute magnetization    =    98.85 Bohr mag/cell

     iteration # 13     ecut=    50.00 Ry     beta= 0.10
     Davidson diagonalization with overlap
     ethr =  8.07E-04,  avg # of iterations =  1.0

     negative rho (up, down):  7.257E-02 7.721E-02
 
     Adding external electric field

     Computed dipole along edir(3) : 
        Dipole               -2.2757 Ry au,         -5.7841 Debye
        Dipole field         -0.0014 Ry au, 
 
        Potential amp.        0.1493 Ry
        Total length         54.7057 bohr
 
 
     Adding external electric field

     Computed dipole along edir(3) : 
        Dipole               -2.2757 Ry au,         -5.7841 Debye
        Dipole field         -0.0014 Ry au, 
 
        Potential amp.        0.1493 Ry
        Total length         54.7057 bohr
 

     total cpu time spent up to now is      282.7 secs

     total energy              =   -8077.97174320 Ry
     estimated scf accuracy    <       8.38073187 Ry

     total magnetization       =    88.01 Bohr mag/cell
     absolute magnetization    =   100.59 Bohr mag/cell

     iteration # 14     ecut=    50.00 Ry     beta= 0.10
     Davidson diagonalization with overlap
     ethr =  7.56E-04,  avg # of iterations =  1.5

     negative rho (up, down):  1.309E-01 1.277E-01
 
     Adding external electric field

     Computed dipole along edir(3) : 
        Dipole               -2.4785 Ry au,         -6.2998 Debye
        Dipole field         -0.0015 Ry au, 
 
        Potential amp.        0.1626 Ry
        Total length         54.7057 bohr
 
 
     Adding external electric field

     Computed dipole along edir(3) : 
        Dipole               -2.4785 Ry au,         -6.2998 Debye
        Dipole field         -0.0015 Ry au, 
 
        Potential amp.        0.1626 Ry
        Total length         54.7057 bohr
 

     total cpu time spent up to now is      301.1 secs

     total energy              =   -8078.10548446 Ry
     estimated scf accuracy    <       4.20741784 Ry

     total magnetization       =    93.93 Bohr mag/cell
     absolute magnetization    =   104.70 Bohr mag/cell

     iteration # 15     ecut=    50.00 Ry     beta= 0.10
     Davidson diagonalization with overlap
     ethr =  3.80E-04,  avg # of iterations =  2.0

     negative rho (up, down):  1.038E-01 1.095E-01
 
     Adding external electric field

     Computed dipole along edir(3) : 
        Dipole               -2.2545 Ry au,         -5.7303 Debye
        Dipole field         -0.0014 Ry au, 
 
        Potential amp.        0.1479 Ry
        Total length         54.7057 bohr
 
 
     Adding external electric field

     Computed dipole along edir(3) : 
        Dipole               -2.2545 Ry au,         -5.7303 Debye
        Dipole field         -0.0014 Ry au, 
 
        Potential amp.        0.1479 Ry
        Total length         54.7057 bohr
 

     total cpu time spent up to now is      320.0 secs

     total energy              =   -8078.19018884 Ry
     estimated scf accuracy    <       1.34139394 Ry

     total magnetization       =    99.43 Bohr mag/cell
     absolute magnetization    =   108.67 Bohr mag/cell

     iteration # 16     ecut=    50.00 Ry     beta= 0.10
     Davidson diagonalization with overlap
     ethr =  1.21E-04,  avg # of iterations = 12.5

     negative rho (up, down):  7.571E-02 8.050E-02
 
     Adding external electric field

     Computed dipole along edir(3) : 
        Dipole               -1.9521 Ry au,         -4.9618 Debye
        Dipole field         -0.0012 Ry au, 
 
        Potential amp.        0.1280 Ry
        Total length         54.7057 bohr
 
 
     Adding external electric field

     Computed dipole along edir(3) : 
        Dipole               -1.9521 Ry au,         -4.9618 Debye
        Dipole field         -0.0012 Ry au, 
 
        Potential amp.        0.1280 Ry
        Total length         54.7057 bohr
 

     total cpu time spent up to now is      351.2 secs

     total energy              =   -8078.24042915 Ry
     estimated scf accuracy    <       1.06793573 Ry

     total magnetization       =    97.98 Bohr mag/cell
     absolute magnetization    =   106.34 Bohr mag/cell

     iteration # 17     ecut=    50.00 Ry     beta= 0.10
     Davidson diagonalization with overlap
     ethr =  9.64E-05,  avg # of iterations =  1.5

     negative rho (up, down):  5.444E-02 5.891E-02
 
     Adding external electric field

     Computed dipole along edir(3) : 
        Dipole               -1.5532 Ry au,         -3.9479 Debye
        Dipole field         -0.0009 Ry au, 
 
        Potential amp.        0.1019 Ry
        Total length         54.7057 bohr
 
 
     Adding external electric field

     Computed dipole along edir(3) : 
        Dipole               -1.5532 Ry au,         -3.9479 Debye
        Dipole field         -0.0009 Ry au, 
 
        Potential amp.        0.1019 Ry
        Total length         54.7057 bohr
 

     total cpu time spent up to now is      369.4 secs

     total energy              =   -8078.37315854 Ry
     estimated scf accuracy    <       0.71123103 Ry

     total magnetization       =    96.92 Bohr mag/cell
     absolute magnetization    =   104.53 Bohr mag/cell

     iteration # 18     ecut=    50.00 Ry     beta= 0.10
     Davidson diagonalization with overlap
     ethr =  6.42E-05,  avg # of iterations =  2.5

     negative rho (up, down):  4.834E-02 5.330E-02
 
     Adding external electric field

     Computed dipole along edir(3) : 
        Dipole               -1.5383 Ry au,         -3.9100 Debye
        Dipole field         -0.0009 Ry au, 
 
        Potential amp.        0.1009 Ry
        Total length         54.7057 bohr
 
 
     Adding external electric field

     Computed dipole along edir(3) : 
        Dipole               -1.5383 Ry au,         -3.9100 Debye
        Dipole field         -0.0009 Ry au, 
 
        Potential amp.        0.1009 Ry
        Total length         54.7057 bohr
 

     total cpu time spent up to now is      389.0 secs

     total energy              =   -8078.38095721 Ry
     estimated scf accuracy    <       0.87834702 Ry

     total magnetization       =    96.99 Bohr mag/cell
     absolute magnetization    =   102.51 Bohr mag/cell

     iteration # 19     ecut=    50.00 Ry     beta= 0.10
     Davidson diagonalization with overlap
     ethr =  6.42E-05,  avg # of iterations =  1.0

     negative rho (up, down):  4.860E-02 5.292E-02
 
     Adding external electric field

     Computed dipole along edir(3) : 
        Dipole               -1.3824 Ry au,         -3.5137 Debye
        Dipole field         -0.0008 Ry au, 
 
        Potential amp.        0.0907 Ry
        Total length         54.7057 bohr
 
 
     Adding external electric field

     Computed dipole along edir(3) : 
        Dipole               -1.3824 Ry au,         -3.5137 Debye
        Dipole field         -0.0008 Ry au, 
 
        Potential amp.        0.0907 Ry
        Total length         54.7057 bohr
 

     total cpu time spent up to now is      405.7 secs

     total energy              =   -8078.43953597 Ry
     estimated scf accuracy    <       0.83062742 Ry

     total magnetization       =    96.36 Bohr mag/cell
     absolute magnetization    =   101.97 Bohr mag/cell

     iteration # 20     ecut=    50.00 Ry     beta= 0.10
     Davidson diagonalization with overlap
     ethr =  6.42E-05,  avg # of iterations =  1.5

     negative rho (up, down):  1.812E-02 2.282E-02
 
     Adding external electric field

     Computed dipole along edir(3) : 
        Dipole               -1.1136 Ry au,         -2.8304 Debye
        Dipole field         -0.0007 Ry au, 
 
        Potential amp.        0.0730 Ry
        Total length         54.7057 bohr
 
 
     Adding external electric field

     Computed dipole along edir(3) : 
        Dipole               -1.1136 Ry au,         -2.8304 Debye
        Dipole field         -0.0007 Ry au, 
 
        Potential amp.        0.0730 Ry
        Total length         54.7057 bohr
 

     total cpu time spent up to now is      423.5 secs

     total energy              =   -8078.48311602 Ry
     estimated scf accuracy    <       2.51775216 Ry

     total magnetization       =    94.38 Bohr mag/cell
     absolute magnetization    =    99.54 Bohr mag/cell

     iteration # 21     ecut=    50.00 Ry     beta= 0.10
     Davidson diagonalization with overlap
     ethr =  6.42E-05,  avg # of iterations =  1.5

     negative rho (up, down):  2.284E-02 2.856E-02
 
     Adding external electric field

     Computed dipole along edir(3) : 
        Dipole               -1.1653 Ry au,         -2.9618 Debye
        Dipole field         -0.0007 Ry au, 
 
        Potential amp.        0.0764 Ry
        Total length         54.7057 bohr
 
 
     Adding external electric field

     Computed dipole along edir(3) : 
        Dipole               -1.1653 Ry au,         -2.9618 Debye
        Dipole field         -0.0007 Ry au, 
 
        Potential amp.        0.0764 Ry
        Total length         54.7057 bohr
 

     total cpu time spent up to now is      441.4 secs

     total energy              =   -8078.49097920 Ry
     estimated scf accuracy    <       5.35795298 Ry

     total magnetization       =    91.52 Bohr mag/cell
     absolute magnetization    =    96.10 Bohr mag/cell

     iteration # 22     ecut=    50.00 Ry     beta= 0.10
     Davidson diagonalization with overlap
     ethr =  6.42E-05,  avg # of iterations =  1.0

     negative rho (up, down):  1.959E-02 2.598E-02
 
     Adding external electric field

     Computed dipole along edir(3) : 
        Dipole               -1.2235 Ry au,         -3.1098 Debye
        Dipole field         -0.0007 Ry au, 
 
        Potential amp.        0.0802 Ry
        Total length         54.7057 bohr
 
 
     Adding external electric field

     Computed dipole along edir(3) : 
        Dipole               -1.2235 Ry au,         -3.1098 Debye
        Dipole field         -0.0007 Ry au, 
 
        Potential amp.        0.0802 Ry
        Total length         54.7057 bohr
 

     total cpu time spent up to now is      457.7 secs

     total energy              =   -8078.45745451 Ry
     estimated scf accuracy    <       4.73145634 Ry

     total magnetization       =    91.87 Bohr mag/cell
     absolute magnetization    =    96.35 Bohr mag/cell

     iteration # 23     ecut=    50.00 Ry     beta= 0.10
     Davidson diagonalization with overlap
     ethr =  6.42E-05,  avg # of iterations =  1.5

     negative rho (up, down):  2.188E-02 2.766E-02
 
     Adding external electric field

     Computed dipole along edir(3) : 
        Dipole               -1.2077 Ry au,         -3.0697 Debye
        Dipole field         -0.0007 Ry au, 
 
        Potential amp.        0.0792 Ry
        Total length         54.7057 bohr
 
 
     Adding external electric field

     Computed dipole along edir(3) : 
        Dipole               -1.2077 Ry au,         -3.0697 Debye
        Dipole field         -0.0007 Ry au, 
 
        Potential amp.        0.0792 Ry
        Total length         54.7057 bohr
 

     total cpu time spent up to now is      475.7 secs

     total energy              =   -8078.47660132 Ry
     estimated scf accuracy    <       3.49652098 Ry

     total magnetization       =    92.13 Bohr mag/cell
     absolute magnetization    =    96.62 Bohr mag/cell

     iteration # 24     ecut=    50.00 Ry     beta= 0.10
     Davidson diagonalization with overlap
     ethr =  6.42E-05,  avg # of iterations =  1.0

     negative rho (up, down):  3.642E-02 4.023E-02
 
     Adding external electric field

     Computed dipole along edir(3) : 
        Dipole               -1.4748 Ry au,         -3.7486 Debye
        Dipole field         -0.0009 Ry au, 
 
        Potential amp.        0.0967 Ry
        Total length         54.7057 bohr
 
 
     Adding external electric field

     Computed dipole along edir(3) : 
        Dipole               -1.4748 Ry au,         -3.7486 Debye
        Dipole field         -0.0009 Ry au, 
 
        Potential amp.        0.0967 Ry
        Total length         54.7057 bohr
 

     total cpu time spent up to now is      492.2 secs

     total energy              =   -8078.38386350 Ry
     estimated scf accuracy    <       3.86245703 Ry

     total magnetization       =    92.15 Bohr mag/cell
     absolute magnetization    =    96.57 Bohr mag/cell

     iteration # 25     ecut=    50.00 Ry     beta= 0.10
     Davidson diagonalization with overlap
     ethr =  6.42E-05,  avg # of iterations =  1.5

     negative rho (up, down):  1.861E-02 1.958E-02
 
     Adding external electric field

     Computed dipole along edir(3) : 
        Dipole               -1.3787 Ry au,         -3.5042 Debye
        Dipole field         -0.0008 Ry au, 
 
        Potential amp.        0.0904 Ry
        Total length         54.7057 bohr
 
 
     Adding external electric field

     Computed dipole along edir(3) : 
        Dipole               -1.3787 Ry au,         -3.5042 Debye
        Dipole field         -0.0008 Ry au, 
 
        Potential amp.        0.0904 Ry
        Total length         54.7057 bohr
 

     total cpu time spent up to now is      510.1 secs

     total energy              =   -8078.44992372 Ry
     estimated scf accuracy    <       0.66087262 Ry

     total magnetization       =    96.14 Bohr mag/cell
     absolute magnetization    =   101.10 Bohr mag/cell

     iteration # 26     ecut=    50.00 Ry     beta= 0.10
     Davidson diagonalization with overlap
     ethr =  5.96E-05,  avg # of iterations =  1.0

     negative rho (up, down):  1.267E-02 1.297E-02
 
     Adding external electric field

     Computed dipole along edir(3) : 
        Dipole               -1.2914 Ry au,         -3.2824 Debye
        Dipole field         -0.0008 Ry au, 
 
        Potential amp.        0.0847 Ry
        Total length         54.7057 bohr
 
 
     Adding external electric field

     Computed dipole along edir(3) : 
        Dipole               -1.2914 Ry au,         -3.2824 Debye
        Dipole field         -0.0008 Ry au, 
 
        Potential amp.        0.0847 Ry
        Total length         54.7057 bohr
 

     total cpu time spent up to now is      527.0 secs

     total energy              =   -8078.48428428 Ry
     estimated scf accuracy    <       0.33682467 Ry

     total magnetization       =    96.66 Bohr mag/cell
     absolute magnetization    =   101.20 Bohr mag/cell

     iteration # 27     ecut=    50.00 Ry     beta= 0.10
     Davidson diagonalization with overlap
     ethr =  3.04E-05,  avg # of iterations =  2.0

     negative rho (up, down):  5.676E-04 3.799E-04
 
     Adding external electric field

     Computed dipole along edir(3) : 
        Dipole               -0.9606 Ry au,         -2.4415 Debye
        Dipole field         -0.0006 Ry au, 
 
        Potential amp.        0.0630 Ry
        Total length         54.7057 bohr
 
 
     Adding external electric field

     Computed dipole along edir(3) : 
        Dipole               -0.9606 Ry au,         -2.4415 Debye
        Dipole field         -0.0006 Ry au, 
 
        Potential amp.        0.0630 Ry
        Total length         54.7057 bohr
 

     total cpu time spent up to now is      545.8 secs

     total energy              =   -8078.53436619 Ry
     estimated scf accuracy    <       0.26884191 Ry

     total magnetization       =    96.93 Bohr mag/cell
     absolute magnetization    =   100.86 Bohr mag/cell

     iteration # 28     ecut=    50.00 Ry     beta= 0.10
     Davidson diagonalization with overlap
     ethr =  2.43E-05,  avg # of iterations =  2.0

     negative rho (up, down):  4.748E-04 3.693E-04
 
     Adding external electric field

     Computed dipole along edir(3) : 
        Dipole               -0.8376 Ry au,         -2.1290 Debye
        Dipole field         -0.0005 Ry au, 
 
        Potential amp.        0.0549 Ry
        Total length         54.7057 bohr
 
 
     Adding external electric field

     Computed dipole along edir(3) : 
        Dipole               -0.8376 Ry au,         -2.1290 Debye
        Dipole field         -0.0005 Ry au, 
 
        Potential amp.        0.0549 Ry
        Total length         54.7057 bohr
 

     total cpu time spent up to now is      564.7 secs

     total energy              =   -8078.55584550 Ry
     estimated scf accuracy    <       0.29553436 Ry

     total magnetization       =    96.84 Bohr mag/cell
     absolute magnetization    =    99.22 Bohr mag/cell

     iteration # 29     ecut=    50.00 Ry     beta= 0.10
     Davidson diagonalization with overlap
     ethr =  2.43E-05,  avg # of iterations =  1.5

     negative rho (up, down):  3.155E-03 2.973E-03
 
     Adding external electric field

     Computed dipole along edir(3) : 
        Dipole               -0.7854 Ry au,         -1.9962 Debye
        Dipole field         -0.0005 Ry au, 
 
        Potential amp.        0.0515 Ry
        Total length         54.7057 bohr
 
 
     Adding external electric field

     Computed dipole along edir(3) : 
        Dipole               -0.7854 Ry au,         -1.9962 Debye
        Dipole field         -0.0005 Ry au, 
 
        Potential amp.        0.0515 Ry
        Total length         54.7057 bohr
 

     total cpu time spent up to now is      582.3 secs

     total energy              =   -8078.55004979 Ry
     estimated scf accuracy    <       0.29953070 Ry

     total magnetization       =    96.41 Bohr mag/cell
     absolute magnetization    =    98.14 Bohr mag/cell

     iteration # 30     ecut=    50.00 Ry     beta= 0.10
     Davidson diagonalization with overlap
     ethr =  2.43E-05,  avg # of iterations =  2.0

     negative rho (up, down):  3.362E-03 3.107E-03
 
     Adding external electric field

     Computed dipole along edir(3) : 
        Dipole               -0.7781 Ry au,         -1.9777 Debye
        Dipole field         -0.0005 Ry au, 
 
        Potential amp.        0.0510 Ry
        Total length         54.7057 bohr
 
 
     Adding external electric field

     Computed dipole along edir(3) : 
        Dipole               -0.7781 Ry au,         -1.9777 Debye
        Dipole field         -0.0005 Ry au, 
 
        Potential amp.        0.0510 Ry
        Total length         54.7057 bohr
 

     total cpu time spent up to now is      601.2 secs

     total energy              =   -8078.55943794 Ry
     estimated scf accuracy    <       0.16568627 Ry

     total magnetization       =    96.97 Bohr mag/cell
     absolute magnetization    =    98.29 Bohr mag/cell

     iteration # 31     ecut=    50.00 Ry     beta= 0.10
     Davidson diagonalization with overlap
     ethr =  1.50E-05,  avg # of iterations =  2.0

     negative rho (up, down):  2.696E-03 2.346E-03
 
     Adding external electric field

     Computed dipole along edir(3) : 
        Dipole               -0.7084 Ry au,         -1.8006 Debye
        Dipole field         -0.0004 Ry au, 
 
        Potential amp.        0.0465 Ry
        Total length         54.7057 bohr
 
 
     Adding external electric field

     Computed dipole along edir(3) : 
        Dipole               -0.7084 Ry au,         -1.8006 Debye
        Dipole field         -0.0004 Ry au, 
 
        Potential amp.        0.0465 Ry
        Total length         54.7057 bohr
 

     total cpu time spent up to now is      620.5 secs

     total energy              =   -8078.55772997 Ry
     estimated scf accuracy    <       0.12170574 Ry

     total magnetization       =    97.04 Bohr mag/cell
     absolute magnetization    =    98.37 Bohr mag/cell

     iteration # 32     ecut=    50.00 Ry     beta= 0.10
     Davidson diagonalization with overlap
     c_bands:  1 eigenvalues not converged
     ethr =  1.10E-05,  avg # of iterations = 32.0

     negative rho (up, down):  2.303E-03 2.053E-03
 
     Adding external electric field

     Computed dipole along edir(3) : 
        Dipole               -0.6023 Ry au,         -1.5310 Debye
        Dipole field         -0.0004 Ry au, 
 
        Potential amp.        0.0395 Ry
        Total length         54.7057 bohr
 
 
     Adding external electric field

     Computed dipole along edir(3) : 
        Dipole               -0.6023 Ry au,         -1.5310 Debye
        Dipole field         -0.0004 Ry au, 
 
        Potential amp.        0.0395 Ry
        Total length         54.7057 bohr
 

     total cpu time spent up to now is      678.9 secs

     total energy              =   -8078.55677521 Ry
     estimated scf accuracy    <       0.07316052 Ry

     total magnetization       =    97.05 Bohr mag/cell
     absolute magnetization    =    98.41 Bohr mag/cell

     iteration # 33     ecut=    50.00 Ry     beta= 0.10
     Davidson diagonalization with overlap
     ethr =  6.60E-06,  avg # of iterations =  2.5

     negative rho (up, down):  3.552E-03 3.410E-03
 
     Adding external electric field

     Computed dipole along edir(3) : 
        Dipole               -0.5256 Ry au,         -1.3358 Debye
        Dipole field         -0.0003 Ry au, 
 
        Potential amp.        0.0345 Ry
        Total length         54.7057 bohr
 
 
     Adding external electric field

     Computed dipole along edir(3) : 
        Dipole               -0.5256 Ry au,         -1.3358 Debye
        Dipole field         -0.0003 Ry au, 
 
        Potential amp.        0.0345 Ry
        Total length         54.7057 bohr
 

     total cpu time spent up to now is      698.5 secs

     total energy              =   -8078.55699050 Ry
     estimated scf accuracy    <       0.06045275 Ry

     total magnetization       =    96.90 Bohr mag/cell
     absolute magnetization    =    98.33 Bohr mag/cell

     iteration # 34     ecut=    50.00 Ry     beta= 0.10
     Davidson diagonalization with overlap
     c_bands:  2 eigenvalues not converged
     ethr =  5.46E-06,  avg # of iterations = 11.0

     negative rho (up, down):  3.616E-03 3.585E-03
 
     Adding external electric field

     Computed dipole along edir(3) : 
        Dipole               -0.4556 Ry au,         -1.1580 Debye
        Dipole field         -0.0003 Ry au, 
 
        Potential amp.        0.0299 Ry
        Total length         54.7057 bohr
 
 
     Adding external electric field

     Computed dipole along edir(3) : 
        Dipole               -0.4556 Ry au,         -1.1580 Debye
        Dipole field         -0.0003 Ry au, 
 
        Potential amp.        0.0299 Ry
        Total length         54.7057 bohr
 

     total cpu time spent up to now is      724.1 secs

     total energy              =   -8078.55654523 Ry
     estimated scf accuracy    <       0.05180383 Ry

     total magnetization       =    96.96 Bohr mag/cell
     absolute magnetization    =    98.41 Bohr mag/cell

     iteration # 35     ecut=    50.00 Ry     beta= 0.10
     Davidson diagonalization with overlap
     ethr =  4.68E-06,  avg # of iterations =  3.5

     negative rho (up, down):  3.726E-03 4.088E-03
 
     Adding external electric field

     Computed dipole along edir(3) : 
        Dipole               -0.3534 Ry au,         -0.8983 Debye
        Dipole field         -0.0002 Ry au, 
 
        Potential amp.        0.0232 Ry
        Total length         54.7057 bohr
 
 
     Adding external electric field

     Computed dipole along edir(3) : 
        Dipole               -0.3534 Ry au,         -0.8983 Debye
        Dipole field         -0.0002 Ry au, 
 
        Potential amp.        0.0232 Ry
        Total length         54.7057 bohr
 

     total cpu time spent up to now is      745.6 secs

     total energy              =   -8078.55632640 Ry
     estimated scf accuracy    <       0.04617006 Ry

     total magnetization       =    97.01 Bohr mag/cell
     absolute magnetization    =    98.47 Bohr mag/cell

     iteration # 36     ecut=    50.00 Ry     beta= 0.10
     Davidson diagonalization with overlap
     ethr =  4.17E-06,  avg # of iterations =  2.0

     negative rho (up, down):  4.527E-03 6.022E-03
 
     Adding external electric field

     Computed dipole along edir(3) : 
        Dipole               -0.0573 Ry au,         -0.1456 Debye
        Dipole field         -0.0000 Ry au, 
 
        Potential amp.        0.0038 Ry
        Total length         54.7057 bohr
 
 
     Adding external electric field

     Computed dipole along edir(3) : 
        Dipole               -0.0573 Ry au,         -0.1456 Debye
        Dipole field         -0.0000 Ry au, 
 
        Potential amp.        0.0038 Ry
        Total length         54.7057 bohr
 

     total cpu time spent up to now is      765.2 secs

     total energy              =   -8078.55301166 Ry
     estimated scf accuracy    <       0.03999116 Ry

     total magnetization       =    96.82 Bohr mag/cell
     absolute magnetization    =    98.28 Bohr mag/cell

     iteration # 37     ecut=    50.00 Ry     beta= 0.10
     Davidson diagonalization with overlap
     ethr =  3.61E-06,  avg # of iterations = 31.0

     negative rho (up, down):  4.730E-03 6.664E-03
 
     Adding external electric field

     Computed dipole along edir(3) : 
        Dipole                0.0336 Ry au,          0.0855 Debye
        Dipole field          0.0000 Ry au, 
 
        Potential amp.       -0.0022 Ry
        Total length         54.7057 bohr
 
 
     Adding external electric field

     Computed dipole along edir(3) : 
        Dipole                0.0336 Ry au,          0.0855 Debye
        Dipole field          0.0000 Ry au, 
 
        Potential amp.       -0.0022 Ry
        Total length         54.7057 bohr
 

     total cpu time spent up to now is      823.6 secs

     total energy              =   -8078.55433765 Ry
     estimated scf accuracy    <       0.02687033 Ry

     total magnetization       =    96.93 Bohr mag/cell
     absolute magnetization    =    98.32 Bohr mag/cell

     iteration # 38     ecut=    50.00 Ry     beta= 0.10
     Davidson diagonalization with overlap
     ethr =  2.43E-06,  avg # of iterations =  3.0

     negative rho (up, down):  4.447E-03 6.581E-03
 
     Adding external electric field

     Computed dipole along edir(3) : 
        Dipole                0.1565 Ry au,          0.3977 Debye
        Dipole field          0.0001 Ry au, 
 
        Potential amp.       -0.0103 Ry
        Total length         54.7057 bohr
 
 
     Adding external electric field

     Computed dipole along edir(3) : 
        Dipole                0.1565 Ry au,          0.3977 Debye
        Dipole field          0.0001 Ry au, 
 
        Potential amp.       -0.0103 Ry
        Total length         54.7057 bohr
 

     total cpu time spent up to now is      844.1 secs

     total energy              =   -8078.55456224 Ry
     estimated scf accuracy    <       0.01933629 Ry

     total magnetization       =    96.81 Bohr mag/cell
     absolute magnetization    =    98.13 Bohr mag/cell

     iteration # 39     ecut=    50.00 Ry     beta= 0.10
     Davidson diagonalization with overlap
     ethr =  1.75E-06,  avg # of iterations =  2.0

     negative rho (up, down):  4.070E-03 5.659E-03
 
     Adding external electric field

     Computed dipole along edir(3) : 
        Dipole                0.2744 Ry au,          0.6975 Debye
        Dipole field          0.0002 Ry au, 
 
        Potential amp.       -0.0180 Ry
        Total length         54.7057 bohr
 
 
     Adding external electric field

     Computed dipole along edir(3) : 
        Dipole                0.2744 Ry au,          0.6975 Debye
        Dipole field          0.0002 Ry au, 
 
        Potential amp.       -0.0180 Ry
        Total length         54.7057 bohr
 

     total cpu time spent up to now is      863.3 secs

     total energy              =   -8078.55471738 Ry
     estimated scf accuracy    <       0.01477109 Ry

     total magnetization       =    96.89 Bohr mag/cell
     absolute magnetization    =    98.12 Bohr mag/cell

     iteration # 40     ecut=    50.00 Ry     beta= 0.10
     Davidson diagonalization with overlap
     ethr =  1.33E-06,  avg # of iterations =  2.0

     negative rho (up, down):  1.886E-03 2.008E-03
 
     Adding external electric field

     Computed dipole along edir(3) : 
        Dipole                0.2483 Ry au,          0.6312 Debye
        Dipole field          0.0001 Ry au, 
 
        Potential amp.       -0.0163 Ry
        Total length         54.7057 bohr
 
 
     Adding external electric field

     Computed dipole along edir(3) : 
        Dipole                0.2483 Ry au,          0.6312 Debye
        Dipole field          0.0001 Ry au, 
 
        Potential amp.       -0.0163 Ry
        Total length         54.7057 bohr
 

     total cpu time spent up to now is      882.9 secs

     total energy              =   -8078.55487133 Ry
     estimated scf accuracy    <       0.00951801 Ry

     total magnetization       =    96.99 Bohr mag/cell
     absolute magnetization    =    98.15 Bohr mag/cell

     iteration # 41     ecut=    50.00 Ry     beta= 0.10
     Davidson diagonalization with overlap
     ethr =  8.59E-07,  avg # of iterations =  2.0

     negative rho (up, down):  1.746E-03 1.573E-03
 
     Adding external electric field

     Computed dipole along edir(3) : 
        Dipole                0.3079 Ry au,          0.7826 Debye
        Dipole field          0.0002 Ry au, 
 
        Potential amp.       -0.0202 Ry
        Total length         54.7057 bohr
 
 
     Adding external electric field

     Computed dipole along edir(3) : 
        Dipole                0.3079 Ry au,          0.7826 Debye
        Dipole field          0.0002 Ry au, 
 
        Potential amp.       -0.0202 Ry
        Total length         54.7057 bohr
 

     total cpu time spent up to now is      902.4 secs

     total energy              =   -8078.55467236 Ry
     estimated scf accuracy    <       0.00675970 Ry

     total magnetization       =    97.11 Bohr mag/cell
     absolute magnetization    =    98.30 Bohr mag/cell

     iteration # 42     ecut=    50.00 Ry     beta= 0.10
     Davidson diagonalization with overlap
     ethr =  6.10E-07,  avg # of iterations =  2.0

     negative rho (up, down):  1.527E-03 1.197E-03
 
     Adding external electric field

     Computed dipole along edir(3) : 
        Dipole                0.3394 Ry au,          0.8628 Debye
        Dipole field          0.0002 Ry au, 
 
        Potential amp.       -0.0223 Ry
        Total length         54.7057 bohr
 
 
     Adding external electric field

     Computed dipole along edir(3) : 
        Dipole                0.3394 Ry au,          0.8628 Debye
        Dipole field          0.0002 Ry au, 
 
        Potential amp.       -0.0223 Ry
        Total length         54.7057 bohr
 

     total cpu time spent up to now is      921.7 secs

     total energy              =   -8078.55447357 Ry
     estimated scf accuracy    <       0.00488010 Ry

     total magnetization       =    97.13 Bohr mag/cell
     absolute magnetization    =    98.34 Bohr mag/cell

     iteration # 43     ecut=    50.00 Ry     beta= 0.10
     Davidson diagonalization with overlap
     ethr =  4.40E-07,  avg # of iterations =  2.0

     negative rho (up, down):  3.004E-04 1.932E-04
 
     Adding external electric field

     Computed dipole along edir(3) : 
        Dipole                0.2616 Ry au,          0.6648 Debye
        Dipole field          0.0002 Ry au, 
 
        Potential amp.       -0.0172 Ry
        Total length         54.7057 bohr
 
 
     Adding external electric field

     Computed dipole along edir(3) : 
        Dipole                0.2616 Ry au,          0.6648 Debye
        Dipole field          0.0002 Ry au, 
 
        Potential amp.       -0.0172 Ry
        Total length         54.7057 bohr
 

     total cpu time spent up to now is      940.3 secs

     total energy              =   -8078.55447745 Ry
     estimated scf accuracy    <       0.00379773 Ry

     total magnetization       =    97.14 Bohr mag/cell
     absolute magnetization    =    98.36 Bohr mag/cell

     iteration # 44     ecut=    50.00 Ry     beta= 0.10
     Davidson diagonalization with overlap
     ethr =  3.43E-07,  avg # of iterations =  2.0

     negative rho (up, down):  6.697E-05 4.826E-05
 
     Adding external electric field

     Computed dipole along edir(3) : 
        Dipole                0.2128 Ry au,          0.5408 Debye
        Dipole field          0.0001 Ry au, 
 
        Potential amp.       -0.0140 Ry
        Total length         54.7057 bohr
 
 
     Adding external electric field

     Computed dipole along edir(3) : 
        Dipole                0.2128 Ry au,          0.5408 Debye
        Dipole field          0.0001 Ry au, 
 
        Potential amp.       -0.0140 Ry
        Total length         54.7057 bohr
 

     total cpu time spent up to now is      959.5 secs

     total energy              =   -8078.55458961 Ry
     estimated scf accuracy    <       0.00311499 Ry

     total magnetization       =    97.12 Bohr mag/cell
     absolute magnetization    =    98.38 Bohr mag/cell

     iteration # 45     ecut=    50.00 Ry     beta= 0.10
     Davidson diagonalization with overlap
     ethr =  2.81E-07,  avg # of iterations =  2.0

     negative rho (up, down):  6.088E-05 4.741E-05
 
     Adding external electric field

     Computed dipole along edir(3) : 
        Dipole                0.2094 Ry au,          0.5322 Debye
        Dipole field          0.0001 Ry au, 
 
        Potential amp.       -0.0137 Ry
        Total length         54.7057 bohr
 
 
     Adding external electric field

     Computed dipole along edir(3) : 
        Dipole                0.2094 Ry au,          0.5322 Debye
        Dipole field          0.0001 Ry au, 
 
        Potential amp.       -0.0137 Ry
        Total length         54.7057 bohr
 

     total cpu time spent up to now is      977.9 secs

     total energy              =   -8078.55462545 Ry
     estimated scf accuracy    <       0.00259889 Ry

     total magnetization       =    97.09 Bohr mag/cell
     absolute magnetization    =    98.38 Bohr mag/cell

     iteration # 46     ecut=    50.00 Ry     beta= 0.10
     Davidson diagonalization with overlap
     ethr =  2.35E-07,  avg # of iterations =  1.0

     negative rho (up, down):  3.213E-05 1.954E-05
 
     Adding external electric field

     Computed dipole along edir(3) : 
        Dipole                0.2019 Ry au,          0.5131 Debye
        Dipole field          0.0001 Ry au, 
 
        Potential amp.       -0.0132 Ry
        Total length         54.7057 bohr
 
 
     Adding external electric field

     Computed dipole along edir(3) : 
        Dipole                0.2019 Ry au,          0.5131 Debye
        Dipole field          0.0001 Ry au, 
 
        Potential amp.       -0.0132 Ry
        Total length         54.7057 bohr
 

     total cpu time spent up to now is      994.5 secs

     total energy              =   -8078.55463690 Ry
     estimated scf accuracy    <       0.00245336 Ry

     total magnetization       =    97.08 Bohr mag/cell
     absolute magnetization    =    98.38 Bohr mag/cell

     iteration # 47     ecut=    50.00 Ry     beta= 0.10
     Davidson diagonalization with overlap
     ethr =  2.21E-07,  avg # of iterations =  2.0

     negative rho (up, down):  6.624E-06 2.149E-06
 
     Adding external electric field

     Computed dipole along edir(3) : 
        Dipole                0.1890 Ry au,          0.4803 Debye
        Dipole field          0.0001 Ry au, 
 
        Potential amp.       -0.0124 Ry
        Total length         54.7057 bohr
 
 
     Adding external electric field

     Computed dipole along edir(3) : 
        Dipole                0.1890 Ry au,          0.4803 Debye
        Dipole field          0.0001 Ry au, 
 
        Potential amp.       -0.0124 Ry
        Total length         54.7057 bohr
 

     total cpu time spent up to now is     1011.9 secs

     total energy              =   -8078.55476049 Ry
     estimated scf accuracy    <       0.00217297 Ry

     total magnetization       =    97.09 Bohr mag/cell
     absolute magnetization    =    98.37 Bohr mag/cell

     iteration # 48     ecut=    50.00 Ry     beta= 0.10
     Davidson diagonalization with overlap
     ethr =  1.96E-07,  avg # of iterations =  2.0

     negative rho (up, down):  3.179E-06 1.413E-06
 
     Adding external electric field

     Computed dipole along edir(3) : 
        Dipole                0.1648 Ry au,          0.4188 Debye
        Dipole field          0.0001 Ry au, 
 
        Potential amp.       -0.0108 Ry
        Total length         54.7057 bohr
 
 
     Adding external electric field

     Computed dipole along edir(3) : 
        Dipole                0.1648 Ry au,          0.4188 Debye
        Dipole field          0.0001 Ry au, 
 
        Potential amp.       -0.0108 Ry
        Total length         54.7057 bohr
 

     total cpu time spent up to now is     1030.3 secs

     total energy              =   -8078.55488898 Ry
     estimated scf accuracy    <       0.00149351 Ry

     total magnetization       =    97.09 Bohr mag/cell
     absolute magnetization    =    98.33 Bohr mag/cell

     iteration # 49     ecut=    50.00 Ry     beta= 0.10
     Davidson diagonalization with overlap
     ethr =  1.35E-07,  avg # of iterations =  2.0

     negative rho (up, down):  3.077E-05 2.117E-05
 
     Adding external electric field

     Computed dipole along edir(3) : 
        Dipole                0.2050 Ry au,          0.5211 Debye
        Dipole field          0.0001 Ry au, 
 
        Potential amp.       -0.0134 Ry
        Total length         54.7057 bohr
 
 
     Adding external electric field

     Computed dipole along edir(3) : 
        Dipole                0.2050 Ry au,          0.5211 Debye
        Dipole field          0.0001 Ry au, 
 
        Potential amp.       -0.0134 Ry
        Total length         54.7057 bohr
 

     total cpu time spent up to now is     1048.6 secs

     total energy              =   -8078.55493716 Ry
     estimated scf accuracy    <       0.00118040 Ry

     total magnetization       =    97.06 Bohr mag/cell
     absolute magnetization    =    98.29 Bohr mag/cell

     iteration # 50     ecut=    50.00 Ry     beta= 0.10
     Davidson diagonalization with overlap
     ethr =  1.07E-07,  avg # of iterations =  4.0

     negative rho (up, down):  6.461E-05 4.552E-05
 
     Adding external electric field

     Computed dipole along edir(3) : 
        Dipole                0.2380 Ry au,          0.6050 Debye
        Dipole field          0.0001 Ry au, 
 
        Potential amp.       -0.0156 Ry
        Total length         54.7057 bohr
 
 
     Adding external electric field

     Computed dipole along edir(3) : 
        Dipole                0.2380 Ry au,          0.6050 Debye
        Dipole field          0.0001 Ry au, 
 
        Potential amp.       -0.0156 Ry
        Total length         54.7057 bohr
 

     total cpu time spent up to now is     1068.2 secs

     total energy              =   -8078.55498478 Ry
     estimated scf accuracy    <       0.00081251 Ry

     total magnetization       =    97.05 Bohr mag/cell
     absolute magnetization    =    98.25 Bohr mag/cell

     iteration # 51     ecut=    50.00 Ry     beta= 0.10
     Davidson diagonalization with overlap
     ethr =  7.33E-08,  avg # of iterations =  2.0

     negative rho (up, down):  4.142E-05 1.886E-05
 
     Adding external electric field

     Computed dipole along edir(3) : 
        Dipole                0.2424 Ry au,          0.6161 Debye
        Dipole field          0.0001 Ry au, 
 
        Potential amp.       -0.0159 Ry
        Total length         54.7057 bohr
 
 
     Adding external electric field

     Computed dipole along edir(3) : 
        Dipole                0.2424 Ry au,          0.6161 Debye
        Dipole field          0.0001 Ry au, 
 
        Potential amp.       -0.0159 Ry
        Total length         54.7057 bohr
 

     total cpu time spent up to now is     1087.0 secs

     total energy              =   -8078.55503526 Ry
     estimated scf accuracy    <       0.00065862 Ry

     total magnetization       =    97.04 Bohr mag/cell
     absolute magnetization    =    98.23 Bohr mag/cell

     iteration # 52     ecut=    50.00 Ry     beta= 0.10
     Davidson diagonalization with overlap
     ethr =  5.94E-08,  avg # of iterations =  2.0

     negative rho (up, down):  1.702E-04 9.008E-05
 
     Adding external electric field

     Computed dipole along edir(3) : 
        Dipole                0.2567 Ry au,          0.6524 Debye
        Dipole field          0.0002 Ry au, 
 
        Potential amp.       -0.0168 Ry
        Total length         54.7057 bohr
 
 
     Adding external electric field

     Computed dipole along edir(3) : 
        Dipole                0.2567 Ry au,          0.6524 Debye
        Dipole field          0.0002 Ry au, 
 
        Potential amp.       -0.0168 Ry
        Total length         54.7057 bohr
 

     total cpu time spent up to now is     1105.4 secs

     total energy              =   -8078.55509000 Ry
     estimated scf accuracy    <       0.00054345 Ry

     total magnetization       =    97.04 Bohr mag/cell
     absolute magnetization    =    98.23 Bohr mag/cell

     iteration # 53     ecut=    50.00 Ry     beta= 0.10
     Davidson diagonalization with overlap
     ethr =  4.90E-08,  avg # of iterations =  2.0

     negative rho (up, down):  7.271E-04 5.843E-04
 
     Adding external electric field

     Computed dipole along edir(3) : 
        Dipole                0.2988 Ry au,          0.7595 Debye
        Dipole field          0.0002 Ry au, 
 
        Potential amp.       -0.0196 Ry
        Total length         54.7057 bohr
 
 
     Adding external electric field

     Computed dipole along edir(3) : 
        Dipole                0.2988 Ry au,          0.7595 Debye
        Dipole field          0.0002 Ry au, 
 
        Potential amp.       -0.0196 Ry
        Total length         54.7057 bohr
 

     total cpu time spent up to now is     1123.5 secs

     total energy              =   -8078.55511797 Ry
     estimated scf accuracy    <       0.00046946 Ry

     total magnetization       =    97.04 Bohr mag/cell
     absolute magnetization    =    98.24 Bohr mag/cell

     iteration # 54     ecut=    50.00 Ry     beta= 0.10
     Davidson diagonalization with overlap
     ethr =  4.24E-08,  avg # of iterations =  2.0

     negative rho (up, down):  1.504E-03 1.386E-03
 
     Adding external electric field

     Computed dipole along edir(3) : 
        Dipole                0.2915 Ry au,          0.7410 Debye
        Dipole field          0.0002 Ry au, 
 
        Potential amp.       -0.0191 Ry
        Total length         54.7057 bohr
 
 
     Adding external electric field

     Computed dipole along edir(3) : 
        Dipole                0.2915 Ry au,          0.7410 Debye
        Dipole field          0.0002 Ry au, 
 
        Potential amp.       -0.0191 Ry
        Total length         54.7057 bohr
 

     total cpu time spent up to now is     1141.9 secs

     total energy              =   -8078.55512233 Ry
     estimated scf accuracy    <       0.00025088 Ry

     total magnetization       =    97.04 Bohr mag/cell
     absolute magnetization    =    98.24 Bohr mag/cell

     iteration # 55     ecut=    50.00 Ry     beta= 0.10
     Davidson diagonalization with overlap
     ethr =  2.26E-08,  avg # of iterations =  1.5

     negative rho (up, down):  2.677E-03 2.601E-03
 
     Adding external electric field

     Computed dipole along edir(3) : 
        Dipole                0.3001 Ry au,          0.7629 Debye
        Dipole field          0.0002 Ry au, 
 
        Potential amp.       -0.0197 Ry
        Total length         54.7057 bohr
 
 
     Adding external electric field

     Computed dipole along edir(3) : 
        Dipole                0.3001 Ry au,          0.7629 Debye
        Dipole field          0.0002 Ry au, 
 
        Potential amp.       -0.0197 Ry
        Total length         54.7057 bohr
 

     total cpu time spent up to now is     1158.7 secs

     total energy              =   -8078.55513944 Ry
     estimated scf accuracy    <       0.00016834 Ry

     total magnetization       =    97.04 Bohr mag/cell
     absolute magnetization    =    98.25 Bohr mag/cell

     iteration # 56     ecut=    50.00 Ry     beta= 0.10
     Davidson diagonalization with overlap
     ethr =  1.52E-08,  avg # of iterations =  2.0

     negative rho (up, down):  3.190E-03 3.098E-03
 
     Adding external electric field

     Computed dipole along edir(3) : 
        Dipole                0.3021 Ry au,          0.7680 Debye
        Dipole field          0.0002 Ry au, 
 
        Potential amp.       -0.0198 Ry
        Total length         54.7057 bohr
 
 
     Adding external electric field

     Computed dipole along edir(3) : 
        Dipole                0.3021 Ry au,          0.7680 Debye
        Dipole field          0.0002 Ry au, 
 
        Potential amp.       -0.0198 Ry
        Total length         54.7057 bohr
 

     total cpu time spent up to now is     1176.8 secs

     total energy              =   -8078.55515197 Ry
     estimated scf accuracy    <       0.00012074 Ry

     total magnetization       =    97.05 Bohr mag/cell
     absolute magnetization    =    98.27 Bohr mag/cell

     iteration # 57     ecut=    50.00 Ry     beta= 0.10
     Davidson diagonalization with overlap
     ethr =  1.09E-08,  avg # of iterations =  1.5

     negative rho (up, down):  3.419E-03 3.298E-03
 
     Adding external electric field

     Computed dipole along edir(3) : 
        Dipole                0.3006 Ry au,          0.7640 Debye
        Dipole field          0.0002 Ry au, 
 
        Potential amp.       -0.0197 Ry
        Total length         54.7057 bohr
 
 
     Adding external electric field

     Computed dipole along edir(3) : 
        Dipole                0.3006 Ry au,          0.7640 Debye
        Dipole field          0.0002 Ry au, 
 
        Potential amp.       -0.0197 Ry
        Total length         54.7057 bohr
 

     total cpu time spent up to now is     1193.8 secs

     total energy              =   -8078.55515798 Ry
     estimated scf accuracy    <       0.00008663 Ry

     total magnetization       =    97.06 Bohr mag/cell
     absolute magnetization    =    98.27 Bohr mag/cell

     iteration # 58     ecut=    50.00 Ry     beta= 0.10
     Davidson diagonalization with overlap
     ethr =  7.82E-09,  avg # of iterations =  1.5

     negative rho (up, down):  3.276E-03 3.129E-03
 
     Adding external electric field

     Computed dipole along edir(3) : 
        Dipole                0.2996 Ry au,          0.7614 Debye
        Dipole field          0.0002 Ry au, 
 
        Potential amp.       -0.0196 Ry
[...]
    -5.9880  -5.9838  -5.9503  -5.9322  -5.8852  -5.8770  -5.8534  -5.8467
    -5.8271  -5.8074  -5.7894  -5.7619  -5.7523  -5.7370  -5.6950  -5.6855
    -5.6776  -5.6483  -5.6253  -5.6102  -5.5829  -5.5570  -5.5540  -5.5380
    -5.5185  -5.5147  -5.4906  -5.4783  -5.4672  -5.4573  -5.3869  -5.3786
    -5.3629  -5.3327  -5.3047  -5.2672  -5.2361  -5.1975  -5.1744  -5.1707
    -5.1505  -5.1072  -5.1013  -4.9987  -4.9641  -4.9515  -4.9502  -4.9129
    -4.8777  -4.8684  -4.8230  -4.7982  -4.7796  -4.7311  -4.7221  -4.7061
    -4.6622  -4.6024  -4.5804  -4.5659  -4.5094  -4.4688  -4.4437  -4.3939
    -4.3850  -4.3576  -4.3164  -4.2889  -4.2624  -4.2546  -4.2028  -4.1765
    -4.1352  -4.1148  -4.0912  -4.0617  -4.0519  -4.0149  -4.0003  -3.9615
    -3.8687  -3.8645  -3.8455  -3.8028  -3.7984  -3.7676  -3.7491  -3.7268
    -3.7104  -3.6882  -3.6656  -3.6147  -3.6108  -3.5882  -3.5856  -3.5696
    -3.5520  -3.5407  -3.5052  -3.4986  -3.4879  -3.4711  -3.4416  -3.4240
    -3.4183  -3.3999  -3.3984  -3.3631  -3.3279  -3.3251  -3.3141  -3.2962
    -3.2838  -3.2703  -3.2605  -3.2468  -3.2221  -3.1921  -3.1799  -3.1473
    -3.1316  -3.0992  -3.0570  -3.0383  -3.0240  -3.0127  -3.0033  -2.9828
    -2.9698  -2.9668  -2.9501  -2.8891  -2.8828  -2.8623  -2.8433  -2.8131
    -2.7971  -2.7753  -2.7225  -2.7146  -2.7020  -2.6774  -2.6739  -2.6653
    -2.6579  -2.6414  -2.6191  -2.6120  -2.5963  -2.5893  -2.5770  -2.5725
    -2.5517  -2.5410  -2.5275  -2.5209  -2.5023  -2.4871  -2.4747  -2.4468
    -2.4318  -2.4141  -2.3910  -2.3790  -2.3471  -2.3366  -2.3120  -2.3030
    -2.2846  -2.2808  -2.2624  -2.2551  -2.2147  -2.2135  -2.1898  -2.1770
    -2.1563  -2.1261  -2.1054  -2.0997  -2.0766  -2.0661  -2.0505  -2.0289
    -2.0161  -1.9964  -1.9698  -1.9580  -1.9333  -1.9140  -1.9069  -1.8772
    -1.8666  -1.8617  -1.8501  -1.8428  -1.8307  -1.7957  -1.7613  -1.7451
    -1.7375  -1.7085  -1.7052  -1.6910  -1.6690  -1.6533  -1.6039  -1.5959
    -1.5791  -1.5690  -1.5366  -1.5177  -1.4981  -1.4805  -1.4692  -1.4609
    -1.4456  -1.4206  -1.4187  -1.3802  -1.3691  -1.3587  -1.3165  -1.3033
    -1.2963  -1.2851  -1.2317  -1.2179  -1.1934  -1.1540  -1.1472  -1.1358
    -1.0941  -1.0738  -1.0014  -0.9569  -0.9437  -0.8219  -0.8079  -0.7711
    -0.7007  -0.6783  -0.6720  -0.4881  -0.3394  -0.2775  -0.2109  -0.1764
     0.1805   0.1943   0.2368   0.2578   0.2639   0.2669   0.2798   0.3017
     0.3326   0.3433   0.3871   0.3959   0.3975   0.4005   0.4053   0.4104
     0.4168   0.4249   0.4413   0.4444   0.4655   0.4699   0.4723   0.4774
     0.4856   0.4955   0.4995   0.5075   0.5141   0.5194   0.5268   0.5345
     0.5504   0.5566   0.5788   0.5832   0.5850   0.5866   0.5972   0.6064
     0.6167   0.6228   0.6278   0.6427   0.6552   0.6672   0.6709   0.6818
     0.6989   0.7049   0.7090   0.7218   0.7297   0.7336   0.7408   0.7724
     0.7754   0.7924   0.8039   0.8093   0.8132   0.8244   0.8341   0.8475
     0.8593   0.8644   0.8735   0.8840   0.8933   0.9092   0.9126   0.9427
     0.9941   1.0057   1.0137   1.0352   1.0813   1.1023   1.1684   1.2184
     1.6855   1.7686   1.7756   1.7892   1.8108   1.8180   1.8391   1.8660
     1.8888   1.9085   1.9301   1.9397   1.9644   1.9810   2.0292   2.0569
     2.0672   2.0844   2.0908   2.1108   2.1267   2.1478   2.1553   2.1585
     2.1995   2.2011   2.2220   2.2406   2.2455   2.2868   2.2997   2.3242
     2.3355   2.3401   2.3454   2.3655   2.3737   2.3826   2.4097   2.4300
     2.4674   2.4776   2.5158   2.5200   2.5372   2.5569   2.5808   2.6068
     2.6468   2.6574   2.7574   2.8255   2.8376   2.8726   2.8939   3.4800
     3.5563   3.6566   3.7192   3.7364   3.7517   3.7666   3.7894   3.8554
     3.9211   3.9346   3.9504   3.9755   3.9879   3.9983   4.0007   4.0184
     4.0595   4.0750   4.0848   4.0946   4.1487   4.1576   4.2053   4.2194
     4.2273   4.2403   4.2490   4.2673   4.3121   4.6061   4.6662   4.7747
     4.7856   4.8459   4.8933   4.9162   4.9692   4.9944   5.0022   5.0690
     5.0768   5.1088   5.1358   5.1750   5.2185   5.2322   5.3863   6.2097
     6.3395   6.4531   6.5312   6.7004   6.7100   6.7790   6.8520   6.8984
     6.9273   7.0001   7.0029   7.0707   7.2313   7.2951   7.3266   7.3778
     7.4081   7.4200   7.5052   7.5324   7.5606   7.6566   7.6934   7.7595
     7.8133   7.8631   7.8855   7.9344   7.9615   8.0105   8.0253   8.0714
     8.0757   8.0852   8.1259   8.1519   8.1678   8.2512   8.2802   8.3125
     8.3185   8.3529   8.3726   8.3827   8.4036   8.4147   8.4406   8.4496
     8.4532   8.4922   8.5406   8.5501   8.5624   8.6047   8.6158   8.6349
     8.6927

     the Fermi energy is     1.6936 ev

!    total energy              =   -8078.55514443 Ry
     estimated scf accuracy    <       0.00000065 Ry
     smearing contrib. (-TS)   =      -0.02591361 Ry
     internal energy E=F+TS    =   -8078.52923082 Ry

     The total energy is F=E-TS. E is the sum of the following terms:
     one-electron contribution =  -94637.88416302 Ry
     hartree contribution      =   47903.45467106 Ry
     xc contribution           =   -2177.36267982 Ry
     ewald contribution        =   40835.03160526 Ry
     Dispersion Correction     =      -1.76872351 Ry
     electric field correction =       0.00005920 Ry

     total magnetization       =    97.06 Bohr mag/cell
     absolute magnetization    =    98.27 Bohr mag/cell

     convergence has been achieved in  66 iterations

     negative rho (up, down):  1.162E-03 6.263E-04

     Forces acting on atoms (cartesian axes, Ry/au):

     atom    1 type  1   force =     0.00022026   -0.00009150   -0.00002877
     atom    2 type  1   force =    -0.00019762   -0.00018875    0.00011559
     atom    3 type  2   force =    -0.00064132   -0.00049105   -0.00042680
     atom    4 type  1   force =    -0.00004917    0.00006634   -0.00001663
     atom    5 type  1   force =    -0.00090514    0.00025321    0.00047184
     atom    6 type  1   force =    -0.00002453   -0.00002132    0.00018615
     atom    7 type  1   force =     0.00021103    0.00052628   -0.00033117
     atom    8 type  2   force =    -0.00014330   -0.00025982    0.00091240
     atom    9 type  2   force =    -0.00013230   -0.00089216   -0.00050410
     atom   10 type  1   force =    -0.00007534    0.00034527   -0.00002359
     atom   11 type  1   force =    -0.00053265   -0.00006653   -0.00018059
     atom   12 type  1   force =     0.00016715   -0.00021864    0.00025460
     atom   13 type  3   force =     0.00043497    0.00028333    0.00005068
     atom   14 type  3   force =    -0.00041707   -0.00021841   -0.00052027
     atom   15 type  3   force =     0.00045379   -0.00015132   -0.00009875
     atom   16 type  3   force =    -0.00017560   -0.00012416    0.00011286
     atom   17 type  4   force =     0.00047692   -0.00019919   -0.00025636
     atom   18 type  4   force =     0.00013584   -0.00003482    0.00003445
     atom   19 type  4   force =    -0.00049589    0.00038487   -0.00011717
     atom   20 type  4   force =    -0.00007110    0.00043253    0.00018365
     atom   21 type  4   force =     0.00007382   -0.00012192   -0.00022650
     atom   22 type  4   force =     0.00028056   -0.00019847    0.00038707
     atom   23 type  4   force =    -0.00037707    0.00013907   -0.00003455
     atom   24 type  4   force =     0.00023203    0.00014158    0.00005049
     atom   25 type  4   force =    -0.00020598   -0.00008335    0.00025779
     atom   26 type  4   force =    -0.00025782   -0.00002675    0.00019247
     atom   27 type  4   force =    -0.00012197    0.00000710    0.00023656
     atom   28 type  4   force =     0.00063624    0.00000123    0.00040398
     atom   29 type  4   force =    -0.00019406   -0.00018689   -0.00006944
     atom   30 type  4   force =     0.00041774    0.00042075   -0.00002719
     atom   31 type  4   force =    -0.00039251   -0.00002632   -0.00049517
     atom   32 type  4   force =    -0.00033379   -0.00006870    0.00049120
     atom   33 type  3   force =     0.00011952    0.00011890   -0.00023613
     atom   34 type  3   force =     0.00012007    0.00003674   -0.00037413
     atom   35 type  3   force =    -0.00024085    0.00001572   -0.00008043
     atom   36 type  3   force =    -0.00009097    0.00049658    0.00014814
     atom   37 type  4   force =     0.00025969    0.00006031   -0.00035505
     atom   38 type  4   force =     0.00036127    0.00029172    0.00005204
     atom   39 type  4   force =     0.00010532   -0.00022570    0.00047736
     atom   40 type  4   force =    -0.00015887    0.00026998   -0.00011616
     atom   41 type  4   force =     0.00015283    0.00002679    0.00004074
     atom   42 type  4   force =    -0.00000505   -0.00009396   -0.00021301
     atom   43 type  4   force =    -0.00040616   -0.00021534   -0.00049253
     atom   44 type  4   force =    -0.00001739    0.00035982   -0.00020706
     atom   45 type  4   force =    -0.00032398   -0.00026319    0.00032951
     atom   46 type  4   force =    -0.00001970   -0.00008879    0.00001206
     atom   47 type  4   force =     0.00025393    0.00010906    0.00036619
     atom   48 type  4   force =     0.00011747    0.00025607    0.00033945
     atom   49 type  4   force =    -0.00006419    0.00011841    0.00040358
     atom   50 type  4   force =     0.00033841    0.00032862    0.00012801
     atom   51 type  4   force =    -0.00003091    0.00007272   -0.00054881
     atom   52 type  4   force =     0.00012387   -0.00016372   -0.00008636
     atom   53 type  1   force =     0.00058039   -0.00092432    0.00045632
     atom   54 type  1   force =     0.00088674    0.00063717   -0.00170029
     atom   55 type  2   force =     0.00094707    0.00081671    0.00463572
     atom   56 type  1   force =    -0.00064365   -0.00097889   -0.00134813
     atom   57 type  1   force =    -0.00007837   -0.00007371    0.00007674
     atom   58 type  1   force =    -0.00009280    0.00018079    0.00002668
     atom   59 type  1   force =     0.00076536    0.00018969    0.00114231
     atom   60 type  2   force =    -0.00013271    0.00000733   -0.00175453
     atom   61 type  2   force =     0.00098923    0.00132867    0.00462867
     atom   62 type  1   force =    -0.00046171   -0.00067227   -0.00130862
     atom   63 type  1   force =     0.00013359    0.00010567   -0.00020691
     atom   64 type  1   force =     0.00009550    0.00018018    0.00023500
     atom   65 type  3   force =    -0.00037291   -0.00081711   -0.00238645
     atom   66 type  3   force =    -0.00002365    0.00103558    0.00323359
     atom   67 type  3   force =    -0.00029017   -0.00016301   -0.00022477
     atom   68 type  3   force =    -0.00073406    0.00074230   -0.00103118
     atom   69 type  4   force =    -0.00064996    0.00045526    0.00067023
     atom   70 type  4   force =    -0.00015515   -0.00005127   -0.00090182
     atom   71 type  4   force =     0.00022229    0.00023962    0.00007929
     atom   72 type  4   force =     0.00020747   -0.00044401    0.00158286
     atom   73 type  4   force =    -0.00073181    0.00072439    0.00183707
     atom   74 type  4   force =     0.00059301   -0.00224200   -0.00187178
     atom   75 type  4   force =    -0.00126401    0.00038599   -0.00028799
     atom   76 type  4   force =    -0.00001153   -0.00063251    0.00146239
     atom   77 type  4   force =    -0.00042943   -0.00014284    0.00061766
     atom   78 type  4   force =    -0.00098960    0.00029204    0.00036193
     atom   79 type  4   force =     0.00035133    0.00029379    0.00065807
     atom   80 type  4   force =     0.00061456    0.00093784   -0.00032118
     atom   81 type  4   force =    -0.00022093   -0.00133022   -0.00125987
     atom   82 type  4   force =     0.00092185   -0.00174613    0.00053974
     atom   83 type  4   force =     0.00007780    0.00062021    0.00038997
     atom   84 type  4   force =    -0.00055214    0.00022803    0.00063608
     atom   85 type  3   force =    -0.00019598   -0.00105017   -0.00226817
     atom   86 type  3   force =     0.00055065    0.00189930    0.00246075
     atom   87 type  3   force =    -0.00027971   -0.00208159    0.00159652
     atom   88 type  3   force =    -0.00068309    0.00086950   -0.00075383
     atom   89 type  4   force =    -0.00015549   -0.00005033    0.00015009
     atom   90 type  4   force =     0.00017994   -0.00093773   -0.00131870
     atom   91 type  4   force =     0.00050653    0.00050457   -0.00080480
     atom   92 type  4   force =     0.00033324   -0.00037608    0.00106297
     atom   93 type  4   force =    -0.00013664    0.00108557    0.00098785
     atom   94 type  4   force =     0.00129218    0.00023133    0.00115441
     atom   95 type  4   force =    -0.00159599    0.00042618    0.00056599
     atom   96 type  4   force =    -0.00016817   -0.00027094    0.00124249
     atom   97 type  4   force =    -0.00012293   -0.00065722    0.00071813
     atom   98 type  4   force =    -0.00031853    0.00102450   -0.00089694
     atom   99 type  4   force =     0.00068727   -0.00012084    0.00070949
     atom  100 type  4   force =     0.00028522    0.00107259   -0.00021992
     atom  101 type  4   force =    -0.00056780   -0.00119255   -0.00080428
     atom  102 type  4   force =     0.00135316   -0.00152222    0.00022340
     atom  103 type  4   force =     0.00035541    0.00033169    0.00027950
     atom  104 type  4   force =    -0.00009693   -0.00057870   -0.00024991
     atom  105 type  1   force =    -0.00071770    0.00191223   -0.00657433
     atom  106 type  1   force =     0.02827033    0.01362028    0.02231818
     atom  107 type  2   force =     0.00168342    0.00038503   -0.01039781
     atom  108 type  1   force =    -0.03112392    0.02312555    0.01706955
     atom  109 type  1   force =     0.00414370   -0.00288565   -0.00319277
     atom  110 type  1   force =    -0.00128925   -0.00646123   -0.00523984
     atom  111 type  1   force =    -0.00373017    0.00216700   -0.00580235
     atom  112 type  2   force =     0.03235063    0.01643923   -0.00997893
     atom  113 type  2   force =     0.00144452    0.00112728   -0.01006822
     atom  114 type  1   force =    -0.03195628    0.02443938    0.01798836
     atom  115 type  1   force =     0.00351779   -0.00481048   -0.00417744
     atom  116 type  1   force =    -0.00490364   -0.00808567   -0.00639671
     atom  117 type  3   force =    -0.02899226   -0.03569656   -0.06278291
     atom  118 type  3   force =     0.00318068    0.00034637   -0.00698692
     atom  119 type  3   force =     0.00074219   -0.00062939   -0.00913427
     atom  120 type  3   force =     0.02796759   -0.05775798   -0.08374638
     atom  121 type  4   force =    -0.00652217   -0.00321607    0.03047950
     atom  122 type  4   force =    -0.00142522   -0.00114689    0.00262884
     atom  123 type  4   force =     0.00156649   -0.00102734    0.00484939
     atom  124 type  4   force =     0.00352858    0.00315749    0.03400363
     atom  125 type  4   force =    -0.00227346   -0.00230154    0.03398139
     atom  126 type  4   force =    -0.00082638    0.00064249    0.00294357
     atom  127 type  4   force =     0.00216341    0.00309670    0.00426079
     atom  128 type  4   force =    -0.00314034   -0.00173756    0.02222336
     atom  129 type  4   force =    -0.01248383    0.03639572    0.00495550
     atom  130 type  4   force =    -0.00150205    0.00036411    0.00234893
     atom  131 type  4   force =    -0.01945015    0.00357148    0.00993917
     atom  132 type  4   force =    -0.00106644    0.00354864    0.00432731
     atom  133 type  4   force =    -0.00297155    0.00063184    0.00240299
     atom  134 type  4   force =     0.00149277   -0.00428932    0.00351888
     atom  135 type  4   force =     0.01377133    0.02361980   -0.00091462
     atom  136 type  4   force =     0.01322924   -0.00064868    0.00239648
     atom  137 type  3   force =    -0.03819163   -0.04126407   -0.06619461
     atom  138 type  3   force =     0.00647886   -0.00302344   -0.00140269
     atom  139 type  3   force =     0.00027559   -0.00157867   -0.00943615
     atom  140 type  3   force =     0.02904807   -0.05119261   -0.08330960
     atom  141 type  4   force =    -0.00103106    0.00273860    0.02934350
     atom  142 type  4   force =     0.00045464    0.00235505   -0.00625026
     atom  143 type  4   force =     0.00163792   -0.00086110    0.00427733
     atom  144 type  4   force =     0.00420888    0.00183822    0.03461047
     atom  145 type  4   force =     0.00896867    0.00380808    0.03114599
     atom  146 type  4   force =    -0.00028043    0.00050986    0.00166409
     atom  147 type  4   force =     0.00267352    0.00343487    0.00393537
     atom  148 type  4   force =    -0.00393797   -0.00138781    0.02215868
     atom  149 type  4   force =    -0.00996382    0.03016815    0.00425061
     atom  150 type  4   force =    -0.00192065    0.00043924    0.00279419
     atom  151 type  4   force =    -0.01853644    0.00504137    0.00990824
     atom  152 type  4   force =    -0.00080585    0.00344179    0.00432676
     atom  153 type  4   force =    -0.00137543    0.00026218    0.00296955
     atom  154 type  4   force =     0.00215197   -0.00248767    0.00281594
     atom  155 type  4   force =     0.01472062    0.02465340    0.00014905
     atom  156 type  4   force =     0.02241016   -0.00366655    0.00143703
     atom  157 type  4   force =    -0.00743013   -0.00571237    0.00241110
     atom  158 type  5   force =     0.00640227    0.00595518   -0.00192092

     Total force =     0.237960     Total SCF correction =     0.003541
 
     init_run     :     10.84s CPU     11.53s WALL (       1 calls)
     electrons    :   1295.14s CPU   1339.41s WALL (       1 calls)
     forces       :      6.08s CPU      6.47s WALL (       1 calls)
     force_london :      0.09s CPU      0.09s WALL (       1 calls)

     Called by init_run:
     wfcinit      :      6.42s CPU      6.60s WALL (       1 calls)
     potinit      :      0.63s CPU      0.83s WALL (       1 calls)
     hinit0       :      2.07s CPU      2.18s WALL (       1 calls)

     Called by electrons:
     c_bands      :   1001.00s CPU   1024.48s WALL (      66 calls)
     sum_band     :    178.45s CPU    188.53s WALL (      66 calls)
     v_of_rho     :     19.59s CPU     22.15s WALL (      67 calls)
     newd         :     70.87s CPU     78.84s WALL (      67 calls)
     mix_rho      :     24.16s CPU     24.52s WALL (      66 calls)
     energy_londo :      0.08s CPU      0.08s WALL (       1 calls)

     Called by c_bands:
     init_us_2    :      1.75s CPU      1.82s WALL (     268 calls)
     init_us_2:cp :      1.75s CPU      1.82s WALL (     268 calls)
     regterg      :    984.16s CPU   1007.41s WALL (     136 calls)

     Called by *egterg:
     rdiaghg      :    239.06s CPU    251.25s WALL (     541 calls)
     h_psi        :    371.21s CPU    376.57s WALL (     543 calls)
     s_psi        :     43.09s CPU     43.10s WALL (     543 calls)
     g_psi        :      0.32s CPU      0.32s WALL (     405 calls)

     Called by h_psi:
     h_psi:calbec :     99.32s CPU    103.70s WALL (     543 calls)
     vloc_psi     :    226.45s CPU    226.90s WALL (     543 calls)
     add_vuspsi   :     44.85s CPU     45.36s WALL (     543 calls)

     General routines
     calbec       :    144.91s CPU    151.50s WALL (     683 calls)
     fft          :     59.65s CPU     62.89s WALL (    1219 calls)
     ffts         :     13.49s CPU     13.50s WALL (    8195 calls)
     fftw         :    261.55s CPU    262.03s WALL (  232118 calls)
     interpolate  :      1.99s CPU      2.07s WALL (     134 calls)
 
     Parallel routines
 
     PWSCF        :  21m54.08s CPU  22m39.75s WALL

 
   This run was terminated on:   2:13: 3  18Nov2025            

=------------------------------------------------------------------------------=
   JOB DONE.
=------------------------------------------------------------------------------=
