
     Program PWSCF v.7.2 starts on 19Nov2025 at 22:43:46 

     This program is part of the open-source Quantum ESPRESSO suite
     for quantum simulation of materials; please cite
         "P. Giannozzi et al., J. Phys.:Condens. Matter 21 395502 (2009);
         "P. Giannozzi et al., J. Phys.:Condens. Matter 29 465901 (2017);
         "P. Giannozzi et al., J. Chem. Phys. 152 154105 (2020);
          URL http://www.quantum-espresso.org", 
     in publications or presentations arising from this work. More details at
     http://www.quantum-espresso.org/quote

     Parallel version (MPI), running on    64 processors

     MPI processes distributed on     4 nodes
     449711 MiB available memory on the printing compute node when the environment starts
 
     Reading input from PWINPUT_atm158_zm

     Current dimensions of program PWSCF are:
     Max number of different atomic species (ntypx) = 10
     Max number of k-points (npk) =  40000
     Max angular momentum in pseudopotentials (lmaxx) =  4
     Presently no symmetry can be used with electric field

     file Ni.pbe-n-rrkjus_psl.1.0.0.UPF: wavefunction(s)  3D renormalized
     file Mn.pbe-spn-rrkjus_psl.0.3.1.UPF: wavefunction(s)  3D renormalized
     file O.pbe-rrkjus.UPF: wavefunction(s)  2S renormalized
     file H.pbe-rrkjus.UPF: wavefunction(s)  1S renormalized

     gamma-point specific algorithms are used
 
     R & G space division:  proc/nbgrp/npool/nimage =      64
     Subspace diagonalization in iterative solution of the eigenvalue problem:
     one sub-group per band group will be used
     custom distributed-memory algorithm (size of sub-group:  6*  6 procs)

 
     Parallelization info
     --------------------
     sticks:   dense  smooth     PW     G-vecs:    dense   smooth      PW
     Min         208      82     20                59912    15118    1876
     Max         210      84     22                59974    15196    1926
     Sum       13399    5355   1345              3836275   970529  121367
 
     Using Slab Decomposition
 


     bravais-lattice index     =            0
     lattice parameter (alat)  =      17.7004  a.u.
     unit-cell volume          =   20319.7251 (a.u.)^3
     number of atoms/cell      =          158
     number of atomic types    =            5
     number of electrons       =      1078.00
     number of Kohn-Sham states=          647
     kinetic-energy cutoff     =      50.0000  Ry
     charge density cutoff     =     500.0000  Ry
     scf convergence threshold =      1.0E-06
     mixing beta               =       0.1000
     number of iterations used =            8  local-TF  mixing
     Exchange-correlation=  SLA  PW   PBE  PBE
                           (   1   4   3   4   0   0   0)

     celldm(1)=  17.700384  celldm(2)=   0.000000  celldm(3)=   0.000000
     celldm(4)=   0.000000  celldm(5)=   0.000000  celldm(6)=   0.000000

     crystal axes: (cart. coord. in units of alat)
               a(1) = (   1.000000   0.000000   0.000000 )  
               a(2) = (   0.000000   1.075730   0.000000 )  
               a(3) = (   0.000000   0.000000   3.406172 )  

     reciprocal axes: (cart. coord. in units 2 pi/alat)
               b(1) = (  1.000000  0.000000  0.000000 )  
               b(2) = (  0.000000  0.929602  0.000000 )  
               b(3) = (  0.000000  0.000000  0.293585 )  


     PseudoPot. # 1 for Ni read from file:
     ~/PSEUDO/Ni.pbe-n-rrkjus_psl.1.0.0.UPF
     MD5 check sum: Not computed, couldn't open file
     Pseudo is Ultrasoft + core correction, Zval = 10.0
     Generated using "atomic" code by A. Dal Corso  v.5.1.2
     Using radial grid of 1195 points,  6 beta functions with: 
                l(1) =   0
                l(2) =   0
                l(3) =   1
                l(4) =   1
                l(5) =   2
                l(6) =   2
     Q(r) pseudized with 0 coefficients 


     PseudoPot. # 2 for Mn read from file:
     ~/PSEUDO/Mn.pbe-spn-rrkjus_psl.0.3.1.UPF
     MD5 check sum: Not computed, couldn't open file
     Pseudo is Ultrasoft + core correction, Zval = 15.0
     Generated using &quot;atomic&quot; code by A. Dal Corso  v.6.2.2
     Using radial grid of 1187 points,  6 beta functions with: 
                l(1) =   0
                l(2) =   0
                l(3) =   1
                l(4) =   1
                l(5) =   2
                l(6) =   2
     Q(r) pseudized with 0 coefficients 


     PseudoPot. # 3 for P  read from file:
     ~/PSEUDO/P.pbe-n-rrkjus_psl.1.0.0.UPF
     MD5 check sum: Not computed, couldn't open file
     Pseudo is Ultrasoft + core correction, Zval =  5.0
     Generated using "atomic" code by A. Dal Corso  v.5.1
     Using radial grid of 1147 points,  6 beta functions with: 
                l(1) =   0
                l(2) =   0
                l(3) =   1
                l(4) =   1
                l(5) =   2
                l(6) =   2
     Q(r) pseudized with 0 coefficients 


     PseudoPot. # 4 for O  read from file:
     ~/PSEUDO/O.pbe-rrkjus.UPF
     MD5 check sum: Not computed, couldn't open file
     Pseudo is Ultrasoft, Zval =  6.0
     Generated by new atomic code, or converted to UPF format
     Using radial grid of 1269 points,  4 beta functions with: 
                l(1) =   0
                l(2) =   0
                l(3) =   1
                l(4) =   1
     Q(r) pseudized with 0 coefficients 


     PseudoPot. # 5 for H  read from file:
     ~/PSEUDO/H.pbe-rrkjus.UPF
     MD5 check sum: Not computed, couldn't open file
     Pseudo is Ultrasoft, Zval =  1.0
     Generated by new atomic code, or converted to UPF format
     Using radial grid of 1061 points,  2 beta functions with: 
                l(1) =   0
                l(2) =   0
     Q(r) pseudized with 0 coefficients 


     atomic species   valence    mass     pseudopotential
     Ni               10.00    58.69300     Ni( 1.00)
     Mn               15.00    54.93800     Mn( 1.00)
     P                 5.00    30.97300     P ( 1.00)
     O                 6.00    15.99900     O ( 1.00)
     H                 1.00     1.00790     H ( 1.00)

     Starting magnetic structure 
     atomic species   magnetization
     Ni              1.000
     Mn              1.000
     P               1.000
     O               1.000
     H               0.000

     No symmetry found



   Cartesian axes

     site n.     atom                  positions (alat units)
         1        Mn     tau(   1) = (   0.2404744   0.8371250   0.1168501  )
         2        Ni     tau(   2) = (   0.4968126   0.7726670   0.4415546  )
         3        Ni     tau(   3) = (   0.0066150   0.2936743   0.1241053  )
         4        Ni     tau(   4) = (   0.2585722   0.2355858   0.4448848  )
         5        Ni     tau(   5) = (   0.9987350   1.0696411   0.2854926  )
         6        Ni     tau(   6) = (   0.2517397   0.5330511   0.2829322  )
         7        Ni     tau(   7) = (   0.7451645   0.8337543   0.1221751  )
         8        Ni     tau(   8) = (   0.9939181   0.7738804   0.4407595  )
         9        Ni     tau(   9) = (   0.5111533   0.2924088   0.1251865  )
        10        Ni     tau(  10) = (   0.7606326   0.2319267   0.4451372  )
        11        Ni     tau(  11) = (   0.5024065   1.0688133   0.2870502  )
        12        Ni     tau(  12) = (   0.7529977   0.5317900   0.2845227  )
        13        P      tau(  13) = (   0.2092944   0.9731097   0.4345035  )
        14        P      tau(  14) = (   0.4655727   0.6359535   0.1274635  )
        15        P      tau(  15) = (   0.2910699   0.1027363   0.1296098  )
        16        P      tau(  16) = (   0.0396216   0.4288395   0.4398838  )
        17        O      tau(  17) = (   0.1294378   0.9013260   0.3010618  )
        18        O      tau(  18) = (   0.3874505   0.7054774   0.2637003  )
        19        O      tau(  19) = (   0.3702540   0.1714799   0.2660028  )
        20        O      tau(  20) = (   0.1184398   0.3582958   0.3038353  )
        21        O      tau(  21) = (   0.1451572   0.8850881   0.5587578  )
        22        O      tau(  22) = (   0.4048762   0.7245585   0.0017492  )
        23        O      tau(  23) = (   0.3523506   0.1900579   0.0035744  )
        24        O      tau(  24) = (   0.1017610   0.3410484   0.5656572  )
        25        O      tau(  25) = (   0.0975396   0.5849288   0.4357922  )
        26        O      tau(  26) = (   0.3483552   1.0314945   0.1270322  )
        27        O      tau(  27) = (   0.3784305   0.4225118   0.4308928  )
        28        O      tau(  28) = (   0.1268237   0.1067944   0.1392744  )
        29        O      tau(  29) = (   0.1212267   0.6424170   0.1362896  )
        30        O      tau(  30) = (   0.4053315   0.4809387   0.1300622  )
        31        O      tau(  31) = (   0.1536621   0.0446918   0.4373386  )
        32        O      tau(  32) = (   0.3732349   0.9631717   0.4256642  )
        33        P      tau(  33) = (   0.7119823   0.9695974   0.4373010  )
        34        P      tau(  34) = (   0.9615208   0.6363392   0.1262932  )
        35        P      tau(  35) = (   0.7927710   0.0970060   0.1292164  )
        36        P      tau(  36) = (   0.5426404   0.4269675   0.4410738  )
        37        O      tau(  37) = (   0.6326879   0.8991182   0.3013240  )
        38        O      tau(  38) = (   0.8842163   0.7083206   0.2625155  )
        39        O      tau(  39) = (   0.8716178   0.1677751   0.2653504  )
        40        O      tau(  40) = (   0.6212010   0.3558666   0.3051085  )
        41        O      tau(  41) = (   0.6507714   0.8812342   0.5631722  )
        42        O      tau(  42) = (   0.9014054   0.7264458   0.0010676  )
        43        O      tau(  43) = (   0.8548963   0.1847909   0.0035471  )
        44        O      tau(  44) = (   0.6044469   0.3378706   0.5660366  )
        45        O      tau(  45) = (   0.6024424   0.5823140   0.4379016  )
        46        O      tau(  46) = (   0.8498940   1.0254482   0.1275156  )
        47        O      tau(  47) = (   0.8798395   0.4205825   0.4305771  )
        48        O      tau(  48) = (   0.6286921   0.1034636   0.1397346  )
        49        O      tau(  49) = (   0.6294973   0.6427753   0.1372553  )
        50        O      tau(  50) = (   0.9024339   0.4810312   0.1296418  )
        51        O      tau(  51) = (   0.6547812   0.0410987   0.4396636  )
        52        O      tau(  52) = (   0.8760507   0.9632605   0.4264507  )
        53        Mn     tau(  53) = (   0.2404744   0.8246335   0.7367378  )
        54        Ni     tau(  54) = (   0.4968126   0.7601755   1.0614423  )
        55        Ni     tau(  55) = (   0.0066150   0.2811828   0.7439929  )
        56        Ni     tau(  56) = (   0.2585722   0.2230943   1.0647725  )
        57        Ni     tau(  57) = (   0.9987350   1.0571496   0.9053803  )
        58        Ni     tau(  58) = (   0.2517397   0.5205596   0.9028199  )
        59        Ni     tau(  59) = (   0.7451645   0.8212628   0.7420628  )
        60        Ni     tau(  60) = (   0.9939181   0.7613889   1.0606471  )
        61        Ni     tau(  61) = (   0.5111533   0.2799173   0.7450742  )
        62        Ni     tau(  62) = (   0.7606326   0.2194352   1.0650249  )
        63        Ni     tau(  63) = (   0.5024065   1.0563218   0.9069379  )
        64        Ni     tau(  64) = (   0.7529977   0.5192985   0.9044104  )
        65        P      tau(  65) = (   0.2092944   0.9606182   1.0543912  )
        66        P      tau(  66) = (   0.4655727   0.6234620   0.7473512  )
        67        P      tau(  67) = (   0.2910699   0.0902448   0.7494974  )
        68        P      tau(  68) = (   0.0396216   0.4163480   1.0597715  )
        69        O      tau(  69) = (   0.1294378   0.8888345   0.9209495  )
        70        O      tau(  70) = (   0.3874505   0.6929859   0.8835880  )
        71        O      tau(  71) = (   0.3702540   0.1589885   0.8858904  )
        72        O      tau(  72) = (   0.1184398   0.3458043   0.9237230  )
        73        O      tau(  73) = (   0.1451572   0.8725966   1.1786454  )
        74        O      tau(  74) = (   0.4048762   0.7120670   0.6216369  )
        75        O      tau(  75) = (   0.3523506   0.1775664   0.6234620  )
        76        O      tau(  76) = (   0.1017610   0.3285569   1.1855448  )
        77        O      tau(  77) = (   0.0975396   0.5724373   1.0556799  )
        78        O      tau(  78) = (   0.3483552   1.0190030   0.7469198  )
        79        O      tau(  79) = (   0.3784305   0.4100203   1.0507804  )
        80        O      tau(  80) = (   0.1268237   0.0943029   0.7591620  )
        81        O      tau(  81) = (   0.1212267   0.6299255   0.7561772  )
        82        O      tau(  82) = (   0.4053315   0.4684472   0.7499499  )
        83        O      tau(  83) = (   0.1536621   0.0322003   1.0572263  )
        84        O      tau(  84) = (   0.3732349   0.9506802   1.0455518  )
        85        P      tau(  85) = (   0.7119823   0.9571059   1.0571887  )
        86        P      tau(  86) = (   0.9615208   0.6238477   0.7461808  )
        87        P      tau(  87) = (   0.7927710   0.0845145   0.7491041  )
        88        P      tau(  88) = (   0.5426404   0.4144760   1.0609615  )
        89        O      tau(  89) = (   0.6326879   0.8866267   0.9212117  )
        90        O      tau(  90) = (   0.8842163   0.6958291   0.8824032  )
        91        O      tau(  91) = (   0.8716178   0.1552836   0.8852381  )
        92        O      tau(  92) = (   0.6212010   0.3433751   0.9249961  )
        93        O      tau(  93) = (   0.6507714   0.8687427   1.1830599  )
        94        O      tau(  94) = (   0.9014054   0.7139543   0.6209553  )
        95        O      tau(  95) = (   0.8548963   0.1722994   0.6234348  )
        96        O      tau(  96) = (   0.6044469   0.3253792   1.1859242  )
        97        O      tau(  97) = (   0.6024424   0.5698225   1.0577892  )
        98        O      tau(  98) = (   0.8498940   1.0129567   0.7474033  )
        99        O      tau(  99) = (   0.8798395   0.4080910   1.0504647  )
       100        O      tau( 100) = (   0.6286921   0.0909721   0.7596222  )
       101        O      tau( 101) = (   0.6294973   0.6302838   0.7571429  )
       102        O      tau( 102) = (   0.9024339   0.4685397   0.7495295  )
       103        O      tau( 103) = (   0.6547812   0.0286072   1.0595512  )
       104        O      tau( 104) = (   0.8760507   0.9507690   1.0463383  )
       105        Mn     tau( 105) = (   0.2364458   0.8094794   1.3653459  )
       106        Ni     tau( 106) = (   0.4907942   0.7363522   1.7049996  )
       107        Ni     tau( 107) = (   0.0093952   0.2680398   1.3698569  )
       108        Ni     tau( 108) = (   0.2497295   0.2108424   1.6761145  )
       109        Ni     tau( 109) = (   1.0036298   1.0443547   1.5337867  )
       110        Ni     tau( 110) = (   0.2508731   0.5072093   1.5337250  )
       111        Ni     tau( 111) = (   0.7430527   0.8053936   1.3670713  )
       112        Ni     tau( 112) = (   1.0004343   0.7470669   1.6781949  )
       113        Ni     tau( 113) = (   0.5111923   0.2663270   1.3700523  )
       114        Ni     tau( 114) = (   0.7492854   0.2057646   1.6748146  )
       115        Ni     tau( 115) = (   0.5041086   1.0410710   1.5344479  )
       116        Ni     tau( 116) = (   0.7475733   0.5047540   1.5316464  )
       117        P      tau( 117) = (   0.2133552   0.9392292   1.6984504  )
       118        P      tau( 118) = (   0.4634655   0.6097679   1.3737019  )
       119        P      tau( 119) = (   0.2926447   0.0743533   1.3725526  )
       120        P      tau( 120) = (   0.0367365   0.3974952   1.6921475  )
       121        O      tau( 121) = (   0.1371062   0.8722393   1.5551977  )
       122        O      tau( 122) = (   0.3876369   0.6802541   1.5098871  )
       123        O      tau( 123) = (   0.3711295   0.1420780   1.5089708  )
       124        O      tau( 124) = (   0.1160403   0.3372838   1.5462681  )
       125        O      tau( 125) = (   0.1492652   0.8455602   1.8156300  )
       126        O      tau( 126) = (   0.4032581   0.6987394   1.2472428  )
       127        O      tau( 127) = (   0.3539738   0.1604313   1.2459115  )
       128        O      tau( 128) = (   0.0992937   0.3009536   1.8068009  )
       129        O      tau( 129) = (   0.0909237   0.5559234   1.6906175  )
       130        O      tau( 130) = (   0.3495909   0.9934160   1.3761257  )
       131        O      tau( 131) = (   0.3736946   0.3887924   1.6741111  )
       132        O      tau( 132) = (   0.1287801   0.0799213   1.3839567  )
       133        O      tau( 133) = (   0.1223930   0.6189353   1.3829709  )
       134        O      tau( 134) = (   0.4027999   0.4547621   1.3753464  )
       135        O      tau( 135) = (   0.1562549   0.0204997   1.6913958  )
       136        O      tau( 136) = (   0.3777647   0.9340275   1.6841911  )
       137        P      tau( 137) = (   0.7135711   0.9304873   1.6870697  )
       138        P      tau( 138) = (   0.9579050   0.6098693   1.3704654  )
       139        P      tau( 139) = (   0.7935730   0.0700637   1.3709798  )
       140        P      tau( 140) = (   0.5382788   0.3921678   1.6921168  )
       141        O      tau( 141) = (   0.6368445   0.8715343   1.5433244  )
       142        O      tau( 142) = (   0.8818270   0.6814858   1.5066133  )
       143        O      tau( 143) = (   0.8713193   0.1417772   1.5072868  )
       144        O      tau( 144) = (   0.6174579   0.3303663   1.5458240  )
       145        O      tau( 145) = (   0.6552232   0.8337369   1.8043110  )
       146        O      tau( 146) = (   0.8989657   0.6978510   1.2434901  )
       147        O      tau( 147) = (   0.8552504   0.1586671   1.2456065  )
       148        O      tau( 148) = (   0.5963858   0.2917729   1.8058571  )
       149        O      tau( 149) = (   0.5989840   0.5475310   1.6881864  )
       150        O      tau( 150) = (   0.8545284   0.9913153   1.3740611  )
       151        O      tau( 151) = (   0.8720431   0.3904281   1.6773436  )
       152        O      tau( 152) = (   0.6296650   0.0761030   1.3824892  )
       153        O      tau( 153) = (   0.6276372   0.6149600   1.3818254  )
       154        O      tau( 154) = (   0.9002664   0.4546242   1.3744661  )
       155        O      tau( 155) = (   0.6584351   0.0133671   1.6886222  )
       156        O      tau( 156) = (   0.8793773   0.9284013   1.6770673  )
       157        O      tau( 157) = (   0.3761800   0.6543040   1.8384848  )
       158        H      tau( 158) = (   0.2924595   0.7142463   1.8622369  )

     -------------------------------------------------
     Parameters for Dispersion (Grimme-D2) Correction:
     -------------------------------------------------
       atom      VdW radius       C_6     

        Ni         2.952        374.666
        Mn         2.952        374.666
        P          3.222        271.980
        O          2.536         24.284
        H          1.892          4.857

     number of k points=     1  Gaussian smearing, width (Ry)=  0.0100
                       cart. coord. in units 2pi/alat
        k(    1) = (   0.0000000   0.0000000   0.0000000), wk =   1.0000000

     Dense  grid:  1918138 G-vectors     FFT dimensions: ( 125, 135, 432)

     Smooth grid:   485265 G-vectors     FFT dimensions: (  80,  90, 288)

     Estimated max dynamical RAM per process >     320.12 MB

     Estimated total dynamical RAM >      20.01 GB
     Generating pointlists ...
     new r_m :   0.0801 (alat units)  1.4174 (a.u.) for type    1
     new r_m :   0.0869 (alat units)  1.5388 (a.u.) for type    2
     new r_m :   0.0650 (alat units)  1.1499 (a.u.) for type    3
     new r_m :   0.0436 (alat units)  0.7715 (a.u.) for type    4
     new r_m :   0.0436 (alat units)  0.7715 (a.u.) for type    5

     Initial potential from superposition of free atoms

     starting charge    1077.8900, renormalised to    1078.0000

     negative rho (up, down):  1.238E-03 4.581E-04
 
     Adding external electric field

     Computed dipole along edir(3) : 
        Dipole                1.6203 Ry au,          4.1183 Debye
        Dipole field          0.0010 Ry au, 
 
        Potential amp.       -0.1087 Ry
        Total length         54.2615 bohr
 
 
     Adding external electric field

     Computed dipole along edir(3) : 
        Dipole                1.6203 Ry au,          4.1183 Debye
        Dipole field          0.0010 Ry au, 
 
        Potential amp.       -0.1087 Ry
        Total length         54.2615 bohr
 
     Starting wfcs are  812 randomized atomic wfcs

     total cpu time spent up to now is       10.2 secs

     Self-consistent Calculation

     iteration #  1     ecut=    50.00 Ry     beta= 0.10
     Davidson diagonalization with overlap
     ethr =  1.00E-02,  avg # of iterations =  6.0

     negative rho (up, down):  3.573E-01 6.208E-06
 
     Adding external electric field

     Computed dipole along edir(3) : 
        Dipole               -3.0850 Ry au,         -7.8413 Debye
        Dipole field         -0.0019 Ry au, 
 
        Potential amp.        0.2070 Ry
        Total length         54.2615 bohr
 
 
     Adding external electric field

     Computed dipole along edir(3) : 
        Dipole               -3.0850 Ry au,         -7.8413 Debye
        Dipole field         -0.0019 Ry au, 
 
        Potential amp.        0.2070 Ry
        Total length         54.2615 bohr
 

     total cpu time spent up to now is       35.9 secs

     total energy              =   -7181.42516359 Ry
     estimated scf accuracy    <     753.36607841 Ry

     total magnetization       =   216.00 Bohr mag/cell
     absolute magnetization    =   297.21 Bohr mag/cell

     iteration #  2     ecut=    50.00 Ry     beta= 0.10
     Davidson diagonalization with overlap
     ethr =  1.00E-02,  avg # of iterations =  2.0

     negative rho (up, down):  3.238E-01 5.944E-06
 
     Adding external electric field

     Computed dipole along edir(3) : 
        Dipole               -2.3761 Ry au,         -6.0393 Debye
        Dipole field         -0.0015 Ry au, 
 
        Potential amp.        0.1595 Ry
        Total length         54.2615 bohr
 
 
     Adding external electric field

     Computed dipole along edir(3) : 
        Dipole               -2.3761 Ry au,         -6.0393 Debye
        Dipole field         -0.0015 Ry au, 
 
        Potential amp.        0.1595 Ry
        Total length         54.2615 bohr
 

     total cpu time spent up to now is       52.2 secs

     total energy              =   -7266.04616843 Ry
     estimated scf accuracy    <     141.90220557 Ry

     total magnetization       =   142.41 Bohr mag/cell
     absolute magnetization    =   195.39 Bohr mag/cell

     iteration #  3     ecut=    50.00 Ry     beta= 0.10
     Davidson diagonalization with overlap
     ethr =  1.00E-02,  avg # of iterations =  1.5

     negative rho (up, down):  2.766E-01 6.009E-06
 
     Adding external electric field

     Computed dipole along edir(3) : 
        Dipole               -1.8871 Ry au,         -4.7965 Debye
        Dipole field         -0.0012 Ry au, 
 
        Potential amp.        0.1267 Ry
        Total length         54.2615 bohr
 
 
     Adding external electric field

     Computed dipole along edir(3) : 
        Dipole               -1.8871 Ry au,         -4.7965 Debye
        Dipole field         -0.0012 Ry au, 
 
        Potential amp.        0.1267 Ry
        Total length         54.2615 bohr
 

     total cpu time spent up to now is       64.1 secs

     total energy              =   -7300.90531418 Ry
     estimated scf accuracy    <      97.22297923 Ry

     total magnetization       =   120.62 Bohr mag/cell
     absolute magnetization    =   175.42 Bohr mag/cell

     iteration #  4     ecut=    50.00 Ry     beta= 0.10
     Davidson diagonalization with overlap
     ethr =  9.02E-03,  avg # of iterations =  1.0

     negative rho (up, down):  2.041E-01 5.964E-07
 
     Adding external electric field

     Computed dipole along edir(3) : 
        Dipole               -1.9156 Ry au,         -4.8689 Debye
        Dipole field         -0.0012 Ry au, 
 
        Potential amp.        0.1286 Ry
        Total length         54.2615 bohr
 
 
     Adding external electric field

     Computed dipole along edir(3) : 
        Dipole               -1.9156 Ry au,         -4.8689 Debye
        Dipole field         -0.0012 Ry au, 
 
        Potential amp.        0.1286 Ry
        Total length         54.2615 bohr
 

     total cpu time spent up to now is       75.3 secs

     total energy              =   -7333.19875971 Ry
     estimated scf accuracy    <      75.09779191 Ry

     total magnetization       =   102.64 Bohr mag/cell
     absolute magnetization    =   159.70 Bohr mag/cell

     iteration #  5     ecut=    50.00 Ry     beta= 0.10
     Davidson diagonalization with overlap
     ethr =  6.97E-03,  avg # of iterations =  1.5

     negative rho (up, down):  2.151E-03 2.746E-09
 
     Adding external electric field

     Computed dipole along edir(3) : 
        Dipole               -1.2552 Ry au,         -3.1905 Debye
        Dipole field         -0.0008 Ry au, 
 
        Potential amp.        0.0842 Ry
        Total length         54.2615 bohr
 
 
     Adding external electric field

     Computed dipole along edir(3) : 
        Dipole               -1.2552 Ry au,         -3.1905 Debye
        Dipole field         -0.0008 Ry au, 
 
        Potential amp.        0.0842 Ry
        Total length         54.2615 bohr
 

     total cpu time spent up to now is       87.1 secs

     total energy              =   -7389.16496188 Ry
     estimated scf accuracy    <      56.89997147 Ry

     total magnetization       =    88.00 Bohr mag/cell
     absolute magnetization    =   143.43 Bohr mag/cell

     iteration #  6     ecut=    50.00 Ry     beta= 0.10
     Davidson diagonalization with overlap
     ethr =  5.28E-03,  avg # of iterations =  1.5

     negative rho (up, down):  6.220E-06 3.744E-05
 
     Adding external electric field

     Computed dipole along edir(3) : 
        Dipole               -0.9582 Ry au,         -2.4355 Debye
        Dipole field         -0.0006 Ry au, 
 
        Potential amp.        0.0643 Ry
        Total length         54.2615 bohr
 
 
     Adding external electric field

     Computed dipole along edir(3) : 
        Dipole               -0.9582 Ry au,         -2.4355 Debye
        Dipole field         -0.0006 Ry au, 
 
        Potential amp.        0.0643 Ry
        Total length         54.2615 bohr
 

     total cpu time spent up to now is       99.7 secs

     total energy              =   -7395.98130260 Ry
     estimated scf accuracy    <       7.84850579 Ry

     total magnetization       =    79.30 Bohr mag/cell
     absolute magnetization    =   109.99 Bohr mag/cell

     iteration #  7     ecut=    50.00 Ry     beta= 0.10
     Davidson diagonalization with overlap
     ethr =  7.28E-04,  avg # of iterations =  7.0

     negative rho (up, down):  5.717E-06 3.063E-05
 
     Adding external electric field

     Computed dipole along edir(3) : 
        Dipole               -0.9751 Ry au,         -2.4784 Debye
        Dipole field         -0.0006 Ry au, 
 
        Potential amp.        0.0654 Ry
        Total length         54.2615 bohr
 
 
     Adding external electric field

     Computed dipole along edir(3) : 
        Dipole               -0.9751 Ry au,         -2.4784 Debye
        Dipole field         -0.0006 Ry au, 
 
        Potential amp.        0.0654 Ry
        Total length         54.2615 bohr
 

     total cpu time spent up to now is      121.5 secs

     total energy              =   -7397.64295924 Ry
     estimated scf accuracy    <       9.21401374 Ry

     total magnetization       =    71.99 Bohr mag/cell
     absolute magnetization    =    89.15 Bohr mag/cell

     iteration #  8     ecut=    50.00 Ry     beta= 0.10
     Davidson diagonalization with overlap
     ethr =  7.28E-04,  avg # of iterations =  1.0

     negative rho (up, down):  8.057E-06 4.027E-05
 
     Adding external electric field

     Computed dipole along edir(3) : 
        Dipole               -0.8455 Ry au,         -2.1490 Debye
        Dipole field         -0.0005 Ry au, 
 
        Potential amp.        0.0567 Ry
        Total length         54.2615 bohr
 
 
     Adding external electric field

     Computed dipole along edir(3) : 
        Dipole               -0.8455 Ry au,         -2.1490 Debye
        Dipole field         -0.0005 Ry au, 
 
        Potential amp.        0.0567 Ry
        Total length         54.2615 bohr
 

     total cpu time spent up to now is      131.8 secs

     total energy              =   -7397.41229659 Ry
     estimated scf accuracy    <      11.36846882 Ry

     total magnetization       =    71.23 Bohr mag/cell
     absolute magnetization    =    88.39 Bohr mag/cell

     iteration #  9     ecut=    50.00 Ry     beta= 0.10
     Davidson diagonalization with overlap
     ethr =  7.28E-04,  avg # of iterations =  1.0

     negative rho (up, down):  1.256E-05 6.424E-05
 
     Adding external electric field

     Computed dipole along edir(3) : 
        Dipole               -0.8801 Ry au,         -2.2370 Debye
        Dipole field         -0.0005 Ry au, 
 
        Potential amp.        0.0591 Ry
        Total length         54.2615 bohr
 
 
     Adding external electric field

     Computed dipole along edir(3) : 
        Dipole               -0.8801 Ry au,         -2.2370 Debye
        Dipole field         -0.0005 Ry au, 
 
        Potential amp.        0.0591 Ry
        Total length         54.2615 bohr
 

     total cpu time spent up to now is      142.1 secs

     total energy              =   -7397.48239024 Ry
     estimated scf accuracy    <       5.57522913 Ry

     total magnetization       =    74.04 Bohr mag/cell
     absolute magnetization    =    88.95 Bohr mag/cell

     iteration # 10     ecut=    50.00 Ry     beta= 0.10
     Davidson diagonalization with overlap
     ethr =  5.17E-04,  avg # of iterations =  1.5

     negative rho (up, down):  1.280E-05 5.565E-05
 
     Adding external electric field

     Computed dipole along edir(3) : 
        Dipole               -0.9611 Ry au,         -2.4428 Debye
        Dipole field         -0.0006 Ry au, 
 
        Potential amp.        0.0645 Ry
        Total length         54.2615 bohr
 
 
     Adding external electric field

     Computed dipole along edir(3) : 
        Dipole               -0.9611 Ry au,         -2.4428 Debye
        Dipole field         -0.0006 Ry au, 
 
        Potential amp.        0.0645 Ry
        Total length         54.2615 bohr
 

     total cpu time spent up to now is      153.6 secs

     total energy              =   -7397.58215722 Ry
     estimated scf accuracy    <       2.25342692 Ry

     total magnetization       =    78.56 Bohr mag/cell
     absolute magnetization    =    91.01 Bohr mag/cell

     iteration # 11     ecut=    50.00 Ry     beta= 0.10
     Davidson diagonalization with overlap
     ethr =  2.09E-04,  avg # of iterations =  1.5

     negative rho (up, down):  4.512E-05 2.017E-04
 
     Adding external electric field

     Computed dipole along edir(3) : 
        Dipole               -1.0719 Ry au,         -2.7245 Debye
        Dipole field         -0.0007 Ry au, 
 
        Potential amp.        0.0719 Ry
        Total length         54.2615 bohr
 
 
     Adding external electric field

     Computed dipole along edir(3) : 
        Dipole               -1.0719 Ry au,         -2.7245 Debye
        Dipole field         -0.0007 Ry au, 
 
        Potential amp.        0.0719 Ry
        Total length         54.2615 bohr
 

     total cpu time spent up to now is      164.1 secs

     total energy              =   -7397.71288409 Ry
     estimated scf accuracy    <       1.70822033 Ry

     total magnetization       =    77.37 Bohr mag/cell
     absolute magnetization    =    89.40 Bohr mag/cell

     iteration # 12     ecut=    50.00 Ry     beta= 0.10
     Davidson diagonalization with overlap
     ethr =  1.58E-04,  avg # of iterations = 12.0

     negative rho (up, down):  3.876E-05 1.208E-04
 
     Adding external electric field

     Computed dipole along edir(3) : 
        Dipole               -1.0423 Ry au,         -2.6492 Debye
        Dipole field         -0.0006 Ry au, 
 
        Potential amp.        0.0700 Ry
        Total length         54.2615 bohr
 
 
     Adding external electric field

     Computed dipole along edir(3) : 
        Dipole               -1.0423 Ry au,         -2.6492 Debye
        Dipole field         -0.0006 Ry au, 
 
        Potential amp.        0.0700 Ry
        Total length         54.2615 bohr
 

     total cpu time spent up to now is      184.7 secs

     total energy              =   -7397.87711463 Ry
     estimated scf accuracy    <       0.74260393 Ry

     total magnetization       =    81.72 Bohr mag/cell
     absolute magnetization    =    89.12 Bohr mag/cell

     iteration # 13     ecut=    50.00 Ry     beta= 0.10
     Davidson diagonalization with overlap
     ethr =  6.89E-05,  avg # of iterations =  1.5

     negative rho (up, down):  9.536E-07 7.311E-06
 
     Adding external electric field

     Computed dipole along edir(3) : 
        Dipole               -0.7581 Ry au,         -1.9268 Debye
        Dipole field         -0.0005 Ry au, 
 
        Potential amp.        0.0509 Ry
        Total length         54.2615 bohr
 
 
     Adding external electric field

     Computed dipole along edir(3) : 
        Dipole               -0.7581 Ry au,         -1.9268 Debye
        Dipole field         -0.0005 Ry au, 
 
        Potential amp.        0.0509 Ry
        Total length         54.2615 bohr
 

     total cpu time spent up to now is      195.6 secs

     total energy              =   -7397.94962682 Ry
     estimated scf accuracy    <       0.69351111 Ry

     total magnetization       =    81.83 Bohr mag/cell
     absolute magnetization    =    88.80 Bohr mag/cell

     iteration # 14     ecut=    50.00 Ry     beta= 0.10
     Davidson diagonalization with overlap
     ethr =  6.43E-05,  avg # of iterations =  2.0

     negative rho (up, down):  1.910E-06 2.486E-05
 
     Adding external electric field

     Computed dipole along edir(3) : 
        Dipole               -0.8577 Ry au,         -2.1802 Debye
        Dipole field         -0.0005 Ry au, 
 
        Potential amp.        0.0576 Ry
        Total length         54.2615 bohr
 
 
     Adding external electric field

     Computed dipole along edir(3) : 
        Dipole               -0.8577 Ry au,         -2.1802 Debye
        Dipole field         -0.0005 Ry au, 
 
        Potential amp.        0.0576 Ry
        Total length         54.2615 bohr
 

     total cpu time spent up to now is      206.6 secs

     total energy              =   -7398.02467014 Ry
     estimated scf accuracy    <       2.83941458 Ry

     total magnetization       =    80.35 Bohr mag/cell
     absolute magnetization    =    85.16 Bohr mag/cell

     iteration # 15     ecut=    50.00 Ry     beta= 0.10
     Davidson diagonalization with overlap
     ethr =  6.43E-05,  avg # of iterations =  1.5

     negative rho (up, down):  3.570E-05 1.132E-04
 
     Adding external electric field

     Computed dipole along edir(3) : 
        Dipole               -0.9140 Ry au,         -2.3233 Debye
        Dipole field         -0.0006 Ry au, 
 
        Potential amp.        0.0613 Ry
        Total length         54.2615 bohr
 
 
     Adding external electric field

     Computed dipole along edir(3) : 
        Dipole               -0.9140 Ry au,         -2.3233 Debye
        Dipole field         -0.0006 Ry au, 
 
        Potential amp.        0.0613 Ry
        Total length         54.2615 bohr
 

     total cpu time spent up to now is      216.7 secs

     total energy              =   -7398.03800357 Ry
     estimated scf accuracy    <       1.11419412 Ry

     total magnetization       =    80.43 Bohr mag/cell
     absolute magnetization    =    83.98 Bohr mag/cell

     iteration # 16     ecut=    50.00 Ry     beta= 0.10
     Davidson diagonalization with overlap
     ethr =  6.43E-05,  avg # of iterations =  1.0

     negative rho (up, down):  7.535E-05 9.663E-05
 
     Adding external electric field

     Computed dipole along edir(3) : 
        Dipole               -0.9197 Ry au,         -2.3377 Debye
        Dipole field         -0.0006 Ry au, 
 
        Potential amp.        0.0617 Ry
        Total length         54.2615 bohr
 
 
     Adding external electric field

     Computed dipole along edir(3) : 
        Dipole               -0.9197 Ry au,         -2.3377 Debye
        Dipole field         -0.0006 Ry au, 
 
        Potential amp.        0.0617 Ry
        Total length         54.2615 bohr
 

     total cpu time spent up to now is      226.5 secs

     total energy              =   -7398.03219722 Ry
     estimated scf accuracy    <       0.37838137 Ry

     total magnetization       =    80.71 Bohr mag/cell
     absolute magnetization    =    83.45 Bohr mag/cell

     iteration # 17     ecut=    50.00 Ry     beta= 0.10
     Davidson diagonalization with overlap
     ethr =  3.51E-05,  avg # of iterations =  2.0

     negative rho (up, down):  1.298E-04 5.721E-05
 
     Adding external electric field

     Computed dipole along edir(3) : 
        Dipole               -0.9183 Ry au,         -2.3340 Debye
        Dipole field         -0.0006 Ry au, 
 
        Potential amp.        0.0616 Ry
        Total length         54.2615 bohr
 
 
     Adding external electric field

     Computed dipole along edir(3) : 
        Dipole               -0.9183 Ry au,         -2.3340 Debye
        Dipole field         -0.0006 Ry au, 
 
        Potential amp.        0.0616 Ry
        Total length         54.2615 bohr
 

     total cpu time spent up to now is      237.5 secs

     total energy              =   -7398.03788451 Ry
     estimated scf accuracy    <       0.12768819 Ry

     total magnetization       =    80.53 Bohr mag/cell
     absolute magnetization    =    82.75 Bohr mag/cell

     iteration # 18     ecut=    50.00 Ry     beta= 0.10
     Davidson diagonalization with overlap
     ethr =  1.18E-05,  avg # of iterations = 12.0

     negative rho (up, down):  1.540E-04 7.025E-05
 
     Adding external electric field

     Computed dipole along edir(3) : 
        Dipole               -0.9063 Ry au,         -2.3036 Debye
        Dipole field         -0.0006 Ry au, 
 
        Potential amp.        0.0608 Ry
        Total length         54.2615 bohr
 
 
     Adding external electric field

     Computed dipole along edir(3) : 
        Dipole               -0.9063 Ry au,         -2.3036 Debye
        Dipole field         -0.0006 Ry au, 
 
        Potential amp.        0.0608 Ry
        Total length         54.2615 bohr
 

     total cpu time spent up to now is      257.8 secs

     total energy              =   -7398.03958154 Ry
     estimated scf accuracy    <       0.06932360 Ry

     total magnetization       =    80.69 Bohr mag/cell
     absolute magnetization    =    82.72 Bohr mag/cell

     iteration # 19     ecut=    50.00 Ry     beta= 0.10
     Davidson diagonalization with overlap
     ethr =  6.43E-06,  avg # of iterations = 11.0

     negative rho (up, down):  7.018E-05 5.211E-06
 
     Adding external electric field

     Computed dipole along edir(3) : 
        Dipole               -0.8225 Ry au,         -2.0906 Debye
        Dipole field         -0.0005 Ry au, 
 
        Potential amp.        0.0552 Ry
        Total length         54.2615 bohr
 
 
     Adding external electric field

     Computed dipole along edir(3) : 
        Dipole               -0.8225 Ry au,         -2.0906 Debye
        Dipole field         -0.0005 Ry au, 
 
        Potential amp.        0.0552 Ry
        Total length         54.2615 bohr
 

     total cpu time spent up to now is      277.3 secs

     total energy              =   -7398.03597207 Ry
     estimated scf accuracy    <       0.05130506 Ry

     total magnetization       =    80.52 Bohr mag/cell
     absolute magnetization    =    82.30 Bohr mag/cell

     iteration # 20     ecut=    50.00 Ry     beta= 0.10
     Davidson diagonalization with overlap
     ethr =  4.76E-06,  avg # of iterations =  2.0

     negative rho (up, down):  8.341E-05 7.370E-06
 
     Adding external electric field

     Computed dipole along edir(3) : 
        Dipole               -0.8330 Ry au,         -2.1172 Debye
        Dipole field         -0.0005 Ry au, 
 
        Potential amp.        0.0559 Ry
        Total length         54.2615 bohr
 
 
     Adding external electric field

     Computed dipole along edir(3) : 
        Dipole               -0.8330 Ry au,         -2.1172 Debye
        Dipole field         -0.0005 Ry au, 
 
        Potential amp.        0.0559 Ry
        Total length         54.2615 bohr
 

     total cpu time spent up to now is      288.4 secs

     total energy              =   -7398.03880040 Ry
     estimated scf accuracy    <       0.07439173 Ry

     total magnetization       =    80.79 Bohr mag/cell
     absolute magnetization    =    82.32 Bohr mag/cell

     iteration # 21     ecut=    50.00 Ry     beta= 0.10
     Davidson diagonalization with overlap
     ethr =  4.76E-06,  avg # of iterations =  1.0

     negative rho (up, down):  7.602E-05 9.151E-06
 
     Adding external electric field

     Computed dipole along edir(3) : 
        Dipole               -0.8142 Ry au,         -2.0694 Debye
        Dipole field         -0.0005 Ry au, 
 
        Potential amp.        0.0546 Ry
        Total length         54.2615 bohr
 
 
     Adding external electric field

     Computed dipole along edir(3) : 
        Dipole               -0.8142 Ry au,         -2.0694 Debye
        Dipole field         -0.0005 Ry au, 
 
        Potential amp.        0.0546 Ry
        Total length         54.2615 bohr
 

     total cpu time spent up to now is      297.4 secs

     total energy              =   -7398.03845844 Ry
     estimated scf accuracy    <       0.05727434 Ry

     total magnetization       =    80.72 Bohr mag/cell
     absolute magnetization    =    82.26 Bohr mag/cell

     iteration # 22     ecut=    50.00 Ry     beta= 0.10
     Davidson diagonalization with overlap
     ethr =  4.76E-06,  avg # of iterations =  1.5

     negative rho (up, down):  1.490E-04 2.700E-05
 
     Adding external electric field

     Computed dipole along edir(3) : 
        Dipole               -0.7178 Ry au,         -1.8246 Debye
        Dipole field         -0.0004 Ry au, 
 
        Potential amp.        0.0482 Ry
        Total length         54.2615 bohr
 
 
     Adding external electric field

     Computed dipole along edir(3) : 
        Dipole               -0.7178 Ry au,         -1.8246 Debye
        Dipole field         -0.0004 Ry au, 
 
        Potential amp.        0.0482 Ry
        Total length         54.2615 bohr
 

     total cpu time spent up to now is      307.3 secs

     total energy              =   -7398.03249116 Ry
     estimated scf accuracy    <       0.04297854 Ry

     total magnetization       =    80.59 Bohr mag/cell
     absolute magnetization    =    82.11 Bohr mag/cell

     iteration # 23     ecut=    50.00 Ry     beta= 0.10
     Davidson diagonalization with overlap
     ethr =  3.99E-06,  avg # of iterations =  2.0

     negative rho (up, down):  9.697E-05 1.489E-05
 
     Adding external electric field

     Computed dipole along edir(3) : 
        Dipole               -0.7091 Ry au,         -1.8025 Debye
        Dipole field         -0.0004 Ry au, 
 
        Potential amp.        0.0476 Ry
        Total length         54.2615 bohr
 
 
     Adding external electric field

     Computed dipole along edir(3) : 
        Dipole               -0.7091 Ry au,         -1.8025 Debye
        Dipole field         -0.0004 Ry au, 
 
        Potential amp.        0.0476 Ry
        Total length         54.2615 bohr
 

     total cpu time spent up to now is      318.3 secs

     total energy              =   -7398.03493706 Ry
     estimated scf accuracy    <       0.03901119 Ry

     total magnetization       =    80.43 Bohr mag/cell
     absolute magnetization    =    81.71 Bohr mag/cell

     iteration # 24     ecut=    50.00 Ry     beta= 0.10
     Davidson diagonalization with overlap
     ethr =  3.62E-06,  avg # of iterations =  1.0

     negative rho (up, down):  6.664E-05 1.085E-05
 
     Adding external electric field

     Computed dipole along edir(3) : 
        Dipole               -0.7163 Ry au,         -1.8207 Debye
        Dipole field         -0.0004 Ry au, 
 
        Potential amp.        0.0481 Ry
        Total length         54.2615 bohr
 
 
     Adding external electric field

     Computed dipole along edir(3) : 
        Dipole               -0.7163 Ry au,         -1.8207 Debye
        Dipole field         -0.0004 Ry au, 
 
        Potential amp.        0.0481 Ry
        Total length         54.2615 bohr
 

     total cpu time spent up to now is      327.5 secs

     total energy              =   -7398.03651611 Ry
     estimated scf accuracy    <       0.03984994 Ry

     total magnetization       =    80.52 Bohr mag/cell
     absolute magnetization    =    81.81 Bohr mag/cell

     iteration # 25     ecut=    50.00 Ry     beta= 0.10
     Davidson diagonalization with overlap
     ethr =  3.62E-06,  avg # of iterations =  1.5

     negative rho (up, down):  4.222E-05 4.835E-06
 
     Adding external electric field

     Computed dipole along edir(3) : 
        Dipole               -0.6935 Ry au,         -1.7627 Debye
        Dipole field         -0.0004 Ry au, 
 
        Potential amp.        0.0465 Ry
        Total length         54.2615 bohr
 
 
     Adding external electric field

     Computed dipole along edir(3) : 
        Dipole               -0.6935 Ry au,         -1.7627 Debye
        Dipole field         -0.0004 Ry au, 
 
        Potential amp.        0.0465 Ry
        Total length         54.2615 bohr
 

     total cpu time spent up to now is      337.7 secs

     total energy              =   -7398.03615037 Ry
     estimated scf accuracy    <       0.04174659 Ry

     total magnetization       =    80.43 Bohr mag/cell
     absolute magnetization    =    81.80 Bohr mag/cell

     iteration # 26     ecut=    50.00 Ry     beta= 0.10
     Davidson diagonalization with overlap
     ethr =  3.62E-06,  avg # of iterations =  1.5

     negative rho (up, down):  7.163E-05 1.024E-05
 
     Adding external electric field

     Computed dipole along edir(3) : 
        Dipole               -0.7139 Ry au,         -1.8146 Debye
        Dipole field         -0.0004 Ry au, 
 
        Potential amp.        0.0479 Ry
        Total length         54.2615 bohr
 
 
     Adding external electric field

     Computed dipole along edir(3) : 
        Dipole               -0.7139 Ry au,         -1.8146 Debye
        Dipole field         -0.0004 Ry au, 
 
        Potential amp.        0.0479 Ry
        Total length         54.2615 bohr
 

     total cpu time spent up to now is      347.8 secs

     total energy              =   -7398.03593179 Ry
     estimated scf accuracy    <       0.06474643 Ry

     total magnetization       =    80.60 Bohr mag/cell
     absolute magnetization    =    82.02 Bohr mag/cell

     iteration # 27     ecut=    50.00 Ry     beta= 0.10
     Davidson diagonalization with overlap
     ethr =  3.62E-06,  avg # of iterations =  1.5

     negative rho (up, down):  8.824E-05 1.290E-05
 
     Adding external electric field

     Computed dipole along edir(3) : 
        Dipole               -0.7199 Ry au,         -1.8299 Debye
        Dipole field         -0.0004 Ry au, 
 
        Potential amp.        0.0483 Ry
        Total length         54.2615 bohr
 
 
     Adding external electric field

     Computed dipole along edir(3) : 
        Dipole               -0.7199 Ry au,         -1.8299 Debye
        Dipole field         -0.0004 Ry au, 
 
        Potential amp.        0.0483 Ry
        Total length         54.2615 bohr
 

     total cpu time spent up to now is      358.4 secs

     total energy              =   -7398.03543268 Ry
     estimated scf accuracy    <       0.05357709 Ry

     total magnetization       =    80.56 Bohr mag/cell
     absolute magnetization    =    81.98 Bohr mag/cell

     iteration # 28     ecut=    50.00 Ry     beta= 0.10
     Davidson diagonalization with overlap
     ethr =  3.62E-06,  avg # of iterations =  1.5

     negative rho (up, down):  2.887E-05 5.824E-06
 
     Adding external electric field

     Computed dipole along edir(3) : 
        Dipole               -0.7236 Ry au,         -1.8393 Debye
        Dipole field         -0.0004 Ry au, 
 
        Potential amp.        0.0486 Ry
        Total length         54.2615 bohr
 
 
     Adding external electric field

     Computed dipole along edir(3) : 
        Dipole               -0.7236 Ry au,         -1.8393 Debye
        Dipole field         -0.0004 Ry au, 
 
        Potential amp.        0.0486 Ry
        Total length         54.2615 bohr
 

     total cpu time spent up to now is      370.2 secs

     total energy              =   -7398.03793476 Ry
     estimated scf accuracy    <       0.03645490 Ry

     total magnetization       =    80.48 Bohr mag/cell
     absolute magnetization    =    81.91 Bohr mag/cell

     iteration # 29     ecut=    50.00 Ry     beta= 0.10
     Davidson diagonalization with overlap
     ethr =  3.38E-06,  avg # of iterations =  1.5

     negative rho (up, down):  5.034E-05 1.197E-05
 
     Adding external electric field

     Computed dipole along edir(3) : 
        Dipole               -0.6244 Ry au,         -1.5871 Debye
        Dipole field         -0.0004 Ry au, 
 
        Potential amp.        0.0419 Ry
        Total length         54.2615 bohr
 
 
     Adding external electric field

     Computed dipole along edir(3) : 
        Dipole               -0.6244 Ry au,         -1.5871 Debye
        Dipole field         -0.0004 Ry au, 
 
        Potential amp.        0.0419 Ry
        Total length         54.2615 bohr
 

     total cpu time spent up to now is      380.8 secs

     total energy              =   -7398.03812817 Ry
     estimated scf accuracy    <       0.08316327 Ry

     total magnetization       =    80.63 Bohr mag/cell
     absolute magnetization    =    82.03 Bohr mag/cell

     iteration # 30     ecut=    50.00 Ry     beta= 0.10
     Davidson diagonalization with overlap
     ethr =  3.38E-06,  avg # of iterations =  2.0

     negative rho (up, down):  1.746E-05 2.893E-06
 
     Adding external electric field

     Computed dipole along edir(3) : 
        Dipole               -0.6563 Ry au,         -1.6681 Debye
        Dipole field         -0.0004 Ry au, 
 
        Potential amp.        0.0440 Ry
        Total length         54.2615 bohr
 
 
     Adding external electric field

     Computed dipole along edir(3) : 
        Dipole               -0.6563 Ry au,         -1.6681 Debye
        Dipole field         -0.0004 Ry au, 
 
        Potential amp.        0.0440 Ry
        Total length         54.2615 bohr
 

     total cpu time spent up to now is      392.7 secs

     total energy              =   -7398.03881317 Ry
     estimated scf accuracy    <       0.09981141 Ry

     total magnetization       =    80.69 Bohr mag/cell
     absolute magnetization    =    82.19 Bohr mag/cell

     iteration # 31     ecut=    50.00 Ry     beta= 0.10
     Davidson diagonalization with overlap
     ethr =  3.38E-06,  avg # of iterations =  1.5

     negative rho (up, down):  3.348E-05 6.678E-06
 
     Adding external electric field

     Computed dipole along edir(3) : 
        Dipole               -0.6305 Ry au,         -1.6026 Debye
        Dipole field         -0.0004 Ry au, 
 
        Potential amp.        0.0423 Ry
        Total length         54.2615 bohr
 
 
     Adding external electric field

     Computed dipole along edir(3) : 
        Dipole               -0.6305 Ry au,         -1.6026 Debye
        Dipole field         -0.0004 Ry au, 
 
        Potential amp.        0.0423 Ry
        Total length         54.2615 bohr
 

     total cpu time spent up to now is      402.6 secs

     total energy              =   -7398.03877256 Ry
     estimated scf accuracy    <       0.11008247 Ry

     total magnetization       =    80.73 Bohr mag/cell
     absolute magnetization    =    82.18 Bohr mag/cell

     iteration # 32     ecut=    50.00 Ry     beta= 0.10
     Davidson diagonalization with overlap
     ethr =  3.38E-06,  avg # of iterations =  1.5

     negative rho (up, down):  3.947E-04 1.836E-04
 
     Adding external electric field

     Computed dipole along edir(3) : 
        Dipole               -0.6040 Ry au,         -1.5353 Debye
        Dipole field         -0.0004 Ry au, 
 
        Potential amp.        0.0405 Ry
        Total length         54.2615 bohr
 
 
     Adding external electric field

     Computed dipole along edir(3) : 
        Dipole               -0.6040 Ry au,         -1.5353 Debye
        Dipole field         -0.0004 Ry au, 
 
        Potential amp.        0.0405 Ry
        Total length         54.2615 bohr
 

     total cpu time spent up to now is      412.6 secs

     total energy              =   -7398.03149741 Ry
     estimated scf accuracy    <       0.10713238 Ry

     total magnetization       =    80.71 Bohr mag/cell
     absolute magnetization    =    82.15 Bohr mag/cell

     iteration # 33     ecut=    50.00 Ry     beta= 0.10
     Davidson diagonalization with overlap
     ethr =  3.38E-06,  avg # of iterations =  2.0

     negative rho (up, down):  9.764E-05 2.169E-05
 
     Adding external electric field

     Computed dipole along edir(3) : 
        Dipole               -0.6509 Ry au,         -1.6543 Debye
        Dipole field         -0.0004 Ry au, 
 
        Potential amp.        0.0437 Ry
        Total length         54.2615 bohr
 
 
     Adding external electric field

     Computed dipole along edir(3) : 
        Dipole               -0.6509 Ry au,         -1.6543 Debye
        Dipole field         -0.0004 Ry au, 
 
        Potential amp.        0.0437 Ry
        Total length         54.2615 bohr
 

     total cpu time spent up to now is      423.5 secs

     total energy              =   -7398.03599232 Ry
     estimated scf accuracy    <       0.06060868 Ry

     total magnetization       =    80.55 Bohr mag/cell
     absolute magnetization    =    81.81 Bohr mag/cell

     iteration # 34     ecut=    50.00 Ry     beta= 0.10
     Davidson diagonalization with overlap
     ethr =  3.38E-06,  avg # of iterations =  1.0

     negative rho (up, down):  1.512E-04 3.297E-05
 
     Adding external electric field

     Computed dipole along edir(3) : 
        Dipole               -0.6574 Ry au,         -1.6710 Debye
        Dipole field         -0.0004 Ry au, 
 
        Potential amp.        0.0441 Ry
        Total length         54.2615 bohr
 
 
     Adding external electric field

     Computed dipole along edir(3) : 
        Dipole               -0.6574 Ry au,         -1.6710 Debye
        Dipole field         -0.0004 Ry au, 
 
        Potential amp.        0.0441 Ry
        Total length         54.2615 bohr
 

     total cpu time spent up to now is      433.1 secs

     total energy              =   -7398.03447679 Ry
     estimated scf accuracy    <       0.07055809 Ry

     total magnetization       =    80.66 Bohr mag/cell
     absolute magnetization    =    82.05 Bohr mag/cell

     iteration # 35     ecut=    50.00 Ry     beta= 0.10
     Davidson diagonalization with overlap
     ethr =  3.38E-06,  avg # of iterations =  1.5

     negative rho (up, down):  1.544E-04 4.010E-05
 
     Adding external electric field

     Computed dipole along edir(3) : 
        Dipole               -0.6249 Ry au,         -1.5883 Debye
        Dipole field         -0.0004 Ry au, 
 
        Potential amp.        0.0419 Ry
        Total length         54.2615 bohr
 
 
     Adding external electric field

     Computed dipole along edir(3) : 
        Dipole               -0.6249 Ry au,         -1.5883 Debye
        Dipole field         -0.0004 Ry au, 
 
        Potential amp.        0.0419 Ry
        Total length         54.2615 bohr
 

     total cpu time spent up to now is      443.0 secs

     total energy              =   -7398.03569738 Ry
     estimated scf accuracy    <       0.05185180 Ry

     total magnetization       =    80.57 Bohr mag/cell
     absolute magnetization    =    82.05 Bohr mag/cell

     iteration # 36     ecut=    50.00 Ry     beta= 0.10
     Davidson diagonalization with overlap
     ethr =  3.38E-06,  avg # of iterations =  1.0

     negative rho (up, down):  2.245E-04 1.309E-04
 
     Adding external electric field

     Computed dipole along edir(3) : 
        Dipole               -0.6294 Ry au,         -1.5998 Debye
        Dipole field         -0.0004 Ry au, 
 
        Potential amp.        0.0422 Ry
        Total length         54.2615 bohr
 
 
     Adding external electric field

     Computed dipole along edir(3) : 
        Dipole               -0.6294 Ry au,         -1.5998 Debye
        Dipole field         -0.0004 Ry au, 
 
        Potential amp.        0.0422 Ry
        Total length         54.2615 bohr
 

     total cpu time spent up to now is      452.3 secs

     total energy              =   -7398.03747109 Ry
     estimated scf accuracy    <       0.05608315 Ry

     total magnetization       =    80.60 Bohr mag/cell
     absolute magnetization    =    82.07 Bohr mag/cell

     iteration # 37     ecut=    50.00 Ry     beta= 0.10
     Davidson diagonalization with overlap
     ethr =  3.38E-06,  avg # of iterations =  1.5

     negative rho (up, down):  5.869E-04 3.788E-04
 
     Adding external electric field

     Computed dipole along edir(3) : 
        Dipole               -0.6129 Ry au,         -1.5578 Debye
        Dipole field         -0.0004 Ry au, 
 
        Potential amp.        0.0411 Ry
        Total length         54.2615 bohr
 
 
     Adding external electric field

     Computed dipole along edir(3) : 
        Dipole               -0.6129 Ry au,         -1.5578 Debye
        Dipole field         -0.0004 Ry au, 
 
        Potential amp.        0.0411 Ry
        Total length         54.2615 bohr
 

     total cpu time spent up to now is      462.5 secs

     total energy              =   -7398.03671423 Ry
     estimated scf accuracy    <       0.04271577 Ry

     total magnetization       =    80.47 Bohr mag/cell
     absolute magnetization    =    81.97 Bohr mag/cell

     iteration # 38     ecut=    50.00 Ry     beta= 0.10
     Davidson diagonalization with overlap
     ethr =  3.38E-06,  avg # of iterations =  1.5

     negative rho (up, down):  6.594E-04 4.836E-04
 
     Adding external electric field

     Computed dipole along edir(3) : 
        Dipole               -0.5524 Ry au,         -1.4039 Debye
        Dipole field         -0.0003 Ry au, 
 
        Potential amp.        0.0371 Ry
        Total length         54.2615 bohr
 
 
     Adding external electric field

     Computed dipole along edir(3) : 
        Dipole               -0.5524 Ry au,         -1.4039 Debye
        Dipole field         -0.0003 Ry au, 
 
        Potential amp.        0.0371 Ry
        Total length         54.2615 bohr
 

     total cpu time spent up to now is      472.6 secs

     total energy              =   -7398.03604189 Ry
     estimated scf accuracy    <       0.02726059 Ry

     total magnetization       =    80.25 Bohr mag/cell
     absolute magnetization    =    81.76 Bohr mag/cell

     iteration # 39     ecut=    50.00 Ry     beta= 0.10
     Davidson diagonalization with overlap
     ethr =  2.53E-06,  avg # of iterations =  2.0

     negative rho (up, down):  1.662E-03 1.463E-03
 
     Adding external electric field

     Computed dipole along edir(3) : 
        Dipole               -0.4901 Ry au,         -1.2458 Debye
        Dipole field         -0.0003 Ry au, 
 
        Potential amp.        0.0329 Ry
        Total length         54.2615 bohr
 
 
     Adding external electric field

     Computed dipole along edir(3) : 
        Dipole               -0.4901 Ry au,         -1.2458 Debye
        Dipole field         -0.0003 Ry au, 
 
        Potential amp.        0.0329 Ry
        Total length         54.2615 bohr
 

     total cpu time spent up to now is      483.2 secs

     total energy              =   -7398.03731955 Ry
     estimated scf accuracy    <       0.05650402 Ry

     total magnetization       =    80.52 Bohr mag/cell
     absolute magnetization    =    82.11 Bohr mag/cell

     iteration # 40     ecut=    50.00 Ry     beta= 0.10
     Davidson diagonalization with overlap
     ethr =  2.53E-06,  avg # of iterations =  2.0

     negative rho (up, down):  1.553E-03 1.292E-03
 
     Adding external electric field

     Computed dipole along edir(3) : 
        Dipole               -0.4914 Ry au,         -1.2489 Debye
        Dipole field         -0.0003 Ry au, 
 
        Potential amp.        0.0330 Ry
        Total length         54.2615 bohr
 
 
     Adding external electric field

     Computed dipole along edir(3) : 
        Dipole               -0.4914 Ry au,         -1.2489 Debye
        Dipole field         -0.0003 Ry au, 
 
        Potential amp.        0.0330 Ry
        Total length         54.2615 bohr
 

     total cpu time spent up to now is      493.8 secs

     total energy              =   -7398.03725533 Ry
     estimated scf accuracy    <       0.05664238 Ry

     total magnetization       =    80.52 Bohr mag/cell
     absolute magnetization    =    82.15 Bohr mag/cell

     iteration # 41     ecut=    50.00 Ry     beta= 0.10
     Davidson diagonalization with overlap
     ethr =  2.53E-06,  avg # of iterations =  1.5

     negative rho (up, down):  1.283E-03 1.040E-03
 
     Adding external electric field

     Computed dipole along edir(3) : 
        Dipole               -0.5006 Ry au,         -1.2723 Debye
        Dipole field         -0.0003 Ry au, 
 
        Potential amp.        0.0336 Ry
        Total length         54.2615 bohr
 
 
     Adding external electric field

     Computed dipole along edir(3) : 
        Dipole               -0.5006 Ry au,         -1.2723 Debye
        Dipole field         -0.0003 Ry au, 
 
        Potential amp.        0.0336 Ry
        Total length         54.2615 bohr
 

     total cpu time spent up to now is      504.0 secs

     total energy              =   -7398.03736020 Ry
     estimated scf accuracy    <       0.05250786 Ry

     total magnetization       =    80.52 Bohr mag/cell
     absolute magnetization    =    82.12 Bohr mag/cell

     iteration # 42     ecut=    50.00 Ry     beta= 0.10
     Davidson diagonalization with overlap
     ethr =  2.53E-06,  avg # of iterations =  2.0

     negative rho (up, down):  4.492E-04 2.877E-04
 
     Adding external electric field

     Computed dipole along edir(3) : 
        Dipole               -0.5598 Ry au,         -1.4229 Debye
        Dipole field         -0.0003 Ry au, 
 
        Potential amp.        0.0376 Ry
        Total length         54.2615 bohr
 
 
     Adding external electric field

     Computed dipole along edir(3) : 
        Dipole               -0.5598 Ry au,         -1.4229 Debye
        Dipole field         -0.0003 Ry au, 
 
        Potential amp.        0.0376 Ry
        Total length         54.2615 bohr
 

     total cpu time spent up to now is      514.8 secs

     total energy              =   -7398.03634563 Ry
     estimated scf accuracy    <       0.04806659 Ry

     total magnetization       =    80.53 Bohr mag/cell
     absolute magnetization    =    82.11 Bohr mag/cell

     iteration # 43     ecut=    50.00 Ry     beta= 0.10
     Davidson diagonalization with overlap
     ethr =  2.53E-06,  avg # of iterations =  2.0

     negative rho (up, down):  5.684E-04 3.527E-04
 
     Adding external electric field

     Computed dipole along edir(3) : 
        Dipole               -0.5065 Ry au,         -1.2873 Debye
        Dipole field         -0.0003 Ry au, 
 
        Potential amp.        0.0340 Ry
        Total length         54.2615 bohr
 
 
     Adding external electric field

     Computed dipole along edir(3) : 
        Dipole               -0.5065 Ry au,         -1.2873 Debye
        Dipole field         -0.0003 Ry au, 
 
        Potential amp.        0.0340 Ry
        Total length         54.2615 bohr
 

     total cpu time spent up to now is      525.7 secs

     total energy              =   -7398.03612369 Ry
     estimated scf accuracy    <       0.02659947 Ry

     total magnetization       =    80.48 Bohr mag/cell
     absolute magnetization    =    81.93 Bohr mag/cell

     iteration # 44     ecut=    50.00 Ry     beta= 0.10
     Davidson diagonalization with overlap
     ethr =  2.47E-06,  avg # of iterations =  1.5

     negative rho (up, down):  6.332E-04 4.172E-04
 
     Adding external electric field

     Computed dipole along edir(3) : 
        Dipole               -0.4770 Ry au,         -1.2125 Debye
        Dipole field         -0.0003 Ry au, 
 
        Potential amp.        0.0320 Ry
        Total length         54.2615 bohr
 
 
     Adding external electric field

     Computed dipole along edir(3) : 
        Dipole               -0.4770 Ry au,         -1.2125 Debye
        Dipole field         -0.0003 Ry au, 
 
        Potential amp.        0.0320 Ry
        Total length         54.2615 bohr
 

     total cpu time spent up to now is      535.6 secs

     total energy              =   -7398.03613039 Ry
     estimated scf accuracy    <       0.02732347 Ry

     total magnetization       =    80.49 Bohr mag/cell
     absolute magnetization    =    81.93 Bohr mag/cell

     iteration # 45     ecut=    50.00 Ry     beta= 0.10
     Davidson diagonalization with overlap
     ethr =  2.47E-06,  avg # of iterations =  2.0

     negative rho (up, down):  6.203E-04 4.620E-04
 
     Adding external electric field

     Computed dipole along edir(3) : 
        Dipole               -0.4589 Ry au,         -1.1664 Debye
        Dipole field         -0.0003 Ry au, 
 
        Potential amp.        0.0308 Ry
        Total length         54.2615 bohr
 
 
     Adding external electric field

     Computed dipole along edir(3) : 
        Dipole               -0.4589 Ry au,         -1.1664 Debye
        Dipole field         -0.0003 Ry au, 
 
        Potential amp.        0.0308 Ry
        Total length         54.2615 bohr
 

     total cpu time spent up to now is      546.0 secs

     total energy              =   -7398.03652485 Ry
     estimated scf accuracy    <       0.02515524 Ry

     total magnetization       =    80.46 Bohr mag/cell
     absolute magnetization    =    81.93 Bohr mag/cell

     iteration # 46     ecut=    50.00 Ry     beta= 0.10
     Davidson diagonalization with overlap
     ethr =  2.33E-06,  avg # of iterations =  1.5

     negative rho (up, down):  6.256E-04 4.693E-04
 
     Adding external electric field

     Computed dipole along edir(3) : 
        Dipole               -0.4633 Ry au,         -1.1777 Debye
        Dipole field         -0.0003 Ry au, 
 
        Potential amp.        0.0311 Ry
        Total length         54.2615 bohr
 
 
     Adding external electric field

     Computed dipole along edir(3) : 
        Dipole               -0.4633 Ry au,         -1.1777 Debye
        Dipole field         -0.0003 Ry au, 
 
        Potential amp.        0.0311 Ry
        Total length         54.2615 bohr
 

     total cpu time spent up to now is      555.6 secs

     total energy              =   -7398.03659096 Ry
     estimated scf accuracy    <       0.02288301 Ry

     total magnetization       =    80.43 Bohr mag/cell
     absolute magnetization    =    81.95 Bohr mag/cell

     iteration # 47     ecut=    50.00 Ry     beta= 0.10
     Davidson diagonalization with overlap
     ethr =  2.12E-06,  avg # of iterations =  1.0

     negative rho (up, down):  6.230E-04 4.865E-04
 
     Adding external electric field

     Computed dipole along edir(3) : 
        Dipole               -0.4611 Ry au,         -1.1720 Debye
        Dipole field         -0.0003 Ry au, 
 
        Potential amp.        0.0309 Ry
        Total length         54.2615 bohr
 
 
     Adding external electric field

     Computed dipole along edir(3) : 
        Dipole               -0.4611 Ry au,         -1.1720 Debye
        Dipole field         -0.0003 Ry au, 
 
        Potential amp.        0.0309 Ry
        Total length         54.2615 bohr
 

     total cpu time spent up to now is      565.0 secs

     total energy              =   -7398.03670854 Ry
     estimated scf accuracy    <       0.01915568 Ry

     total magnetization       =    80.40 Bohr mag/cell
     absolute magnetization    =    81.92 Bohr mag/cell

     iteration # 48     ecut=    50.00 Ry     beta= 0.10
     Davidson diagonalization with overlap
     ethr =  1.78E-06,  avg # of iterations =  2.0

     negative rho (up, down):  1.117E-03 9.789E-04
 
     Adding external electric field

     Computed dipole along edir(3) : 
        Dipole               -0.4153 Ry au,         -1.0557 Debye
        Dipole field         -0.0003 Ry au, 
 
        Potential amp.        0.0279 Ry
        Total length         54.2615 bohr
 
 
     Adding external electric field

     Computed dipole along edir(3) : 
        Dipole               -0.4153 Ry au,         -1.0557 Debye
        Dipole field         -0.0003 Ry au, 
 
        Potential amp.        0.0279 Ry
        Total length         54.2615 bohr
 

     total cpu time spent up to now is      575.3 secs

     total energy              =   -7398.03664901 Ry
     estimated scf accuracy    <       0.01692146 Ry

     total magnetization       =    80.37 Bohr mag/cell
     absolute magnetization    =    81.88 Bohr mag/cell

     iteration # 49     ecut=    50.00 Ry     beta= 0.10
     Davidson diagonalization with overlap
     ethr =  1.57E-06,  avg # of iterations =  2.0

     negative rho (up, down):  4.081E-04 3.039E-04
 
     Adding external electric field

     Computed dipole along edir(3) : 
        Dipole               -0.4529 Ry au,         -1.1511 Debye
        Dipole field         -0.0003 Ry au, 
 
        Potential amp.        0.0304 Ry
        Total length         54.2615 bohr
 
 
     Adding external electric field

     Computed dipole along edir(3) : 
        Dipole               -0.4529 Ry au,         -1.1511 Debye
        Dipole field         -0.0003 Ry au, 
 
        Potential amp.        0.0304 Ry
        Total length         54.2615 bohr
 

     total cpu time spent up to now is      585.8 secs

     total energy              =   -7398.03604989 Ry
     estimated scf accuracy    <       0.02123218 Ry

     total magnetization       =    80.39 Bohr mag/cell
     absolute magnetization    =    81.88 Bohr mag/cell

     iteration # 50     ecut=    50.00 Ry     beta= 0.10
     Davidson diagonalization with overlap
     ethr =  1.57E-06,  avg # of iterations =  2.0

     negative rho (up, down):  2.230E-04 1.603E-04
 
     Adding external electric field

     Computed dipole along edir(3) : 
        Dipole               -0.4572 Ry au,         -1.1621 Debye
        Dipole field         -0.0003 Ry au, 
 
        Potential amp.        0.0307 Ry
        Total length         54.2615 bohr
 
 
     Adding external electric field

     Computed dipole along edir(3) : 
        Dipole               -0.4572 Ry au,         -1.1621 Debye
        Dipole field         -0.0003 Ry au, 
 
        Potential amp.        0.0307 Ry
        Total length         54.2615 bohr
 

     total cpu time spent up to now is      596.4 secs

     total energy              =   -7398.03626993 Ry
     estimated scf accuracy    <       0.01498816 Ry

     total magnetization       =    80.34 Bohr mag/cell
     absolute magnetization    =    81.77 Bohr mag/cell

     iteration # 51     ecut=    50.00 Ry     beta= 0.10
     Davidson diagonalization with overlap
     ethr =  1.39E-06,  avg # of iterations =  1.5

     negative rho (up, down):  9.321E-04 7.806E-04
 
     Adding external electric field

     Computed dipole along edir(3) : 
        Dipole               -0.4170 Ry au,         -1.0600 Debye
        Dipole field         -0.0003 Ry au, 
 
        Potential amp.        0.0280 Ry
        Total length         54.2615 bohr
 
 
     Adding external electric field

     Computed dipole along edir(3) : 
        Dipole               -0.4170 Ry au,         -1.0600 Debye
        Dipole field         -0.0003 Ry au, 
 
        Potential amp.        0.0280 Ry
        Total length         54.2615 bohr
 

     total cpu time spent up to now is      606.4 secs

     total energy              =   -7398.03631601 Ry
     estimated scf accuracy    <       0.01600375 Ry

     total magnetization       =    80.32 Bohr mag/cell
     absolute magnetization    =    81.75 Bohr mag/cell

     iteration # 52     ecut=    50.00 Ry     beta= 0.10
     Davidson diagonalization with overlap
     ethr =  1.39E-06,  avg # of iterations =  2.0

     negative rho (up, down):  3.715E-04 2.804E-04
 
     Adding external electric field

     Computed dipole along edir(3) : 
        Dipole               -0.4520 Ry au,         -1.1489 Debye
        Dipole field         -0.0003 Ry au, 
 
        Potential amp.        0.0303 Ry
        Total length         54.2615 bohr
 
 
     Adding external electric field

     Computed dipole along edir(3) : 
        Dipole               -0.4520 Ry au,         -1.1489 Debye
        Dipole field         -0.0003 Ry au, 
 
        Potential amp.        0.0303 Ry
        Total length         54.2615 bohr
 

     total cpu time spent up to now is      616.7 secs

     total energy              =   -7398.03636335 Ry
     estimated scf accuracy    <       0.01651941 Ry

     total magnetization       =    80.35 Bohr mag/cell
     absolute magnetization    =    81.79 Bohr mag/cell

     iteration # 53     ecut=    50.00 Ry     beta= 0.10
     Davidson diagonalization with overlap
     ethr =  1.39E-06,  avg # of iterations =  2.0

     negative rho (up, down):  2.922E-04 2.216E-04
 
     Adding external electric field

     Computed dipole along edir(3) : 
        Dipole               -0.4761 Ry au,         -1.2101 Debye
        Dipole field         -0.0003 Ry au, 
 
        Potential amp.        0.0320 Ry
        Total length         54.2615 bohr
 
 
     Adding external electric field

     Computed dipole along edir(3) : 
        Dipole               -0.4761 Ry au,         -1.2101 Debye
        Dipole field         -0.0003 Ry au, 
 
        Potential amp.        0.0320 Ry
        Total length         54.2615 bohr
 

     total cpu time spent up to now is      627.1 secs

     total energy              =   -7398.03616031 Ry
     estimated scf accuracy    <       0.01846055 Ry

     total magnetization       =    80.37 Bohr mag/cell
     absolute magnetization    =    81.81 Bohr mag/cell

     iteration # 54     ecut=    50.00 Ry     beta= 0.10
     Davidson diagonalization with overlap
     ethr =  1.39E-06,  avg # of iterations =  2.0

     negative rho (up, down):  6.619E-04 4.551E-04
 
     Adding external electric field

     Computed dipole along edir(3) : 
        Dipole               -0.4247 Ry au,         -1.0795 Debye
        Dipole field         -0.0003 Ry au, 
 
        Potential amp.        0.0285 Ry
        Total length         54.2615 bohr
 
 
     Adding external electric field

     Computed dipole along edir(3) : 
        Dipole               -0.4247 Ry au,         -1.0795 Debye
        Dipole field         -0.0003 Ry au, 
 
        Potential amp.        0.0285 Ry
        Total length         54.2615 bohr
 

     total cpu time spent up to now is      637.6 secs

     total energy              =   -7398.03543035 Ry
     estimated scf accuracy    <       0.01672888 Ry

     total magnetization       =    80.35 Bohr mag/cell
     absolute magnetization    =    81.77 Bohr mag/cell

     iteration # 55     ecut=    50.00 Ry     beta= 0.10
     Davidson diagonalization with overlap
     ethr =  1.39E-06,  avg # of iterations =  1.5

     negative rho (up, down):  8.928E-04 6.287E-04
 
     Adding external electric field

     Computed dipole along edir(3) : 
        Dipole               -0.4089 Ry au,         -1.0394 Debye
        Dipole field         -0.0003 Ry au, 
 
        Potential amp.        0.0274 Ry
        Total length         54.2615 bohr
 
 
     Adding external electric field

     Computed dipole along edir(3) : 
        Dipole               -0.4089 Ry au,         -1.0394 Debye
        Dipole field         -0.0003 Ry au, 
 
        Potential amp.        0.0274 Ry
        Total length         54.2615 bohr
 

     total cpu time spent up to now is      648.2 secs

     total energy              =   -7398.03566154 Ry
     estimated scf accuracy    <       0.01638261 Ry

     total magnetization       =    80.37 Bohr mag/cell
     absolute magnetization    =    81.75 Bohr mag/cell

     iteration # 56     ecut=    50.00 Ry     beta= 0.10
     Davidson diagonalization with overlap
     ethr =  1.39E-06,  avg # of iterations =  2.0

     negative rho (up, down):  9.482E-04 6.576E-04
 
     Adding external electric field

     Computed dipole along edir(3) : 
        Dipole               -0.4293 Ry au,         -1.0912 Debye
        Dipole field         -0.0003 Ry au, 
 
        Potential amp.        0.0288 Ry
        Total length         54.2615 bohr
 
 
     Adding external electric field

     Computed dipole along edir(3) : 
        Dipole               -0.4293 Ry au,         -1.0912 Debye
        Dipole field         -0.0003 Ry au, 
 
        Potential amp.        0.0288 Ry
        Total length         54.2615 bohr
 

     total cpu time spent up to now is      660.2 secs

     total energy              =   -7398.03529828 Ry
     estimated scf accuracy    <       0.01660997 Ry

     total magnetization       =    80.36 Bohr mag/cell
     absolute magnetization    =    81.76 Bohr mag/cell

     iteration # 57     ecut=    50.00 Ry     beta= 0.10
     Davidson diagonalization with overlap
     ethr =  1.39E-06,  avg # of iterations =  1.5

     negative rho (up, down):  9.674E-04 7.048E-04
 
     Adding external electric field

     Computed dipole along edir(3) : 
        Dipole               -0.4101 Ry au,         -1.0424 Debye
        Dipole field         -0.0003 Ry au, 
 
        Potential amp.        0.0275 Ry
        Total length         54.2615 bohr
 
 
     Adding external electric field

     Computed dipole along edir(3) : 
        Dipole               -0.4101 Ry au,         -1.0424 Debye
        Dipole field         -0.0003 Ry au, 
 
        Potential amp.        0.0275 Ry
        Total length         54.2615 bohr
 

     total cpu time spent up to now is      670.0 secs

     total energy              =   -7398.03548517 Ry
     estimated scf accuracy    <       0.01520585 Ry

     total magnetization       =    80.36 Bohr mag/cell
     absolute magnetization    =    81.73 Bohr mag/cell

     iteration # 58     ecut=    50.00 Ry     beta= 0.10
     Davidson diagonalization with overlap
     ethr =  1.39E-06,  avg # of iterations =  1.5

     negative rho (up, down):  2.796E-03 2.673E-03
 
     Adding external electric field

     Computed dipole along edir(3) : 
        Dipole               -0.3015 Ry au,         -0.7662 Debye
        Dipole field         -0.0002 Ry au, 
 
        Potential amp.        0.0202 Ry
        Total length         54.2615 bohr
 
 
     Adding external electric field

     Computed dipole along edir(3) : 
[...]
    -6.0012  -5.9844  -5.9536  -5.9358  -5.9099  -5.8892  -5.8518  -5.8469
    -5.8161  -5.7951  -5.7596  -5.7403  -5.7306  -5.7219  -5.6973  -5.6787
    -5.6745  -5.6699  -5.6421  -5.6218  -5.6119  -5.5903  -5.5364  -5.5079
    -5.4603  -5.4444  -5.4142  -5.3992  -5.3866  -5.3497  -5.3034  -5.2873
    -5.2414  -5.2129  -5.1935  -5.1731  -5.1697  -5.0782  -5.0742  -5.0551
    -5.0033  -4.9711  -4.9509  -4.9178  -4.8967  -4.8751  -4.8507  -4.7977
    -4.7744  -4.7679  -4.7450  -4.7326  -4.6453  -4.6394  -4.5874  -4.5509
    -4.5347  -4.5192  -4.4865  -4.4530  -4.4244  -4.4038  -4.3819  -4.3672
    -4.3482  -4.2996  -4.2915  -4.2182  -4.1741  -4.1513  -4.1277  -4.0810
    -4.0749  -4.0450  -4.0370  -3.9989  -3.9613  -3.9520  -3.9241  -3.8979
    -3.8900  -3.8402  -3.8318  -3.8218  -3.7960  -3.7700  -3.7470  -3.7327
    -3.7177  -3.6952  -3.6606  -3.6451  -3.6424  -3.6274  -3.6052  -3.5889
    -3.5437  -3.5278  -3.5217  -3.5184  -3.4908  -3.4741  -3.4492  -3.4359
    -3.4231  -3.4043  -3.3914  -3.3456  -3.3447  -3.2987  -3.2901  -3.2565
    -3.2368  -3.2181  -3.2077  -3.1936  -3.1731  -3.1660  -3.1554  -3.1400
    -3.1151  -3.0727  -3.0385  -3.0287  -3.0268  -2.9948  -2.9713  -2.9557
    -2.9304  -2.9102  -2.8991  -2.8739  -2.8603  -2.8482  -2.8210  -2.8139
    -2.7938  -2.7897  -2.7828  -2.7723  -2.7491  -2.7437  -2.7252  -2.7010
    -2.6912  -2.6766  -2.6611  -2.6448  -2.6256  -2.6214  -2.5981  -2.5752
    -2.5609  -2.5406  -2.5269  -2.4930  -2.4911  -2.4792  -2.4648  -2.4379
    -2.4313  -2.3993  -2.3891  -2.3743  -2.3542  -2.3182  -2.2987  -2.2901
    -2.2633  -2.2538  -2.2299  -2.2004  -2.1758  -2.1620  -2.1320  -2.1227
    -2.1049  -2.0912  -2.0824  -2.0698  -2.0671  -2.0495  -2.0059  -1.9920
    -1.9774  -1.9687  -1.9592  -1.9336  -1.9231  -1.9165  -1.8856  -1.8727
    -1.8357  -1.8182  -1.7892  -1.7637  -1.7463  -1.7349  -1.7147  -1.6969
    -1.6642  -1.6543  -1.6408  -1.6281  -1.6102  -1.5993  -1.5777  -1.5464
    -1.5414  -1.5174  -1.4936  -1.4642  -1.4417  -1.4349  -1.4315  -1.4203
    -1.4080  -1.3765  -1.3363  -1.3082  -1.2963  -1.2375  -1.2195  -1.2078
    -1.1490  -1.0981  -1.0664  -1.0515  -1.0131  -0.9257  -0.9017  -0.8756
    -0.7800  -0.6669  -0.6129  -0.6071  -0.4625  -0.3661  -0.3238  -0.2584
     0.1061   0.1243   0.1595   0.1923   0.2324   0.2431   0.2619   0.2702
     0.2841   0.2868   0.3015   0.3028   0.3110   0.3279   0.3405   0.3468
     0.3512   0.3562   0.3699   0.3804   0.3852   0.3867   0.3967   0.4024
     0.4108   0.4181   0.4255   0.4366   0.4476   0.4502   0.4583   0.4592
     0.4652   0.4720   0.4773   0.4894   0.4951   0.4997   0.5024   0.5085
     0.5160   0.5335   0.5359   0.5433   0.5519   0.5603   0.5648   0.5795
     0.5827   0.5856   0.5922   0.5978   0.6098   0.6153   0.6218   0.6325
     0.6372   0.6467   0.6601   0.6615   0.6745   0.6779   0.6830   0.6874
     0.6994   0.7070   0.7130   0.7160   0.7211   0.7270   0.7398   0.7433
     0.7484   0.7520   0.7666   0.7730   0.7859   0.7880   0.7966   0.8096
     0.8235   0.8289   0.8452   0.8530   0.8621   0.8652   0.8800   0.8827
     0.8971   0.9128   0.9171   0.9267   0.9352   0.9872   0.9911   1.0158
     1.0724   1.1362   1.6129   1.6587   1.7013   1.7048   1.7140   1.7174
     1.7582   1.8471   1.8664   1.8770   1.8933   1.9309   1.9363   1.9648
     1.9723   1.9939   2.0181   2.0320   2.0412   2.0686   2.0846   2.1232
     2.1512   2.1618   2.1635   2.1946   2.2015   2.2089   2.2221   2.2297
     2.2438   2.2541   2.2641   2.2814   2.2888   2.3007   2.3058   2.3179
     2.3397   2.3511   2.3592   2.3750   2.4094   2.4130   2.4170   2.4468
     2.4611   2.4867   2.4995   2.5004   2.5160   2.5237   2.5480   2.5564
     2.5725   2.5839   2.5962   2.6301   2.6719   2.7074   2.7267   2.7487
     2.7821   2.8353   2.8844   2.8899   2.9075   3.5815   3.5909   3.6654
     3.7484   3.8241   3.8364   3.8452   3.8613   3.9989   4.0636   4.5859
     4.6409   4.7093   4.7747   4.9222   4.9487   5.0197   5.4133   6.2953
     6.3615   6.5434   6.5837   6.7428   6.8396   6.8524   6.8845   6.9297
     6.9945   7.0620   7.1125   7.1524   7.2977   7.3243   7.3694   7.4663
     7.5026   7.5599   7.6313   7.6711   7.6940   7.7519   7.7901   7.8105
     7.8654   7.9239   7.9305   7.9751   8.0170   8.0317   8.0573   8.0769
     8.1052   8.1204   8.1637   8.1879   8.2340   8.2646   8.2745   8.3293
     8.3769   8.3984   8.4244   8.4530   8.4679   8.4815   8.4968   8.5136
     8.5451   8.5672   8.5767   8.6087   8.6154   8.6435   8.6663   8.6914
     8.7209   8.7664   8.7809   8.8045   8.8299   8.8516   8.8710

     the Fermi energy is     1.5658 ev

!    total energy              =   -7398.03597946 Ry
     estimated scf accuracy    <       0.00000061 Ry
     smearing contrib. (-TS)   =      -0.01433130 Ry
     internal energy E=F+TS    =   -7398.02164816 Ry

     The total energy is F=E-TS. E is the sum of the following terms:
     one-electron contribution =  -91744.23419002 Ry
     hartree contribution      =   46520.04197960 Ry
     xc contribution           =   -2260.27869019 Ry
     ewald contribution        =   40088.28322097 Ry
     Dispersion Correction     =      -1.83398065 Ry
     electric field correction =       0.00001213 Ry

     total magnetization       =    80.44 Bohr mag/cell
     absolute magnetization    =    81.98 Bohr mag/cell

     convergence has been achieved in  90 iterations

     negative rho (up, down):  9.306E-04 5.476E-04

     Forces acting on atoms (cartesian axes, Ry/au):

     atom    1 type  2   force =     0.03094212   -0.01969660   -0.01634343
     atom    2 type  1   force =     0.00213043   -0.00402173   -0.01072155
     atom    3 type  1   force =    -0.02155582   -0.02062223    0.01809248
     atom    4 type  1   force =     0.00138167    0.01029756   -0.01269817
     atom    5 type  1   force =    -0.00477344    0.02891869   -0.01852208
     atom    6 type  1   force =     0.00583065    0.00057597   -0.00046058
     atom    7 type  1   force =     0.02687823   -0.02097780    0.01732207
     atom    8 type  1   force =    -0.00957850   -0.00309563   -0.01111399
     atom    9 type  1   force =    -0.02973888   -0.01818602    0.01606616
     atom   10 type  1   force =    -0.00115637    0.00812260   -0.01297780
     atom   11 type  1   force =    -0.01315466    0.03030841   -0.02073474
     atom   12 type  1   force =     0.00127980    0.00664366   -0.00411330
     atom   13 type  3   force =     0.05103406   -0.11004161    0.00915022
     atom   14 type  3   force =    -0.02903795    0.03593544   -0.06517081
     atom   15 type  3   force =    -0.00920734    0.17548955   -0.08318195
     atom   16 type  3   force =     0.06068237    0.00060828   -0.00440545
     atom   17 type  4   force =     0.01520185   -0.02183696   -0.00980111
     atom   18 type  4   force =    -0.00540007    0.00480418    0.02960984
     atom   19 type  4   force =     0.00215134    0.00100640    0.03074373
     atom   20 type  4   force =     0.00513561    0.00187959    0.00235784
     atom   21 type  4   force =     0.00055913   -0.01200785   -0.00001193
     atom   22 type  4   force =    -0.00093338    0.00386251    0.03254618
     atom   23 type  4   force =    -0.00607759    0.01466234    0.02740669
     atom   24 type  4   force =     0.00869388    0.00319372   -0.00425388
     atom   25 type  4   force =     0.00649159   -0.00327015    0.00153416
     atom   26 type  4   force =     0.03114300   -0.17832412    0.00722789
     atom   27 type  4   force =     0.00286313    0.00099747    0.00168345
     atom   28 type  4   force =    -0.01702927    0.00166888    0.00473259
     atom   29 type  4   force =     0.09129499    0.00315735    0.00804320
     atom   30 type  4   force =     0.01307102   -0.02512756   -0.00091992
     atom   31 type  4   force =    -0.03847435    0.13337008   -0.00018751
     atom   32 type  4   force =    -0.00553399   -0.01187519    0.00650270
     atom   33 type  3   force =     0.04155358   -0.11927457    0.00967675
     atom   34 type  3   force =    -0.10168470    0.04259025   -0.07575197
     atom   35 type  3   force =    -0.01351755    0.16598656   -0.08811666
     atom   36 type  3   force =    -0.00359753    0.00261703   -0.01044959
     atom   37 type  4   force =     0.00823226   -0.01467908   -0.00241617
     atom   38 type  4   force =    -0.00585776   -0.00172445    0.02736063
     atom   39 type  4   force =    -0.00467703    0.00724665    0.03216291
     atom   40 type  4   force =     0.00130618    0.00004115    0.00246533
     atom   41 type  4   force =    -0.00152242   -0.00962006   -0.00157323
     atom   42 type  4   force =     0.00542349   -0.00054685    0.02938946
     atom   43 type  4   force =    -0.01045055    0.01349805    0.02704781
     atom   44 type  4   force =     0.00446874    0.00344519   -0.00444540
     atom   45 type  4   force =    -0.00031972   -0.00065453    0.00197953
     atom   46 type  4   force =     0.02813168   -0.17055142    0.00539374
     atom   47 type  4   force =    -0.06552626   -0.00074206   -0.00312391
     atom   48 type  4   force =    -0.01985279    0.00390366    0.00528537
     atom   49 type  4   force =     0.01402004    0.00085989    0.00203447
     atom   50 type  4   force =     0.00794994   -0.02434756   -0.00016948
     atom   51 type  4   force =    -0.03977066    0.13338937   -0.00137700
     atom   52 type  4   force =    -0.00777249   -0.01065496    0.00872557
     atom   53 type  2   force =     0.00658984   -0.00756469    0.00554349
     atom   54 type  1   force =    -0.00012967   -0.00560111    0.01038135
     atom   55 type  1   force =     0.00492221   -0.00627193    0.00643954
     atom   56 type  1   force =    -0.00030076    0.00725382   -0.00087456
     atom   57 type  1   force =     0.00055607    0.02200780   -0.01424211
     atom   58 type  1   force =     0.00166107   -0.00319120    0.00222891
     atom   59 type  1   force =     0.00241921   -0.01000018    0.00376800
     atom   60 type  1   force =    -0.00672999   -0.00347168    0.00395356
     atom   61 type  1   force =    -0.00469797   -0.00496386    0.00646690
     atom   62 type  1   force =    -0.00336026    0.00650970   -0.00172450
     atom   63 type  1   force =    -0.01091327    0.02495196   -0.01768105
     atom   64 type  1   force =    -0.00247358    0.00126392   -0.00069729
     atom   65 type  3   force =     0.04620170   -0.12079672    0.01814195
     atom   66 type  3   force =     0.00165710   -0.00421762    0.00094306
     atom   67 type  3   force =    -0.04063929    0.12355171   -0.00700588
     atom   68 type  3   force =     0.06284388   -0.00132050    0.00742670
     atom   69 type  4   force =     0.01262046   -0.01722079   -0.00258843
     atom   70 type  4   force =    -0.00188862    0.00341501   -0.00075497
     atom   71 type  4   force =    -0.00190763    0.00350614    0.00537040
     atom   72 type  4   force =     0.00469633    0.00131064    0.00121344
     atom   73 type  4   force =     0.00768522   -0.01761667    0.01306382
     atom   74 type  4   force =    -0.00445868   -0.00331843    0.00921363
     atom   75 type  4   force =     0.00354860    0.00866209    0.00455552
     atom   76 type  4   force =     0.00630401    0.00076334   -0.00000496
     atom   77 type  4   force =     0.00637989   -0.00182894   -0.00077537
     atom   78 type  4   force =     0.04527707   -0.14082047    0.00572348
     atom   79 type  4   force =     0.00004585    0.00013634   -0.00033053
     atom   80 type  4   force =     0.00148177    0.00189401    0.00222284
     atom   81 type  4   force =     0.06745723    0.00010522    0.00650480
     atom   82 type  4   force =     0.00012630    0.00223575    0.00125529
     atom   83 type  4   force =    -0.03931034    0.13820141   -0.00229841
     atom   84 type  4   force =    -0.00181296   -0.01028443    0.00352463
     atom   85 type  3   force =     0.03856493   -0.12490843    0.02465991
     atom   86 type  3   force =    -0.06336200   -0.00162400   -0.00383408
     atom   87 type  3   force =    -0.04619221    0.12068529   -0.01052491
     atom   88 type  3   force =    -0.00012321    0.00107176    0.00302842
     atom   89 type  4   force =     0.00909833   -0.01467319   -0.00556438
     atom   90 type  4   force =    -0.00447571    0.00106473   -0.00078843
     atom   91 type  4   force =    -0.00946303    0.00842712    0.00555395
     atom   92 type  4   force =     0.00042853   -0.00040387    0.00015632
     atom   93 type  4   force =     0.00174705   -0.01121217   -0.00109562
     atom   94 type  4   force =    -0.00897006   -0.00302905    0.00824424
     atom   95 type  4   force =    -0.00027949    0.00779538    0.00297484
     atom   96 type  4   force =    -0.00121736    0.00127788   -0.00002968
     atom   97 type  4   force =    -0.00124121    0.00116826   -0.00031920
     atom   98 type  4   force =     0.04067650   -0.13911529    0.00481010
     atom   99 type  4   force =    -0.06714386   -0.00077703   -0.00564129
     atom  100 type  4   force =    -0.00049184    0.00286820    0.00286369
     atom  101 type  4   force =    -0.00124644    0.00002433    0.00130799
     atom  102 type  4   force =    -0.00681480    0.00539120    0.00151791
     atom  103 type  4   force =    -0.04007516    0.13591180   -0.00438719
     atom  104 type  4   force =    -0.00545247   -0.00999617    0.00489685
     atom  105 type  2   force =    -0.00043369    0.00034936    0.00027239
     atom  106 type  1   force =     0.00060848   -0.00059141   -0.00004952
     atom  107 type  1   force =    -0.00002645   -0.00036955    0.00032919
     atom  108 type  1   force =     0.00029997    0.00045939   -0.00012168
     atom  109 type  1   force =    -0.00053309   -0.00005859    0.00027486
     atom  110 type  1   force =    -0.00005503   -0.00010212    0.00030701
     atom  111 type  1   force =    -0.00006244    0.00027121    0.00036908
     atom  112 type  1   force =    -0.00002342    0.00000167    0.00021456
     atom  113 type  1   force =     0.00007324   -0.00029256    0.00009997
     atom  114 type  1   force =    -0.00044331    0.00021189   -0.00013445
     atom  115 type  1   force =     0.00021988   -0.00004284    0.00026889
     atom  116 type  1   force =    -0.00035366   -0.00039930    0.00037768
     atom  117 type  3   force =    -0.00021295   -0.00035471    0.00016705
     atom  118 type  3   force =     0.00021973   -0.00022020   -0.00000970
     atom  119 type  3   force =    -0.00002214   -0.00006800   -0.00011507
     atom  120 type  3   force =    -0.00008431   -0.00029990    0.00003019
     atom  121 type  4   force =     0.00025469    0.00007686   -0.00040099
     atom  122 type  4   force =    -0.00012806    0.00014352    0.00011864
     atom  123 type  4   force =     0.00017507   -0.00028669    0.00004231
     atom  124 type  4   force =    -0.00024232   -0.00030315    0.00012176
     atom  125 type  4   force =     0.00006686    0.00024284   -0.00045752
     atom  126 type  4   force =    -0.00007527   -0.00032083    0.00002208
     atom  127 type  4   force =     0.00042343   -0.00010927   -0.00013835
     atom  128 type  4   force =    -0.00022594   -0.00034061   -0.00002221
     atom  129 type  4   force =     0.00009619   -0.00027921   -0.00012830
     atom  130 type  4   force =    -0.00008433    0.00006414   -0.00006169
     atom  131 type  4   force =    -0.00048474   -0.00020510    0.00007465
     atom  132 type  4   force =     0.00005884   -0.00026288    0.00028912
     atom  133 type  4   force =    -0.00014332   -0.00028782    0.00012204
     atom  134 type  4   force =    -0.00032993   -0.00026621   -0.00000750
     atom  135 type  4   force =    -0.00058615   -0.00029911   -0.00044508
     atom  136 type  4   force =     0.00070653   -0.00015272   -0.00019346
     atom  137 type  3   force =     0.00027523   -0.00011989   -0.00017376
     atom  138 type  3   force =    -0.00021985   -0.00021824   -0.00007346
     atom  139 type  3   force =    -0.00008394    0.00001801    0.00009262
     atom  140 type  3   force =    -0.00053729   -0.00028518   -0.00040757
     atom  141 type  4   force =     0.00045673   -0.00036129    0.00012046
     atom  142 type  4   force =     0.00012641    0.00003818   -0.00005539
     atom  143 type  4   force =     0.00001274   -0.00016055    0.00029850
     atom  144 type  4   force =     0.00073145    0.00030175    0.00093444
     atom  145 type  4   force =    -0.00040802   -0.00014074   -0.00056558
     atom  146 type  4   force =    -0.00005744   -0.00019390   -0.00020451
     atom  147 type  4   force =     0.00046338    0.00002447   -0.00007533
     atom  148 type  4   force =    -0.00003925    0.00054492   -0.00018849
     atom  149 type  4   force =     0.00066133   -0.00031169   -0.00009462
     atom  150 type  4   force =     0.00025944    0.00012443    0.00015399
     atom  151 type  4   force =     0.00003800   -0.00002289    0.00003260
     atom  152 type  4   force =     0.00032053   -0.00005720    0.00013321
     atom  153 type  4   force =    -0.00003642    0.00001675   -0.00027402
     atom  154 type  4   force =    -0.00022413   -0.00028539   -0.00001987
     atom  155 type  4   force =     0.00017360   -0.00001573   -0.00012594
     atom  156 type  4   force =     0.00002549    0.00030321   -0.00044731
     atom  157 type  4   force =     0.00310352   -0.00176965   -0.00034547
     atom  158 type  5   force =    -0.00316086    0.00223463    0.00177769

     Total force =     0.665383     Total SCF correction =     0.003732
 
     init_run     :      7.22s CPU      7.96s WALL (       1 calls)
     electrons    :    975.55s CPU   1028.34s WALL (       1 calls)
     forces       :      3.98s CPU      4.41s WALL (       1 calls)
     force_london :      0.13s CPU      0.13s WALL (       1 calls)

     Called by init_run:
     wfcinit      :      4.48s CPU      4.68s WALL (       1 calls)
     potinit      :      0.61s CPU      0.78s WALL (       1 calls)
     hinit0       :      1.03s CPU      1.15s WALL (       1 calls)

     Called by electrons:
     c_bands      :    769.15s CPU    796.44s WALL (      90 calls)
     sum_band     :    133.41s CPU    147.47s WALL (      90 calls)
     v_of_rho     :     14.42s CPU     15.39s WALL (      91 calls)
     newd         :     38.43s CPU     48.98s WALL (      91 calls)
     mix_rho      :     19.35s CPU     19.48s WALL (      90 calls)
     energy_londo :      0.08s CPU      0.08s WALL (       1 calls)

     Called by c_bands:
     init_us_2    :      2.45s CPU      2.51s WALL (     364 calls)
     init_us_2:cp :      2.45s CPU      2.51s WALL (     364 calls)
     regterg      :    752.32s CPU    779.38s WALL (     183 calls)

     Called by *egterg:
     rdiaghg      :    212.34s CPU    224.66s WALL (     650 calls)
     h_psi        :    300.15s CPU    307.16s WALL (     652 calls)
     s_psi        :     59.06s CPU     59.08s WALL (     652 calls)
     g_psi        :      0.41s CPU      0.41s WALL (     467 calls)

     Called by h_psi:
     h_psi:calbec :     82.06s CPU     88.27s WALL (     652 calls)
     vloc_psi     :    155.53s CPU    156.22s WALL (     652 calls)
     add_vuspsi   :     61.87s CPU     61.96s WALL (     652 calls)

     General routines
     calbec       :    121.83s CPU    131.08s WALL (     840 calls)
     fft          :     12.66s CPU     13.91s WALL (    1651 calls)
     ffts         :     12.52s CPU     12.56s WALL (   11219 calls)
     fftw         :    176.66s CPU    177.45s WALL (  303114 calls)
     interpolate  :      1.30s CPU      1.40s WALL (     182 calls)
 
     Parallel routines
 
     PWSCF        :  16m28.74s CPU  17m23.09s WALL

 
   This run was terminated on:  23: 1: 9  19Nov2025            

=------------------------------------------------------------------------------=
   JOB DONE.
=------------------------------------------------------------------------------=
