
     Program PWSCF v.7.2 starts on 19Nov2025 at 20:36:55 

     This program is part of the open-source Quantum ESPRESSO suite
     for quantum simulation of materials; please cite
         "P. Giannozzi et al., J. Phys.:Condens. Matter 21 395502 (2009);
         "P. Giannozzi et al., J. Phys.:Condens. Matter 29 465901 (2017);
         "P. Giannozzi et al., J. Chem. Phys. 152 154105 (2020);
          URL http://www.quantum-espresso.org", 
     in publications or presentations arising from this work. More details at
     http://www.quantum-espresso.org/quote

     Parallel version (MPI), running on    64 processors

     MPI processes distributed on     4 nodes
     451002 MiB available memory on the printing compute node when the environment starts
 
     Reading input from PWINPUT_atm157_zp

     Current dimensions of program PWSCF are:
     Max number of different atomic species (ntypx) = 10
     Max number of k-points (npk) =  40000
     Max angular momentum in pseudopotentials (lmaxx) =  4
     Presently no symmetry can be used with electric field

     file Ni.pbe-n-rrkjus_psl.1.0.0.UPF: wavefunction(s)  3D renormalized
     file Mn.pbe-spn-rrkjus_psl.0.3.1.UPF: wavefunction(s)  3D renormalized
     file O.pbe-rrkjus.UPF: wavefunction(s)  2S renormalized
     file H.pbe-rrkjus.UPF: wavefunction(s)  1S renormalized

     gamma-point specific algorithms are used
 
     R & G space division:  proc/nbgrp/npool/nimage =      64
     Subspace diagonalization in iterative solution of the eigenvalue problem:
     one sub-group per band group will be used
     custom distributed-memory algorithm (size of sub-group:  6*  6 procs)

 
     Parallelization info
     --------------------
     sticks:   dense  smooth     PW     G-vecs:    dense   smooth      PW
     Min         208      82     20                59912    15118    1876
     Max         210      84     22                59974    15196    1926
     Sum       13399    5355   1345              3836275   970529  121367
 
     Using Slab Decomposition
 


     bravais-lattice index     =            0
     lattice parameter (alat)  =      17.7004  a.u.
     unit-cell volume          =   20319.7251 (a.u.)^3
     number of atoms/cell      =          158
     number of atomic types    =            5
     number of electrons       =      1078.00
     number of Kohn-Sham states=          647
     kinetic-energy cutoff     =      50.0000  Ry
     charge density cutoff     =     500.0000  Ry
     scf convergence threshold =      1.0E-06
     mixing beta               =       0.1000
     number of iterations used =            8  local-TF  mixing
     Exchange-correlation=  SLA  PW   PBE  PBE
                           (   1   4   3   4   0   0   0)

     celldm(1)=  17.700384  celldm(2)=   0.000000  celldm(3)=   0.000000
     celldm(4)=   0.000000  celldm(5)=   0.000000  celldm(6)=   0.000000

     crystal axes: (cart. coord. in units of alat)
               a(1) = (   1.000000   0.000000   0.000000 )  
               a(2) = (   0.000000   1.075730   0.000000 )  
               a(3) = (   0.000000   0.000000   3.406172 )  

     reciprocal axes: (cart. coord. in units 2 pi/alat)
               b(1) = (  1.000000  0.000000  0.000000 )  
               b(2) = (  0.000000  0.929602  0.000000 )  
               b(3) = (  0.000000  0.000000  0.293585 )  


     PseudoPot. # 1 for Ni read from file:
     ~/PSEUDO/Ni.pbe-n-rrkjus_psl.1.0.0.UPF
     MD5 check sum: Not computed, couldn't open file
     Pseudo is Ultrasoft + core correction, Zval = 10.0
     Generated using "atomic" code by A. Dal Corso  v.5.1.2
     Using radial grid of 1195 points,  6 beta functions with: 
                l(1) =   0
                l(2) =   0
                l(3) =   1
                l(4) =   1
                l(5) =   2
                l(6) =   2
     Q(r) pseudized with 0 coefficients 


     PseudoPot. # 2 for Mn read from file:
     ~/PSEUDO/Mn.pbe-spn-rrkjus_psl.0.3.1.UPF
     MD5 check sum: Not computed, couldn't open file
     Pseudo is Ultrasoft + core correction, Zval = 15.0
     Generated using &quot;atomic&quot; code by A. Dal Corso  v.6.2.2
     Using radial grid of 1187 points,  6 beta functions with: 
                l(1) =   0
                l(2) =   0
                l(3) =   1
                l(4) =   1
                l(5) =   2
                l(6) =   2
     Q(r) pseudized with 0 coefficients 


     PseudoPot. # 3 for P  read from file:
     ~/PSEUDO/P.pbe-n-rrkjus_psl.1.0.0.UPF
     MD5 check sum: Not computed, couldn't open file
     Pseudo is Ultrasoft + core correction, Zval =  5.0
     Generated using "atomic" code by A. Dal Corso  v.5.1
     Using radial grid of 1147 points,  6 beta functions with: 
                l(1) =   0
                l(2) =   0
                l(3) =   1
                l(4) =   1
                l(5) =   2
                l(6) =   2
     Q(r) pseudized with 0 coefficients 


     PseudoPot. # 4 for O  read from file:
     ~/PSEUDO/O.pbe-rrkjus.UPF
     MD5 check sum: Not computed, couldn't open file
     Pseudo is Ultrasoft, Zval =  6.0
     Generated by new atomic code, or converted to UPF format
     Using radial grid of 1269 points,  4 beta functions with: 
                l(1) =   0
                l(2) =   0
                l(3) =   1
                l(4) =   1
     Q(r) pseudized with 0 coefficients 


     PseudoPot. # 5 for H  read from file:
     ~/PSEUDO/H.pbe-rrkjus.UPF
     MD5 check sum: Not computed, couldn't open file
     Pseudo is Ultrasoft, Zval =  1.0
     Generated by new atomic code, or converted to UPF format
     Using radial grid of 1061 points,  2 beta functions with: 
                l(1) =   0
                l(2) =   0
     Q(r) pseudized with 0 coefficients 


     atomic species   valence    mass     pseudopotential
     Ni               10.00    58.69300     Ni( 1.00)
     Mn               15.00    54.93800     Mn( 1.00)
     P                 5.00    30.97300     P ( 1.00)
     O                 6.00    15.99900     O ( 1.00)
     H                 1.00     1.00790     H ( 1.00)

     Starting magnetic structure 
     atomic species   magnetization
     Ni              1.000
     Mn              1.000
     P               1.000
     O               1.000
     H               0.000

     No symmetry found



   Cartesian axes

     site n.     atom                  positions (alat units)
         1        Mn     tau(   1) = (   0.2404744   0.8371250   0.1168501  )
         2        Ni     tau(   2) = (   0.4968126   0.7726670   0.4415546  )
         3        Ni     tau(   3) = (   0.0066150   0.2936743   0.1241053  )
         4        Ni     tau(   4) = (   0.2585722   0.2355858   0.4448848  )
         5        Ni     tau(   5) = (   0.9987350   1.0696411   0.2854926  )
         6        Ni     tau(   6) = (   0.2517397   0.5330511   0.2829322  )
         7        Ni     tau(   7) = (   0.7451645   0.8337543   0.1221751  )
         8        Ni     tau(   8) = (   0.9939181   0.7738804   0.4407595  )
         9        Ni     tau(   9) = (   0.5111533   0.2924088   0.1251865  )
        10        Ni     tau(  10) = (   0.7606326   0.2319267   0.4451372  )
        11        Ni     tau(  11) = (   0.5024065   1.0688133   0.2870502  )
        12        Ni     tau(  12) = (   0.7529977   0.5317900   0.2845227  )
        13        P      tau(  13) = (   0.2092944   0.9731097   0.4345035  )
        14        P      tau(  14) = (   0.4655727   0.6359535   0.1274635  )
        15        P      tau(  15) = (   0.2910699   0.1027363   0.1296098  )
        16        P      tau(  16) = (   0.0396216   0.4288395   0.4398838  )
        17        O      tau(  17) = (   0.1294378   0.9013260   0.3010618  )
        18        O      tau(  18) = (   0.3874505   0.7054774   0.2637003  )
        19        O      tau(  19) = (   0.3702540   0.1714799   0.2660028  )
        20        O      tau(  20) = (   0.1184398   0.3582958   0.3038353  )
        21        O      tau(  21) = (   0.1451572   0.8850881   0.5587578  )
        22        O      tau(  22) = (   0.4048762   0.7245585   0.0017492  )
        23        O      tau(  23) = (   0.3523506   0.1900579   0.0035744  )
        24        O      tau(  24) = (   0.1017610   0.3410484   0.5656572  )
        25        O      tau(  25) = (   0.0975396   0.5849288   0.4357922  )
        26        O      tau(  26) = (   0.3483552   1.0314945   0.1270322  )
        27        O      tau(  27) = (   0.3784305   0.4225118   0.4308928  )
        28        O      tau(  28) = (   0.1268237   0.1067944   0.1392744  )
        29        O      tau(  29) = (   0.1212267   0.6424170   0.1362896  )
        30        O      tau(  30) = (   0.4053315   0.4809387   0.1300622  )
        31        O      tau(  31) = (   0.1536621   0.0446918   0.4373386  )
        32        O      tau(  32) = (   0.3732349   0.9631717   0.4256642  )
        33        P      tau(  33) = (   0.7119823   0.9695974   0.4373010  )
        34        P      tau(  34) = (   0.9615208   0.6363392   0.1262932  )
        35        P      tau(  35) = (   0.7927710   0.0970060   0.1292164  )
        36        P      tau(  36) = (   0.5426404   0.4269675   0.4410738  )
        37        O      tau(  37) = (   0.6326879   0.8991182   0.3013240  )
        38        O      tau(  38) = (   0.8842163   0.7083206   0.2625155  )
        39        O      tau(  39) = (   0.8716178   0.1677751   0.2653504  )
        40        O      tau(  40) = (   0.6212010   0.3558666   0.3051085  )
        41        O      tau(  41) = (   0.6507714   0.8812342   0.5631722  )
        42        O      tau(  42) = (   0.9014054   0.7264458   0.0010676  )
        43        O      tau(  43) = (   0.8548963   0.1847909   0.0035471  )
        44        O      tau(  44) = (   0.6044469   0.3378706   0.5660366  )
        45        O      tau(  45) = (   0.6024424   0.5823140   0.4379016  )
        46        O      tau(  46) = (   0.8498940   1.0254482   0.1275156  )
        47        O      tau(  47) = (   0.8798395   0.4205825   0.4305771  )
        48        O      tau(  48) = (   0.6286921   0.1034636   0.1397346  )
        49        O      tau(  49) = (   0.6294973   0.6427753   0.1372553  )
        50        O      tau(  50) = (   0.9024339   0.4810312   0.1296418  )
        51        O      tau(  51) = (   0.6547812   0.0410987   0.4396636  )
        52        O      tau(  52) = (   0.8760507   0.9632605   0.4264507  )
        53        Mn     tau(  53) = (   0.2404744   0.8246335   0.7367378  )
        54        Ni     tau(  54) = (   0.4968126   0.7601755   1.0614423  )
        55        Ni     tau(  55) = (   0.0066150   0.2811828   0.7439929  )
        56        Ni     tau(  56) = (   0.2585722   0.2230943   1.0647725  )
        57        Ni     tau(  57) = (   0.9987350   1.0571496   0.9053803  )
        58        Ni     tau(  58) = (   0.2517397   0.5205596   0.9028199  )
        59        Ni     tau(  59) = (   0.7451645   0.8212628   0.7420628  )
        60        Ni     tau(  60) = (   0.9939181   0.7613889   1.0606471  )
        61        Ni     tau(  61) = (   0.5111533   0.2799173   0.7450742  )
        62        Ni     tau(  62) = (   0.7606326   0.2194352   1.0650249  )
        63        Ni     tau(  63) = (   0.5024065   1.0563218   0.9069379  )
        64        Ni     tau(  64) = (   0.7529977   0.5192985   0.9044104  )
        65        P      tau(  65) = (   0.2092944   0.9606182   1.0543912  )
        66        P      tau(  66) = (   0.4655727   0.6234620   0.7473512  )
        67        P      tau(  67) = (   0.2910699   0.0902448   0.7494974  )
        68        P      tau(  68) = (   0.0396216   0.4163480   1.0597715  )
        69        O      tau(  69) = (   0.1294378   0.8888345   0.9209495  )
        70        O      tau(  70) = (   0.3874505   0.6929859   0.8835880  )
        71        O      tau(  71) = (   0.3702540   0.1589885   0.8858904  )
        72        O      tau(  72) = (   0.1184398   0.3458043   0.9237230  )
        73        O      tau(  73) = (   0.1451572   0.8725966   1.1786454  )
        74        O      tau(  74) = (   0.4048762   0.7120670   0.6216369  )
        75        O      tau(  75) = (   0.3523506   0.1775664   0.6234620  )
        76        O      tau(  76) = (   0.1017610   0.3285569   1.1855448  )
        77        O      tau(  77) = (   0.0975396   0.5724373   1.0556799  )
        78        O      tau(  78) = (   0.3483552   1.0190030   0.7469198  )
        79        O      tau(  79) = (   0.3784305   0.4100203   1.0507804  )
        80        O      tau(  80) = (   0.1268237   0.0943029   0.7591620  )
        81        O      tau(  81) = (   0.1212267   0.6299255   0.7561772  )
        82        O      tau(  82) = (   0.4053315   0.4684472   0.7499499  )
        83        O      tau(  83) = (   0.1536621   0.0322003   1.0572263  )
        84        O      tau(  84) = (   0.3732349   0.9506802   1.0455518  )
        85        P      tau(  85) = (   0.7119823   0.9571059   1.0571887  )
        86        P      tau(  86) = (   0.9615208   0.6238477   0.7461808  )
        87        P      tau(  87) = (   0.7927710   0.0845145   0.7491041  )
        88        P      tau(  88) = (   0.5426404   0.4144760   1.0609615  )
        89        O      tau(  89) = (   0.6326879   0.8866267   0.9212117  )
        90        O      tau(  90) = (   0.8842163   0.6958291   0.8824032  )
        91        O      tau(  91) = (   0.8716178   0.1552836   0.8852381  )
        92        O      tau(  92) = (   0.6212010   0.3433751   0.9249961  )
        93        O      tau(  93) = (   0.6507714   0.8687427   1.1830599  )
        94        O      tau(  94) = (   0.9014054   0.7139543   0.6209553  )
        95        O      tau(  95) = (   0.8548963   0.1722994   0.6234348  )
        96        O      tau(  96) = (   0.6044469   0.3253792   1.1859242  )
        97        O      tau(  97) = (   0.6024424   0.5698225   1.0577892  )
        98        O      tau(  98) = (   0.8498940   1.0129567   0.7474033  )
        99        O      tau(  99) = (   0.8798395   0.4080910   1.0504647  )
       100        O      tau( 100) = (   0.6286921   0.0909721   0.7596222  )
       101        O      tau( 101) = (   0.6294973   0.6302838   0.7571429  )
       102        O      tau( 102) = (   0.9024339   0.4685397   0.7495295  )
       103        O      tau( 103) = (   0.6547812   0.0286072   1.0595512  )
       104        O      tau( 104) = (   0.8760507   0.9507690   1.0463383  )
       105        Mn     tau( 105) = (   0.2364458   0.8094794   1.3653459  )
       106        Ni     tau( 106) = (   0.4907942   0.7363522   1.7049996  )
       107        Ni     tau( 107) = (   0.0093952   0.2680398   1.3698569  )
       108        Ni     tau( 108) = (   0.2497295   0.2108424   1.6761145  )
       109        Ni     tau( 109) = (   1.0036298   1.0443547   1.5337867  )
       110        Ni     tau( 110) = (   0.2508731   0.5072093   1.5337250  )
       111        Ni     tau( 111) = (   0.7430527   0.8053936   1.3670713  )
       112        Ni     tau( 112) = (   1.0004343   0.7470669   1.6781949  )
       113        Ni     tau( 113) = (   0.5111923   0.2663270   1.3700523  )
       114        Ni     tau( 114) = (   0.7492854   0.2057646   1.6748146  )
       115        Ni     tau( 115) = (   0.5041086   1.0410710   1.5344479  )
       116        Ni     tau( 116) = (   0.7475733   0.5047540   1.5316464  )
       117        P      tau( 117) = (   0.2133552   0.9392292   1.6984504  )
       118        P      tau( 118) = (   0.4634655   0.6097679   1.3737019  )
       119        P      tau( 119) = (   0.2926447   0.0743533   1.3725526  )
       120        P      tau( 120) = (   0.0367365   0.3974952   1.6921475  )
       121        O      tau( 121) = (   0.1371062   0.8722393   1.5551977  )
       122        O      tau( 122) = (   0.3876369   0.6802541   1.5098871  )
       123        O      tau( 123) = (   0.3711295   0.1420780   1.5089708  )
       124        O      tau( 124) = (   0.1160403   0.3372838   1.5462681  )
       125        O      tau( 125) = (   0.1492652   0.8455602   1.8156300  )
       126        O      tau( 126) = (   0.4032581   0.6987394   1.2472428  )
       127        O      tau( 127) = (   0.3539738   0.1604313   1.2459115  )
       128        O      tau( 128) = (   0.0992937   0.3009536   1.8068009  )
       129        O      tau( 129) = (   0.0909237   0.5559234   1.6906175  )
       130        O      tau( 130) = (   0.3495909   0.9934160   1.3761257  )
       131        O      tau( 131) = (   0.3736946   0.3887924   1.6741111  )
       132        O      tau( 132) = (   0.1287801   0.0799213   1.3839567  )
       133        O      tau( 133) = (   0.1223930   0.6189353   1.3829709  )
       134        O      tau( 134) = (   0.4027999   0.4547621   1.3753464  )
       135        O      tau( 135) = (   0.1562549   0.0204997   1.6913958  )
       136        O      tau( 136) = (   0.3777647   0.9340275   1.6841911  )
       137        P      tau( 137) = (   0.7135711   0.9304873   1.6870697  )
       138        P      tau( 138) = (   0.9579050   0.6098693   1.3704654  )
       139        P      tau( 139) = (   0.7935730   0.0700637   1.3709798  )
       140        P      tau( 140) = (   0.5382788   0.3921678   1.6921168  )
       141        O      tau( 141) = (   0.6368445   0.8715343   1.5433244  )
       142        O      tau( 142) = (   0.8818270   0.6814858   1.5066133  )
       143        O      tau( 143) = (   0.8713193   0.1417772   1.5072868  )
       144        O      tau( 144) = (   0.6174579   0.3303663   1.5458240  )
       145        O      tau( 145) = (   0.6552232   0.8337369   1.8043110  )
       146        O      tau( 146) = (   0.8989657   0.6978510   1.2434901  )
       147        O      tau( 147) = (   0.8552504   0.1586671   1.2456065  )
       148        O      tau( 148) = (   0.5963858   0.2917729   1.8058571  )
       149        O      tau( 149) = (   0.5989840   0.5475310   1.6881864  )
       150        O      tau( 150) = (   0.8545284   0.9913153   1.3740611  )
       151        O      tau( 151) = (   0.8720431   0.3904281   1.6773436  )
       152        O      tau( 152) = (   0.6296650   0.0761030   1.3824892  )
       153        O      tau( 153) = (   0.6276372   0.6149600   1.3818254  )
       154        O      tau( 154) = (   0.9002664   0.4546242   1.3744661  )
       155        O      tau( 155) = (   0.6584351   0.0133671   1.6886222  )
       156        O      tau( 156) = (   0.8793773   0.9284013   1.6770673  )
       157        O      tau( 157) = (   0.3761800   0.6543040   1.8395524  )
       158        H      tau( 158) = (   0.2924595   0.7142463   1.8633046  )

     -------------------------------------------------
     Parameters for Dispersion (Grimme-D2) Correction:
     -------------------------------------------------
       atom      VdW radius       C_6     

        Ni         2.952        374.666
        Mn         2.952        374.666
        P          3.222        271.980
        O          2.536         24.284
        H          1.892          4.857

     number of k points=     1  Gaussian smearing, width (Ry)=  0.0100
                       cart. coord. in units 2pi/alat
        k(    1) = (   0.0000000   0.0000000   0.0000000), wk =   1.0000000

     Dense  grid:  1918138 G-vectors     FFT dimensions: ( 125, 135, 432)

     Smooth grid:   485265 G-vectors     FFT dimensions: (  80,  90, 288)

     Estimated max dynamical RAM per process >     320.12 MB

     Estimated total dynamical RAM >      20.01 GB
     Generating pointlists ...
     new r_m :   0.0804 (alat units)  1.4228 (a.u.) for type    1
     new r_m :   0.0869 (alat units)  1.5388 (a.u.) for type    2
     new r_m :   0.0650 (alat units)  1.1499 (a.u.) for type    3
     new r_m :   0.0436 (alat units)  0.7715 (a.u.) for type    4
     new r_m :   0.0436 (alat units)  0.7715 (a.u.) for type    5

     Initial potential from superposition of free atoms

     starting charge    1077.8900, renormalised to    1078.0000

     negative rho (up, down):  1.237E-03 4.581E-04
 
     Adding external electric field

     Computed dipole along edir(3) : 
        Dipole                1.6221 Ry au,          4.1229 Debye
        Dipole field          0.0010 Ry au, 
 
        Potential amp.       -0.1089 Ry
        Total length         54.2615 bohr
 
 
     Adding external electric field

     Computed dipole along edir(3) : 
        Dipole                1.6221 Ry au,          4.1229 Debye
        Dipole field          0.0010 Ry au, 
 
        Potential amp.       -0.1089 Ry
        Total length         54.2615 bohr
 
     Starting wfcs are  812 randomized atomic wfcs

     total cpu time spent up to now is       10.6 secs

     Self-consistent Calculation

     iteration #  1     ecut=    50.00 Ry     beta= 0.10
     Davidson diagonalization with overlap
     ethr =  1.00E-02,  avg # of iterations =  6.0

     negative rho (up, down):  3.341E-01 1.243E-06
 
     Adding external electric field

     Computed dipole along edir(3) : 
        Dipole               -3.6422 Ry au,         -9.2574 Debye
        Dipole field         -0.0023 Ry au, 
 
        Potential amp.        0.2444 Ry
        Total length         54.2615 bohr
 
 
     Adding external electric field

     Computed dipole along edir(3) : 
        Dipole               -3.6422 Ry au,         -9.2574 Debye
        Dipole field         -0.0023 Ry au, 
 
        Potential amp.        0.2444 Ry
        Total length         54.2615 bohr
 

     total cpu time spent up to now is       38.6 secs

     total energy              =   -7177.97246066 Ry
     estimated scf accuracy    <     753.52501846 Ry

     total magnetization       =   216.00 Bohr mag/cell
     absolute magnetization    =   297.27 Bohr mag/cell

     iteration #  2     ecut=    50.00 Ry     beta= 0.10
     Davidson diagonalization with overlap
     ethr =  1.00E-02,  avg # of iterations =  2.0

     negative rho (up, down):  3.190E-01 8.999E-07
 
     Adding external electric field

     Computed dipole along edir(3) : 
        Dipole               -2.3905 Ry au,         -6.0760 Debye
        Dipole field         -0.0015 Ry au, 
 
        Potential amp.        0.1604 Ry
        Total length         54.2615 bohr
 
 
     Adding external electric field

     Computed dipole along edir(3) : 
        Dipole               -2.3905 Ry au,         -6.0760 Debye
        Dipole field         -0.0015 Ry au, 
 
        Potential amp.        0.1604 Ry
        Total length         54.2615 bohr
 

     total cpu time spent up to now is       54.3 secs

     total energy              =   -7261.77297590 Ry
     estimated scf accuracy    <     217.48612608 Ry

     total magnetization       =   150.97 Bohr mag/cell
     absolute magnetization    =   200.55 Bohr mag/cell

     iteration #  3     ecut=    50.00 Ry     beta= 0.10
     Davidson diagonalization with overlap
     ethr =  1.00E-02,  avg # of iterations =  1.5

     negative rho (up, down):  2.817E-01 7.648E-07
 
     Adding external electric field

     Computed dipole along edir(3) : 
        Dipole               -2.0538 Ry au,         -5.2201 Debye
        Dipole field         -0.0013 Ry au, 
 
        Potential amp.        0.1378 Ry
        Total length         54.2615 bohr
 
 
     Adding external electric field

     Computed dipole along edir(3) : 
        Dipole               -2.0538 Ry au,         -5.2201 Debye
        Dipole field         -0.0013 Ry au, 
 
        Potential amp.        0.1378 Ry
        Total length         54.2615 bohr
 

     total cpu time spent up to now is       66.6 secs

     total energy              =   -7292.08506241 Ry
     estimated scf accuracy    <      98.40368731 Ry

     total magnetization       =   126.03 Bohr mag/cell
     absolute magnetization    =   179.76 Bohr mag/cell

     iteration #  4     ecut=    50.00 Ry     beta= 0.10
     Davidson diagonalization with overlap
     ethr =  9.13E-03,  avg # of iterations =  1.5

     negative rho (up, down):  2.106E-01 9.228E-08
 
     Adding external electric field

     Computed dipole along edir(3) : 
        Dipole               -1.9711 Ry au,         -5.0099 Debye
        Dipole field         -0.0012 Ry au, 
 
        Potential amp.        0.1323 Ry
        Total length         54.2615 bohr
 
 
     Adding external electric field

     Computed dipole along edir(3) : 
        Dipole               -1.9711 Ry au,         -5.0099 Debye
        Dipole field         -0.0012 Ry au, 
 
        Potential amp.        0.1323 Ry
        Total length         54.2615 bohr
 

     total cpu time spent up to now is       79.3 secs

     total energy              =   -7326.44998308 Ry
     estimated scf accuracy    <      78.79962419 Ry

     total magnetization       =   110.94 Bohr mag/cell
     absolute magnetization    =   165.45 Bohr mag/cell

     iteration #  5     ecut=    50.00 Ry     beta= 0.10
     Davidson diagonalization with overlap
     ethr =  7.31E-03,  avg # of iterations =  1.5

     negative rho (up, down):  1.266E-02 4.041E-07
 
     Adding external electric field

     Computed dipole along edir(3) : 
        Dipole               -1.5162 Ry au,         -3.8537 Debye
        Dipole field         -0.0009 Ry au, 
 
        Potential amp.        0.1018 Ry
        Total length         54.2615 bohr
 
 
     Adding external electric field

     Computed dipole along edir(3) : 
        Dipole               -1.5162 Ry au,         -3.8537 Debye
        Dipole field         -0.0009 Ry au, 
 
        Potential amp.        0.1018 Ry
        Total length         54.2615 bohr
 

     total cpu time spent up to now is       91.9 secs

     total energy              =   -7384.99028560 Ry
     estimated scf accuracy    <      61.44156345 Ry

     total magnetization       =    88.03 Bohr mag/cell
     absolute magnetization    =   146.38 Bohr mag/cell

     iteration #  6     ecut=    50.00 Ry     beta= 0.10
     Davidson diagonalization with overlap
     ethr =  5.70E-03,  avg # of iterations =  1.5

     negative rho (up, down):  4.048E-04 5.145E-04
 
     Adding external electric field

     Computed dipole along edir(3) : 
        Dipole               -1.1848 Ry au,         -3.0116 Debye
        Dipole field         -0.0007 Ry au, 
 
        Potential amp.        0.0795 Ry
        Total length         54.2615 bohr
 
 
     Adding external electric field

     Computed dipole along edir(3) : 
        Dipole               -1.1848 Ry au,         -3.0116 Debye
        Dipole field         -0.0007 Ry au, 
 
        Potential amp.        0.0795 Ry
        Total length         54.2615 bohr
 

     total cpu time spent up to now is      104.6 secs

     total energy              =   -7395.34710459 Ry
     estimated scf accuracy    <      11.11477473 Ry

     total magnetization       =    82.00 Bohr mag/cell
     absolute magnetization    =   116.83 Bohr mag/cell

     iteration #  7     ecut=    50.00 Ry     beta= 0.10
     Davidson diagonalization with overlap
     ethr =  1.03E-03,  avg # of iterations =  4.5

     negative rho (up, down):  3.858E-04 5.013E-04
 
     Adding external electric field

     Computed dipole along edir(3) : 
        Dipole               -1.1793 Ry au,         -2.9974 Debye
        Dipole field         -0.0007 Ry au, 
 
        Potential amp.        0.0791 Ry
        Total length         54.2615 bohr
 
 
     Adding external electric field

     Computed dipole along edir(3) : 
        Dipole               -1.1793 Ry au,         -2.9974 Debye
        Dipole field         -0.0007 Ry au, 
 
        Potential amp.        0.0791 Ry
        Total length         54.2615 bohr
 

     total cpu time spent up to now is      123.8 secs

     total energy              =   -7397.62023733 Ry
     estimated scf accuracy    <      10.61273788 Ry

     total magnetization       =    71.60 Bohr mag/cell
     absolute magnetization    =    88.98 Bohr mag/cell

     iteration #  8     ecut=    50.00 Ry     beta= 0.10
     Davidson diagonalization with overlap
     ethr =  9.84E-04,  avg # of iterations =  1.0

     negative rho (up, down):  2.855E-04 3.923E-04
 
     Adding external electric field

     Computed dipole along edir(3) : 
        Dipole               -1.1303 Ry au,         -2.8730 Debye
        Dipole field         -0.0007 Ry au, 
 
        Potential amp.        0.0759 Ry
        Total length         54.2615 bohr
 
 
     Adding external electric field

     Computed dipole along edir(3) : 
        Dipole               -1.1303 Ry au,         -2.8730 Debye
        Dipole field         -0.0007 Ry au, 
 
        Potential amp.        0.0759 Ry
        Total length         54.2615 bohr
 

     total cpu time spent up to now is      135.0 secs

     total energy              =   -7397.57710756 Ry
     estimated scf accuracy    <      10.16591675 Ry

     total magnetization       =    71.80 Bohr mag/cell
     absolute magnetization    =    88.81 Bohr mag/cell

     iteration #  9     ecut=    50.00 Ry     beta= 0.10
     Davidson diagonalization with overlap
     ethr =  9.43E-04,  avg # of iterations =  1.5

     negative rho (up, down):  1.045E-04 2.128E-04
 
     Adding external electric field

     Computed dipole along edir(3) : 
        Dipole               -1.0303 Ry au,         -2.6187 Debye
        Dipole field         -0.0006 Ry au, 
 
        Potential amp.        0.0691 Ry
        Total length         54.2615 bohr
 
 
     Adding external electric field

     Computed dipole along edir(3) : 
        Dipole               -1.0303 Ry au,         -2.6187 Debye
        Dipole field         -0.0006 Ry au, 
 
        Potential amp.        0.0691 Ry
        Total length         54.2615 bohr
 

     total cpu time spent up to now is      147.1 secs

     total energy              =   -7397.42085813 Ry
     estimated scf accuracy    <       8.63273523 Ry

     total magnetization       =    72.00 Bohr mag/cell
     absolute magnetization    =    88.11 Bohr mag/cell

     iteration # 10     ecut=    50.00 Ry     beta= 0.10
     Davidson diagonalization with overlap
     ethr =  8.01E-04,  avg # of iterations =  1.5

     negative rho (up, down):  1.081E-04 3.235E-04
 
     Adding external electric field

     Computed dipole along edir(3) : 
        Dipole               -1.1030 Ry au,         -2.8035 Debye
        Dipole field         -0.0007 Ry au, 
 
        Potential amp.        0.0740 Ry
        Total length         54.2615 bohr
 
 
     Adding external electric field

     Computed dipole along edir(3) : 
        Dipole               -1.1030 Ry au,         -2.8035 Debye
        Dipole field         -0.0007 Ry au, 
 
        Potential amp.        0.0740 Ry
        Total length         54.2615 bohr
 

     total cpu time spent up to now is      158.9 secs

     total energy              =   -7397.57673501 Ry
     estimated scf accuracy    <       2.54016704 Ry

     total magnetization       =    77.24 Bohr mag/cell
     absolute magnetization    =    90.04 Bohr mag/cell

     iteration # 11     ecut=    50.00 Ry     beta= 0.10
     Davidson diagonalization with overlap
     ethr =  2.36E-04,  avg # of iterations =  5.5

     negative rho (up, down):  7.300E-05 3.816E-04
 
     Adding external electric field

     Computed dipole along edir(3) : 
        Dipole               -1.1430 Ry au,         -2.9053 Debye
        Dipole field         -0.0007 Ry au, 
 
        Potential amp.        0.0767 Ry
        Total length         54.2615 bohr
 
 
     Adding external electric field

     Computed dipole along edir(3) : 
        Dipole               -1.1430 Ry au,         -2.9053 Debye
        Dipole field         -0.0007 Ry au, 
 
        Potential amp.        0.0767 Ry
        Total length         54.2615 bohr
 

     total cpu time spent up to now is      173.1 secs

     total energy              =   -7397.63301138 Ry
     estimated scf accuracy    <       2.16373057 Ry

     total magnetization       =    76.27 Bohr mag/cell
     absolute magnetization    =    88.26 Bohr mag/cell

     iteration # 12     ecut=    50.00 Ry     beta= 0.10
     Davidson diagonalization with overlap
     c_bands:  1 eigenvalues not converged
     ethr =  2.01E-04,  avg # of iterations = 12.0

     negative rho (up, down):  7.169E-05 4.781E-04
 
     Adding external electric field

     Computed dipole along edir(3) : 
        Dipole               -1.1343 Ry au,         -2.8831 Debye
        Dipole field         -0.0007 Ry au, 
 
        Potential amp.        0.0761 Ry
        Total length         54.2615 bohr
 
 
     Adding external electric field

     Computed dipole along edir(3) : 
        Dipole               -1.1343 Ry au,         -2.8831 Debye
        Dipole field         -0.0007 Ry au, 
 
        Potential amp.        0.0761 Ry
        Total length         54.2615 bohr
 

     total cpu time spent up to now is      190.9 secs

     total energy              =   -7397.97414888 Ry
     estimated scf accuracy    <       0.93864518 Ry

     total magnetization       =    81.88 Bohr mag/cell
     absolute magnetization    =    89.07 Bohr mag/cell

     iteration # 13     ecut=    50.00 Ry     beta= 0.10
     Davidson diagonalization with overlap
     ethr =  8.71E-05,  avg # of iterations = 18.0

     negative rho (up, down):  2.067E-05 2.395E-04
 
     Adding external electric field

     Computed dipole along edir(3) : 
        Dipole               -1.0519 Ry au,         -2.6736 Debye
        Dipole field         -0.0007 Ry au, 
 
        Potential amp.        0.0706 Ry
        Total length         54.2615 bohr
 
 
     Adding external electric field

     Computed dipole along edir(3) : 
        Dipole               -1.0519 Ry au,         -2.6736 Debye
        Dipole field         -0.0007 Ry au, 
 
        Potential amp.        0.0706 Ry
        Total length         54.2615 bohr
 

     total cpu time spent up to now is      217.9 secs

     total energy              =   -7398.00569918 Ry
     estimated scf accuracy    <       1.02855470 Ry

     total magnetization       =    81.89 Bohr mag/cell
     absolute magnetization    =    87.07 Bohr mag/cell

     iteration # 14     ecut=    50.00 Ry     beta= 0.10
     Davidson diagonalization with overlap
     ethr =  8.71E-05,  avg # of iterations =  1.5

     negative rho (up, down):  2.368E-06 5.953E-05
 
     Adding external electric field

     Computed dipole along edir(3) : 
        Dipole               -0.9921 Ry au,         -2.5216 Debye
        Dipole field         -0.0006 Ry au, 
 
        Potential amp.        0.0666 Ry
        Total length         54.2615 bohr
 
 
     Adding external electric field

     Computed dipole along edir(3) : 
        Dipole               -0.9921 Ry au,         -2.5216 Debye
        Dipole field         -0.0006 Ry au, 
 
        Potential amp.        0.0666 Ry
        Total length         54.2615 bohr
 

     total cpu time spent up to now is      229.7 secs

     total energy              =   -7397.99676913 Ry
     estimated scf accuracy    <       0.70855833 Ry

     total magnetization       =    81.58 Bohr mag/cell
     absolute magnetization    =    85.53 Bohr mag/cell

     iteration # 15     ecut=    50.00 Ry     beta= 0.10
     Davidson diagonalization with overlap
     ethr =  6.57E-05,  avg # of iterations =  2.0

     negative rho (up, down):  1.683E-06 6.788E-05
 
     Adding external electric field

     Computed dipole along edir(3) : 
        Dipole               -0.9921 Ry au,         -2.5216 Debye
        Dipole field         -0.0006 Ry au, 
 
        Potential amp.        0.0666 Ry
        Total length         54.2615 bohr
 
 
     Adding external electric field

     Computed dipole along edir(3) : 
        Dipole               -0.9921 Ry au,         -2.5216 Debye
        Dipole field         -0.0006 Ry au, 
 
        Potential amp.        0.0666 Ry
        Total length         54.2615 bohr
 

     total cpu time spent up to now is      242.7 secs

     total energy              =   -7398.00682389 Ry
     estimated scf accuracy    <       0.39393259 Ry

     total magnetization       =    80.79 Bohr mag/cell
     absolute magnetization    =    84.29 Bohr mag/cell

     iteration # 16     ecut=    50.00 Ry     beta= 0.10
     Davidson diagonalization with overlap
     ethr =  3.65E-05,  avg # of iterations =  1.5

     negative rho (up, down):  1.043E-06 6.436E-05
 
     Adding external electric field

     Computed dipole along edir(3) : 
        Dipole               -0.9788 Ry au,         -2.4880 Debye
        Dipole field         -0.0006 Ry au, 
 
        Potential amp.        0.0657 Ry
        Total length         54.2615 bohr
 
 
     Adding external electric field

     Computed dipole along edir(3) : 
        Dipole               -0.9788 Ry au,         -2.4880 Debye
        Dipole field         -0.0006 Ry au, 
 
        Potential amp.        0.0657 Ry
        Total length         54.2615 bohr
 

     total cpu time spent up to now is      255.7 secs

     total energy              =   -7398.02399205 Ry
     estimated scf accuracy    <       0.23434539 Ry

     total magnetization       =    80.84 Bohr mag/cell
     absolute magnetization    =    84.11 Bohr mag/cell

     iteration # 17     ecut=    50.00 Ry     beta= 0.10
     Davidson diagonalization with overlap
     ethr =  2.17E-05,  avg # of iterations =  9.5

     negative rho (up, down):  1.688E-06 7.619E-05
 
     Adding external electric field

     Computed dipole along edir(3) : 
        Dipole               -0.9792 Ry au,         -2.4890 Debye
        Dipole field         -0.0006 Ry au, 
 
        Potential amp.        0.0657 Ry
        Total length         54.2615 bohr
 
 
     Adding external electric field

     Computed dipole along edir(3) : 
        Dipole               -0.9792 Ry au,         -2.4890 Debye
        Dipole field         -0.0006 Ry au, 
 
        Potential amp.        0.0657 Ry
        Total length         54.2615 bohr
 

     total cpu time spent up to now is      278.4 secs

     total energy              =   -7398.03224216 Ry
     estimated scf accuracy    <       0.12172721 Ry

     total magnetization       =    80.34 Bohr mag/cell
     absolute magnetization    =    82.77 Bohr mag/cell

     iteration # 18     ecut=    50.00 Ry     beta= 0.10
     Davidson diagonalization with overlap
     ethr =  1.13E-05,  avg # of iterations =  1.5

     negative rho (up, down):  1.449E-05 4.466E-05
 
     Adding external electric field

     Computed dipole along edir(3) : 
        Dipole               -0.9385 Ry au,         -2.3855 Debye
        Dipole field         -0.0006 Ry au, 
 
        Potential amp.        0.0630 Ry
        Total length         54.2615 bohr
 
 
     Adding external electric field

     Computed dipole along edir(3) : 
        Dipole               -0.9385 Ry au,         -2.3855 Debye
        Dipole field         -0.0006 Ry au, 
 
        Potential amp.        0.0630 Ry
        Total length         54.2615 bohr
 

     total cpu time spent up to now is      288.9 secs

     total energy              =   -7398.03571986 Ry
     estimated scf accuracy    <       0.11296592 Ry

     total magnetization       =    81.00 Bohr mag/cell
     absolute magnetization    =    83.27 Bohr mag/cell

     iteration # 19     ecut=    50.00 Ry     beta= 0.10
     Davidson diagonalization with overlap
     ethr =  1.05E-05,  avg # of iterations = 12.0

     negative rho (up, down):  4.975E-07 3.261E-06
 
     Adding external electric field

     Computed dipole along edir(3) : 
        Dipole               -0.8770 Ry au,         -2.2292 Debye
        Dipole field         -0.0005 Ry au, 
 
        Potential amp.        0.0589 Ry
        Total length         54.2615 bohr
 
 
     Adding external electric field

     Computed dipole along edir(3) : 
        Dipole               -0.8770 Ry au,         -2.2292 Debye
        Dipole field         -0.0005 Ry au, 
 
        Potential amp.        0.0589 Ry
        Total length         54.2615 bohr
 

     total cpu time spent up to now is      313.0 secs

     total energy              =   -7398.03970256 Ry
     estimated scf accuracy    <       0.05978687 Ry

     total magnetization       =    80.45 Bohr mag/cell
     absolute magnetization    =    82.17 Bohr mag/cell

     iteration # 20     ecut=    50.00 Ry     beta= 0.10
     Davidson diagonalization with overlap
     c_bands:  2 eigenvalues not converged
     ethr =  5.55E-06,  avg # of iterations = 11.0

     negative rho (up, down):  1.048E-06 3.874E-06
 
     Adding external electric field

     Computed dipole along edir(3) : 
        Dipole               -0.8791 Ry au,         -2.2345 Debye
        Dipole field         -0.0005 Ry au, 
 
        Potential amp.        0.0590 Ry
        Total length         54.2615 bohr
 
 
     Adding external electric field

     Computed dipole along edir(3) : 
        Dipole               -0.8791 Ry au,         -2.2345 Debye
        Dipole field         -0.0005 Ry au, 
 
        Potential amp.        0.0590 Ry
        Total length         54.2615 bohr
 

     total cpu time spent up to now is      330.1 secs

     total energy              =   -7398.04163447 Ry
     estimated scf accuracy    <       0.17330631 Ry

     total magnetization       =    79.93 Bohr mag/cell
     absolute magnetization    =    81.70 Bohr mag/cell

     iteration # 21     ecut=    50.00 Ry     beta= 0.10
     Davidson diagonalization with overlap
     ethr =  5.55E-06,  avg # of iterations =  1.5

     negative rho (up, down):  2.266E-07 1.691E-07
 
     Adding external electric field

     Computed dipole along edir(3) : 
        Dipole               -0.8074 Ry au,         -2.0521 Debye
        Dipole field         -0.0005 Ry au, 
 
        Potential amp.        0.0542 Ry
        Total length         54.2615 bohr
 
 
     Adding external electric field

     Computed dipole along edir(3) : 
        Dipole               -0.8074 Ry au,         -2.0521 Debye
        Dipole field         -0.0005 Ry au, 
 
        Potential amp.        0.0542 Ry
        Total length         54.2615 bohr
 

     total cpu time spent up to now is      342.1 secs

     total energy              =   -7398.04029398 Ry
     estimated scf accuracy    <       0.08226290 Ry

     total magnetization       =    80.38 Bohr mag/cell
     absolute magnetization    =    82.06 Bohr mag/cell

     iteration # 22     ecut=    50.00 Ry     beta= 0.10
     Davidson diagonalization with overlap
     ethr =  5.55E-06,  avg # of iterations =  1.5

     negative rho (up, down):  6.348E-07 1.275E-07
 
     Adding external electric field

     Computed dipole along edir(3) : 
        Dipole               -0.8093 Ry au,         -2.0570 Debye
        Dipole field         -0.0005 Ry au, 
 
        Potential amp.        0.0543 Ry
        Total length         54.2615 bohr
 
 
     Adding external electric field

     Computed dipole along edir(3) : 
        Dipole               -0.8093 Ry au,         -2.0570 Debye
        Dipole field         -0.0005 Ry au, 
 
        Potential amp.        0.0543 Ry
        Total length         54.2615 bohr
 

     total cpu time spent up to now is      354.3 secs

     total energy              =   -7398.03905212 Ry
     estimated scf accuracy    <       0.22131393 Ry

     total magnetization       =    79.86 Bohr mag/cell
     absolute magnetization    =    81.52 Bohr mag/cell

     iteration # 23     ecut=    50.00 Ry     beta= 0.10
     Davidson diagonalization with overlap
     ethr =  5.55E-06,  avg # of iterations =  1.0

     negative rho (up, down):  1.369E-06 5.358E-08
 
     Adding external electric field

     Computed dipole along edir(3) : 
        Dipole               -0.8059 Ry au,         -2.0484 Debye
        Dipole field         -0.0005 Ry au, 
 
        Potential amp.        0.0541 Ry
        Total length         54.2615 bohr
 
 
     Adding external electric field

     Computed dipole along edir(3) : 
        Dipole               -0.8059 Ry au,         -2.0484 Debye
        Dipole field         -0.0005 Ry au, 
 
        Potential amp.        0.0541 Ry
        Total length         54.2615 bohr
 

     total cpu time spent up to now is      365.5 secs

     total energy              =   -7398.03768919 Ry
     estimated scf accuracy    <       0.11039626 Ry

     total magnetization       =    80.10 Bohr mag/cell
     absolute magnetization    =    81.74 Bohr mag/cell

     iteration # 24     ecut=    50.00 Ry     beta= 0.10
     Davidson diagonalization with overlap
     ethr =  5.55E-06,  avg # of iterations =  1.5

     negative rho (up, down):  1.315E-06 3.963E-08
 
     Adding external electric field

     Computed dipole along edir(3) : 
        Dipole               -0.7991 Ry au,         -2.0310 Debye
        Dipole field         -0.0005 Ry au, 
 
        Potential amp.        0.0536 Ry
        Total length         54.2615 bohr
 
 
     Adding external electric field

     Computed dipole along edir(3) : 
        Dipole               -0.7991 Ry au,         -2.0310 Debye
        Dipole field         -0.0005 Ry au, 
 
        Potential amp.        0.0536 Ry
        Total length         54.2615 bohr
 

     total cpu time spent up to now is      377.7 secs

     total energy              =   -7398.03809944 Ry
     estimated scf accuracy    <       0.05037308 Ry

     total magnetization       =    80.51 Bohr mag/cell
     absolute magnetization    =    82.14 Bohr mag/cell

     iteration # 25     ecut=    50.00 Ry     beta= 0.10
     Davidson diagonalization with overlap
     ethr =  4.67E-06,  avg # of iterations =  1.0

     negative rho (up, down):  1.253E-06 3.218E-08
 
     Adding external electric field

     Computed dipole along edir(3) : 
        Dipole               -0.7710 Ry au,         -1.9596 Debye
        Dipole field         -0.0005 Ry au, 
 
        Potential amp.        0.0517 Ry
        Total length         54.2615 bohr
 
 
     Adding external electric field

     Computed dipole along edir(3) : 
        Dipole               -0.7710 Ry au,         -1.9596 Debye
        Dipole field         -0.0005 Ry au, 
 
        Potential amp.        0.0517 Ry
        Total length         54.2615 bohr
 

     total cpu time spent up to now is      388.9 secs

     total energy              =   -7398.03795740 Ry
     estimated scf accuracy    <       0.04496246 Ry

     total magnetization       =    80.46 Bohr mag/cell
     absolute magnetization    =    82.11 Bohr mag/cell

     iteration # 26     ecut=    50.00 Ry     beta= 0.10
     Davidson diagonalization with overlap
     ethr =  4.17E-06,  avg # of iterations =  1.5

     negative rho (up, down):  1.594E-06 1.167E-07
 
     Adding external electric field

     Computed dipole along edir(3) : 
        Dipole               -0.7502 Ry au,         -1.9068 Debye
        Dipole field         -0.0005 Ry au, 
 
        Potential amp.        0.0503 Ry
        Total length         54.2615 bohr
 
 
     Adding external electric field

     Computed dipole along edir(3) : 
        Dipole               -0.7502 Ry au,         -1.9068 Debye
        Dipole field         -0.0005 Ry au, 
 
        Potential amp.        0.0503 Ry
        Total length         54.2615 bohr
 

     total cpu time spent up to now is      400.8 secs

     total energy              =   -7398.03831004 Ry
     estimated scf accuracy    <       0.03886136 Ry

     total magnetization       =    80.33 Bohr mag/cell
     absolute magnetization    =    82.03 Bohr mag/cell

     iteration # 27     ecut=    50.00 Ry     beta= 0.10
     Davidson diagonalization with overlap
     ethr =  3.60E-06,  avg # of iterations =  1.5

     negative rho (up, down):  6.843E-06 3.768E-06
 
     Adding external electric field

     Computed dipole along edir(3) : 
        Dipole               -0.6532 Ry au,         -1.6603 Debye
        Dipole field         -0.0004 Ry au, 
 
        Potential amp.        0.0438 Ry
        Total length         54.2615 bohr
 
 
     Adding external electric field

     Computed dipole along edir(3) : 
        Dipole               -0.6532 Ry au,         -1.6603 Debye
        Dipole field         -0.0004 Ry au, 
 
        Potential amp.        0.0438 Ry
        Total length         54.2615 bohr
 

     total cpu time spent up to now is      413.1 secs

     total energy              =   -7398.03841145 Ry
     estimated scf accuracy    <       0.03231118 Ry

     total magnetization       =    80.53 Bohr mag/cell
     absolute magnetization    =    82.22 Bohr mag/cell

     iteration # 28     ecut=    50.00 Ry     beta= 0.10
     Davidson diagonalization with overlap
     ethr =  3.00E-06,  avg # of iterations =  2.0

     negative rho (up, down):  8.558E-06 3.604E-06
 
     Adding external electric field

     Computed dipole along edir(3) : 
        Dipole               -0.6269 Ry au,         -1.5933 Debye
        Dipole field         -0.0004 Ry au, 
 
        Potential amp.        0.0421 Ry
        Total length         54.2615 bohr
 
 
     Adding external electric field

     Computed dipole along edir(3) : 
        Dipole               -0.6269 Ry au,         -1.5933 Debye
        Dipole field         -0.0004 Ry au, 
 
        Potential amp.        0.0421 Ry
        Total length         54.2615 bohr
 

     total cpu time spent up to now is      426.1 secs

     total energy              =   -7398.03816520 Ry
     estimated scf accuracy    <       0.02747099 Ry

     total magnetization       =    80.54 Bohr mag/cell
     absolute magnetization    =    82.07 Bohr mag/cell

     iteration # 29     ecut=    50.00 Ry     beta= 0.10
     Davidson diagonalization with overlap
     ethr =  2.55E-06,  avg # of iterations =  1.5

     negative rho (up, down):  9.623E-06 3.424E-06
 
     Adding external electric field

     Computed dipole along edir(3) : 
        Dipole               -0.6249 Ry au,         -1.5884 Debye
        Dipole field         -0.0004 Ry au, 
 
        Potential amp.        0.0419 Ry
        Total length         54.2615 bohr
 
 
     Adding external electric field

     Computed dipole along edir(3) : 
        Dipole               -0.6249 Ry au,         -1.5884 Debye
        Dipole field         -0.0004 Ry au, 
 
        Potential amp.        0.0419 Ry
        Total length         54.2615 bohr
 

     total cpu time spent up to now is      438.1 secs

     total energy              =   -7398.03805028 Ry
     estimated scf accuracy    <       0.03342536 Ry

     total magnetization       =    80.45 Bohr mag/cell
     absolute magnetization    =    81.90 Bohr mag/cell

     iteration # 30     ecut=    50.00 Ry     beta= 0.10
     Davidson diagonalization with overlap
     ethr =  2.55E-06,  avg # of iterations =  1.0

     negative rho (up, down):  1.072E-05 4.041E-06
 
     Adding external electric field

     Computed dipole along edir(3) : 
        Dipole               -0.6271 Ry au,         -1.5939 Debye
        Dipole field         -0.0004 Ry au, 
 
        Potential amp.        0.0421 Ry
        Total length         54.2615 bohr
 
 
     Adding external electric field

     Computed dipole along edir(3) : 
        Dipole               -0.6271 Ry au,         -1.5939 Debye
        Dipole field         -0.0004 Ry au, 
 
        Potential amp.        0.0421 Ry
        Total length         54.2615 bohr
 

     total cpu time spent up to now is      450.3 secs

     total energy              =   -7398.03805100 Ry
     estimated scf accuracy    <       0.03425716 Ry

     total magnetization       =    80.44 Bohr mag/cell
     absolute magnetization    =    81.88 Bohr mag/cell

     iteration # 31     ecut=    50.00 Ry     beta= 0.10
     Davidson diagonalization with overlap
     ethr =  2.55E-06,  avg # of iterations =  1.5

     negative rho (up, down):  1.114E-05 3.357E-06
 
     Adding external electric field

     Computed dipole along edir(3) : 
        Dipole               -0.6228 Ry au,         -1.5829 Debye
        Dipole field         -0.0004 Ry au, 
 
        Potential amp.        0.0418 Ry
        Total length         54.2615 bohr
 
 
     Adding external electric field

     Computed dipole along edir(3) : 
        Dipole               -0.6228 Ry au,         -1.5829 Debye
        Dipole field         -0.0004 Ry au, 
 
        Potential amp.        0.0418 Ry
        Total length         54.2615 bohr
 

     total cpu time spent up to now is      463.3 secs

     total energy              =   -7398.03783984 Ry
     estimated scf accuracy    <       0.03104991 Ry

     total magnetization       =    80.48 Bohr mag/cell
     absolute magnetization    =    81.90 Bohr mag/cell

     iteration # 32     ecut=    50.00 Ry     beta= 0.10
     Davidson diagonalization with overlap
     ethr =  2.55E-06,  avg # of iterations =  1.5

     negative rho (up, down):  2.293E-05 7.655E-06
 
     Adding external electric field

     Computed dipole along edir(3) : 
        Dipole               -0.5863 Ry au,         -1.4901 Debye
        Dipole field         -0.0004 Ry au, 
 
        Potential amp.        0.0393 Ry
        Total length         54.2615 bohr
 
 
     Adding external electric field

     Computed dipole along edir(3) : 
        Dipole               -0.5863 Ry au,         -1.4901 Debye
        Dipole field         -0.0004 Ry au, 
 
        Potential amp.        0.0393 Ry
        Total length         54.2615 bohr
 

     total cpu time spent up to now is      475.5 secs

     total energy              =   -7398.03724362 Ry
     estimated scf accuracy    <       0.03201560 Ry

     total magnetization       =    80.49 Bohr mag/cell
     absolute magnetization    =    81.90 Bohr mag/cell

     iteration # 33     ecut=    50.00 Ry     beta= 0.10
     Davidson diagonalization with overlap
     ethr =  2.55E-06,  avg # of iterations =  3.0

     negative rho (up, down):  1.624E-04 1.614E-04
 
     Adding external electric field

     Computed dipole along edir(3) : 
        Dipole               -0.4644 Ry au,         -1.1805 Debye
        Dipole field         -0.0003 Ry au, 
 
        Potential amp.        0.0312 Ry
        Total length         54.2615 bohr
 
 
     Adding external electric field

     Computed dipole along edir(3) : 
        Dipole               -0.4644 Ry au,         -1.1805 Debye
        Dipole field         -0.0003 Ry au, 
 
        Potential amp.        0.0312 Ry
        Total length         54.2615 bohr
 

     total cpu time spent up to now is      488.5 secs

     total energy              =   -7398.03643478 Ry
     estimated scf accuracy    <       0.02376963 Ry

     total magnetization       =    80.50 Bohr mag/cell
     absolute magnetization    =    81.91 Bohr mag/cell

     iteration # 34     ecut=    50.00 Ry     beta= 0.10
     Davidson diagonalization with overlap
     c_bands:  5 eigenvalues not converged
     ethr =  2.20E-06,  avg # of iterations = 19.5

     negative rho (up, down):  9.516E-04 9.907E-04
 
     Adding external electric field

     Computed dipole along edir(3) : 
        Dipole               -0.3504 Ry au,         -0.8907 Debye
        Dipole field         -0.0002 Ry au, 
 
        Potential amp.        0.0235 Ry
        Total length         54.2615 bohr
 
 
     Adding external electric field

     Computed dipole along edir(3) : 
        Dipole               -0.3504 Ry au,         -0.8907 Debye
        Dipole field         -0.0002 Ry au, 
 
        Potential amp.        0.0235 Ry
        Total length         54.2615 bohr
 

     total cpu time spent up to now is      513.2 secs

     total energy              =   -7398.03612486 Ry
     estimated scf accuracy    <       0.01334608 Ry

     total magnetization       =    80.45 Bohr mag/cell
     absolute magnetization    =    82.02 Bohr mag/cell

     iteration # 35     ecut=    50.00 Ry     beta= 0.10
     Davidson diagonalization with overlap
     ethr =  1.24E-06,  avg # of iterations =  3.0

     negative rho (up, down):  7.407E-04 7.954E-04
 
     Adding external electric field

     Computed dipole along edir(3) : 
        Dipole               -0.3456 Ry au,         -0.8785 Debye
        Dipole field         -0.0002 Ry au, 
 
        Potential amp.        0.0232 Ry
        Total length         54.2615 bohr
 
 
     Adding external electric field

     Computed dipole along edir(3) : 
        Dipole               -0.3456 Ry au,         -0.8785 Debye
        Dipole field         -0.0002 Ry au, 
 
        Potential amp.        0.0232 Ry
        Total length         54.2615 bohr
 

     total cpu time spent up to now is      526.6 secs

     total energy              =   -7398.03608903 Ry
     estimated scf accuracy    <       0.01086145 Ry

     total magnetization       =    80.48 Bohr mag/cell
     absolute magnetization    =    82.10 Bohr mag/cell

     iteration # 36     ecut=    50.00 Ry     beta= 0.10
     Davidson diagonalization with overlap
     ethr =  1.01E-06,  avg # of iterations =  1.0

     negative rho (up, down):  8.922E-04 8.620E-04
 
     Adding external electric field

     Computed dipole along edir(3) : 
        Dipole               -0.2486 Ry au,         -0.6319 Debye
        Dipole field         -0.0002 Ry au, 
 
        Potential amp.        0.0167 Ry
        Total length         54.2615 bohr
 
 
     Adding external electric field

     Computed dipole along edir(3) : 
        Dipole               -0.2486 Ry au,         -0.6319 Debye
        Dipole field         -0.0002 Ry au, 
 
        Potential amp.        0.0167 Ry
        Total length         54.2615 bohr
 

     total cpu time spent up to now is      537.3 secs

     total energy              =   -7398.03559684 Ry
     estimated scf accuracy    <       0.00862205 Ry

     total magnetization       =    80.48 Bohr mag/cell
     absolute magnetization    =    82.12 Bohr mag/cell

     iteration # 37     ecut=    50.00 Ry     beta= 0.10
     Davidson diagonalization with overlap
     ethr =  8.00E-07,  avg # of iterations =  2.0

     negative rho (up, down):  2.765E-03 2.964E-03
 
     Adding external electric field

     Computed dipole along edir(3) : 
        Dipole               -0.1481 Ry au,         -0.3765 Debye
        Dipole field         -0.0001 Ry au, 
 
        Potential amp.        0.0099 Ry
        Total length         54.2615 bohr
 
 
     Adding external electric field

     Computed dipole along edir(3) : 
        Dipole               -0.1481 Ry au,         -0.3765 Debye
        Dipole field         -0.0001 Ry au, 
 
        Potential amp.        0.0099 Ry
        Total length         54.2615 bohr
 

     total cpu time spent up to now is      549.5 secs

     total energy              =   -7398.03579027 Ry
     estimated scf accuracy    <       0.00459753 Ry

     total magnetization       =    80.51 Bohr mag/cell
     absolute magnetization    =    82.18 Bohr mag/cell

     iteration # 38     ecut=    50.00 Ry     beta= 0.10
     Davidson diagonalization with overlap
     ethr =  4.26E-07,  avg # of iterations =  2.0

     negative rho (up, down):  2.047E-03 2.257E-03
 
     Adding external electric field

     Computed dipole along edir(3) : 
        Dipole               -0.1346 Ry au,         -0.3420 Debye
        Dipole field         -0.0001 Ry au, 
 
        Potential amp.        0.0090 Ry
        Total length         54.2615 bohr
 
 
     Adding external electric field

     Computed dipole along edir(3) : 
        Dipole               -0.1346 Ry au,         -0.3420 Debye
        Dipole field         -0.0001 Ry au, 
 
        Potential amp.        0.0090 Ry
        Total length         54.2615 bohr
 

     total cpu time spent up to now is      562.2 secs

     total energy              =   -7398.03589780 Ry
     estimated scf accuracy    <       0.00268550 Ry

     total magnetization       =    80.48 Bohr mag/cell
     absolute magnetization    =    82.14 Bohr mag/cell

     iteration # 39     ecut=    50.00 Ry     beta= 0.10
     Davidson diagonalization with overlap
     ethr =  2.49E-07,  avg # of iterations =  2.0

     negative rho (up, down):  1.368E-03 1.727E-03
 
     Adding external electric field

     Computed dipole along edir(3) : 
        Dipole               -0.1337 Ry au,         -0.3399 Debye
        Dipole field         -0.0001 Ry au, 
 
        Potential amp.        0.0090 Ry
        Total length         54.2615 bohr
 
 
     Adding external electric field

     Computed dipole along edir(3) : 
        Dipole               -0.1337 Ry au,         -0.3399 Debye
        Dipole field         -0.0001 Ry au, 
 
        Potential amp.        0.0090 Ry
        Total length         54.2615 bohr
 

     total cpu time spent up to now is      574.9 secs

     total energy              =   -7398.03581980 Ry
     estimated scf accuracy    <       0.00214401 Ry

     total magnetization       =    80.48 Bohr mag/cell
     absolute magnetization    =    82.06 Bohr mag/cell

     iteration # 40     ecut=    50.00 Ry     beta= 0.10
     Davidson diagonalization with overlap
     ethr =  1.99E-07,  avg # of iterations =  2.0

     negative rho (up, down):  3.446E-05 3.438E-05
 
     Adding external electric field

     Computed dipole along edir(3) : 
        Dipole               -0.1769 Ry au,         -0.4496 Debye
        Dipole field         -0.0001 Ry au, 
 
        Potential amp.        0.0119 Ry
        Total length         54.2615 bohr
 
 
     Adding external electric field

     Computed dipole along edir(3) : 
        Dipole               -0.1769 Ry au,         -0.4496 Debye
        Dipole field         -0.0001 Ry au, 
 
        Potential amp.        0.0119 Ry
        Total length         54.2615 bohr
 

     total cpu time spent up to now is      587.3 secs

     total energy              =   -7398.03580032 Ry
     estimated scf accuracy    <       0.00152175 Ry

     total magnetization       =    80.46 Bohr mag/cell
     absolute magnetization    =    82.05 Bohr mag/cell

     iteration # 41     ecut=    50.00 Ry     beta= 0.10
     Davidson diagonalization with overlap
     ethr =  1.41E-07,  avg # of iterations =  2.0

     negative rho (up, down):  1.505E-05 1.630E-05
 
     Adding external electric field

     Computed dipole along edir(3) : 
        Dipole               -0.1877 Ry au,         -0.4772 Debye
        Dipole field         -0.0001 Ry au, 
 
        Potential amp.        0.0126 Ry
        Total length         54.2615 bohr
 
 
     Adding external electric field

     Computed dipole along edir(3) : 
        Dipole               -0.1877 Ry au,         -0.4772 Debye
        Dipole field         -0.0001 Ry au, 
 
        Potential amp.        0.0126 Ry
        Total length         54.2615 bohr
 

     total cpu time spent up to now is      600.5 secs

     total energy              =   -7398.03586849 Ry
     estimated scf accuracy    <       0.00114744 Ry

     total magnetization       =    80.46 Bohr mag/cell
     absolute magnetization    =    82.03 Bohr mag/cell

     iteration # 42     ecut=    50.00 Ry     beta= 0.10
     Davidson diagonalization with overlap
     ethr =  1.06E-07,  avg # of iterations =  2.0

     negative rho (up, down):  1.194E-05 9.441E-06
 
     Adding external electric field

     Computed dipole along edir(3) : 
        Dipole               -0.2096 Ry au,         -0.5328 Debye
        Dipole field         -0.0001 Ry au, 
 
        Potential amp.        0.0141 Ry
        Total length         54.2615 bohr
 
 
     Adding external electric field

     Computed dipole along edir(3) : 
        Dipole               -0.2096 Ry au,         -0.5328 Debye
        Dipole field         -0.0001 Ry au, 
 
        Potential amp.        0.0141 Ry
        Total length         54.2615 bohr
 

     total cpu time spent up to now is      613.0 secs

     total energy              =   -7398.03584257 Ry
     estimated scf accuracy    <       0.00074077 Ry

     total magnetization       =    80.45 Bohr mag/cell
     absolute magnetization    =    82.03 Bohr mag/cell

     iteration # 43     ecut=    50.00 Ry     beta= 0.10
     Davidson diagonalization with overlap
     ethr =  6.87E-08,  avg # of iterations =  2.0

     negative rho (up, down):  5.637E-05 2.456E-05
 
     Adding external electric field

     Computed dipole along edir(3) : 
        Dipole               -0.2063 Ry au,         -0.5244 Debye
        Dipole field         -0.0001 Ry au, 
 
        Potential amp.        0.0138 Ry
        Total length         54.2615 bohr
 
 
     Adding external electric field

     Computed dipole along edir(3) : 
        Dipole               -0.2063 Ry au,         -0.5244 Debye
        Dipole field         -0.0001 Ry au, 
 
        Potential amp.        0.0138 Ry
        Total length         54.2615 bohr
 

     total cpu time spent up to now is      625.6 secs

     total energy              =   -7398.03586098 Ry
     estimated scf accuracy    <       0.00056060 Ry

     total magnetization       =    80.45 Bohr mag/cell
     absolute magnetization    =    82.02 Bohr mag/cell

     iteration # 44     ecut=    50.00 Ry     beta= 0.10
     Davidson diagonalization with overlap
     ethr =  5.20E-08,  avg # of iterations =  2.0

     negative rho (up, down):  1.167E-04 4.434E-05
 
     Adding external electric field

     Computed dipole along edir(3) : 
        Dipole               -0.2052 Ry au,         -0.5216 Debye
        Dipole field         -0.0001 Ry au, 
 
        Potential amp.        0.0138 Ry
        Total length         54.2615 bohr
 
 
     Adding external electric field

     Computed dipole along edir(3) : 
        Dipole               -0.2052 Ry au,         -0.5216 Debye
        Dipole field         -0.0001 Ry au, 
 
        Potential amp.        0.0138 Ry
        Total length         54.2615 bohr
 

     total cpu time spent up to now is      638.3 secs

     total energy              =   -7398.03588173 Ry
     estimated scf accuracy    <       0.00038144 Ry

     total magnetization       =    80.45 Bohr mag/cell
     absolute magnetization    =    82.01 Bohr mag/cell

     iteration # 45     ecut=    50.00 Ry     beta= 0.10
     Davidson diagonalization with overlap
     ethr =  3.54E-08,  avg # of iterations =  2.0

     negative rho (up, down):  2.176E-04 1.086E-04
 
     Adding external electric field

     Computed dipole along edir(3) : 
        Dipole               -0.2052 Ry au,         -0.5215 Debye
        Dipole field         -0.0001 Ry au, 
 
        Potential amp.        0.0138 Ry
        Total length         54.2615 bohr
 
 
     Adding external electric field

     Computed dipole along edir(3) : 
        Dipole               -0.2052 Ry au,         -0.5215 Debye
        Dipole field         -0.0001 Ry au, 
 
        Potential amp.        0.0138 Ry
        Total length         54.2615 bohr
 

     total cpu time spent up to now is      650.4 secs

     total energy              =   -7398.03589458 Ry
     estimated scf accuracy    <       0.00027600 Ry

     total magnetization       =    80.44 Bohr mag/cell
     absolute magnetization    =    81.99 Bohr mag/cell

     iteration # 46     ecut=    50.00 Ry     beta= 0.10
     Davidson diagonalization with overlap
     ethr =  2.56E-08,  avg # of iterations =  2.0

     negative rho (up, down):  5.438E-04 3.973E-04
 
     Adding external electric field

     Computed dipole along edir(3) : 
        Dipole               -0.1899 Ry au,         -0.4827 Debye
        Dipole field         -0.0001 Ry au, 
 
        Potential amp.        0.0127 Ry
        Total length         54.2615 bohr
 
 
     Adding external electric field

     Computed dipole along edir(3) : 
        Dipole               -0.1899 Ry au,         -0.4827 Debye
        Dipole field         -0.0001 Ry au, 
 
        Potential amp.        0.0127 Ry
        Total length         54.2615 bohr
 

     total cpu time spent up to now is      662.9 secs

     total energy              =   -7398.03593065 Ry
     estimated scf accuracy    <       0.00020140 Ry

     total magnetization       =    80.44 Bohr mag/cell
     absolute magnetization    =    81.97 Bohr mag/cell

     iteration # 47     ecut=    50.00 Ry     beta= 0.10
     Davidson diagonalization with overlap
     ethr =  1.87E-08,  avg # of iterations =  2.0

     negative rho (up, down):  1.360E-03 1.286E-03
 
     Adding external electric field

     Computed dipole along edir(3) : 
        Dipole               -0.1731 Ry au,         -0.4399 Debye
        Dipole field         -0.0001 Ry au, 
 
        Potential amp.        0.0116 Ry
        Total length         54.2615 bohr
 
 
     Adding external electric field

     Computed dipole along edir(3) : 
        Dipole               -0.1731 Ry au,         -0.4399 Debye
        Dipole field         -0.0001 Ry au, 
 
        Potential amp.        0.0116 Ry
        Total length         54.2615 bohr
 

     total cpu time spent up to now is      675.4 secs

     total energy              =   -7398.03594586 Ry
     estimated scf accuracy    <       0.00014735 Ry

     total magnetization       =    80.44 Bohr mag/cell
     absolute magnetization    =    81.98 Bohr mag/cell

     iteration # 48     ecut=    50.00 Ry     beta= 0.10
     Davidson diagonalization with overlap
     ethr =  1.37E-08,  avg # of iterations =  2.0

     negative rho (up, down):  1.835E-03 1.796E-03
 
     Adding external electric field

     Computed dipole along edir(3) : 
        Dipole               -0.1622 Ry au,         -0.4123 Debye
        Dipole field         -0.0001 Ry au, 
 
        Potential amp.        0.0109 Ry
        Total length         54.2615 bohr
 
 
     Adding external electric field

     Computed dipole along edir(3) : 
        Dipole               -0.1622 Ry au,         -0.4123 Debye
        Dipole field         -0.0001 Ry au, 
 
        Potential amp.        0.0109 Ry
        Total length         54.2615 bohr
 

     total cpu time spent up to now is      688.1 secs

     total energy              =   -7398.03595839 Ry
     estimated scf accuracy    <       0.00010043 Ry

     total magnetization       =    80.44 Bohr mag/cell
     absolute magnetization    =    81.98 Bohr mag/cell

     iteration # 49     ecut=    50.00 Ry     beta= 0.10
     Davidson diagonalization with overlap
     ethr =  9.32E-09,  avg # of iterations =  1.5

     negative rho (up, down):  2.199E-03 2.136E-03
 
     Adding external electric field

     Computed dipole along edir(3) : 
        Dipole               -0.1460 Ry au,         -0.3711 Debye
        Dipole field         -0.0001 Ry au, 
 
        Potential amp.        0.0098 Ry
        Total length         54.2615 bohr
 
 
     Adding external electric field

     Computed dipole along edir(3) : 
        Dipole               -0.1460 Ry au,         -0.3711 Debye
        Dipole field         -0.0001 Ry au, 
 
        Potential amp.        0.0098 Ry
        Total length         54.2615 bohr
 

     total cpu time spent up to now is      699.8 secs

     total energy              =   -7398.03597746 Ry
     estimated scf accuracy    <       0.00008427 Ry

     total magnetization       =    80.44 Bohr mag/cell
     absolute magnetization    =    81.99 Bohr mag/cell

     iteration # 50     ecut=    50.00 Ry     beta= 0.10
     Davidson diagonalization with overlap
     ethr =  7.82E-09,  avg # of iterations =  1.5

     negative rho (up, down):  2.076E-03 1.893E-03
 
     Adding external electric field

     Computed dipole along edir(3) : 
        Dipole               -0.1371 Ry au,         -0.3486 Debye
        Dipole field         -0.0001 Ry au, 
 
        Potential amp.        0.0092 Ry
        Total length         54.2615 bohr
 
 
     Adding external electric field

     Computed dipole along edir(3) : 
        Dipole               -0.1371 Ry au,         -0.3486 Debye
        Dipole field         -0.0001 Ry au, 
 
        Potential amp.        0.0092 Ry
        Total length         54.2615 bohr
 

     total cpu time spent up to now is      711.7 secs

     total energy              =   -7398.03598359 Ry
     estimated scf accuracy    <       0.00005352 Ry

     total magnetization       =    80.44 Bohr mag/cell
     absolute magnetization    =    81.98 Bohr mag/cell

     iteration # 51     ecut=    50.00 Ry     beta= 0.10
     Davidson diagonalization with overlap
     ethr =  4.96E-09,  avg # of iterations =  2.0

     negative rho (up, down):  1.848E-03 1.560E-03
 
     Adding external electric field

     Computed dipole along edir(3) : 
        Dipole               -0.1369 Ry au,         -0.3481 Debye
        Dipole field         -0.0001 Ry au, 
 
        Potential amp.        0.0092 Ry
        Total length         54.2615 bohr
 
 
     Adding external electric field

     Computed dipole along edir(3) : 
        Dipole               -0.1369 Ry au,         -0.3481 Debye
        Dipole field         -0.0001 Ry au, 
 
        Potential amp.        0.0092 Ry
        Total length         54.2615 bohr
 

     total cpu time spent up to now is      724.4 secs

     total energy              =   -7398.03598390 Ry
     estimated scf accuracy    <       0.00002952 Ry

     total magnetization       =    80.44 Bohr mag/cell
     absolute magnetization    =    81.97 Bohr mag/cell

     iteration # 52     ecut=    50.00 Ry     beta= 0.10
     Davidson diagonalization with overlap
     ethr =  2.74E-09,  avg # of iterations =  1.5

     negative rho (up, down):  1.551E-03 1.182E-03
 
     Adding external electric field

     Computed dipole along edir(3) : 
        Dipole               -0.1406 Ry au,         -0.3574 Debye
        Dipole field         -0.0001 Ry au, 
 
        Potential amp.        0.0094 Ry
        Total length         54.2615 bohr
 
 
     Adding external electric field

     Computed dipole along edir(3) : 
        Dipole               -0.1406 Ry au,         -0.3574 Debye
        Dipole field         -0.0001 Ry au, 
 
        Potential amp.        0.0094 Ry
        Total length         54.2615 bohr
 

     total cpu time spent up to now is      736.6 secs

     total energy              =   -7398.03597969 Ry
     estimated scf accuracy    <       0.00002107 Ry

     total magnetization       =    80.44 Bohr mag/cell
     absolute magnetization    =    81.97 Bohr mag/cell

     iteration # 53     ecut=    50.00 Ry     beta= 0.10
     Davidson diagonalization with overlap
     ethr =  1.95E-09,  avg # of iterations =  1.5

     negative rho (up, down):  1.412E-03 1.021E-03
 
     Adding external electric field

     Computed dipole along edir(3) : 
        Dipole               -0.1413 Ry au,         -0.3590 Debye
        Dipole field         -0.0001 Ry au, 
 
        Potential amp.        0.0095 Ry
        Total length         54.2615 bohr
 
 
     Adding external electric field

     Computed dipole along edir(3) : 
        Dipole               -0.1413 Ry au,         -0.3590 Debye
        Dipole field         -0.0001 Ry au, 
 
        Potential amp.        0.0095 Ry
        Total length         54.2615 bohr
 

     total cpu time spent up to now is      749.5 secs

     total energy              =   -7398.03597921 Ry
     estimated scf accuracy    <       0.00001430 Ry

     total magnetization       =    80.44 Bohr mag/cell
     absolute magnetization    =    81.97 Bohr mag/cell

     iteration # 54     ecut=    50.00 Ry     beta= 0.10
     Davidson diagonalization with overlap
     ethr =  1.33E-09,  avg # of iterations =  1.5

     negative rho (up, down):  1.183E-03 7.741E-04
 
     Adding external electric field

     Computed dipole along edir(3) : 
        Dipole               -0.1391 Ry au,         -0.3536 Debye
        Dipole field         -0.0001 Ry au, 
 
        Potential amp.        0.0093 Ry
        Total length         54.2615 bohr
 
 
     Adding external electric field

     Computed dipole along edir(3) : 
        Dipole               -0.1391 Ry au,         -0.3536 Debye
        Dipole field         -0.0001 Ry au, 
 
        Potential amp.        0.0093 Ry
        Total length         54.2615 bohr
 

     total cpu time spent up to now is      761.5 secs

     total energy              =   -7398.03597799 Ry
     estimated scf accuracy    <       0.00000963 Ry

     total magnetization       =    80.44 Bohr mag/cell
     absolute magnetization    =    81.97 Bohr mag/cell

     iteration # 55     ecut=    50.00 Ry     beta= 0.10
     Davidson diagonalization with overlap
     ethr =  8.93E-10,  avg # of iterations =  1.5

     negative rho (up, down):  1.043E-03 6.419E-04
 
     Adding external electric field

     Computed dipole along edir(3) : 
        Dipole               -0.1392 Ry au,         -0.3537 Debye
        Dipole field         -0.0001 Ry au, 
 
        Potential amp.        0.0093 Ry
        Total length         54.2615 bohr
 
 
     Adding external electric field

     Computed dipole along edir(3) : 
        Dipole               -0.1392 Ry au,         -0.3537 Debye
        Dipole field         -0.0001 Ry au, 
 
        Potential amp.        0.0093 Ry
        Total length         54.2615 bohr
 

     total cpu time spent up to now is      773.1 secs

     total energy              =   -7398.03597737 Ry
     estimated scf accuracy    <       0.00000476 Ry

     total magnetization       =    80.44 Bohr mag/cell
     absolute magnetization    =    81.98 Bohr mag/cell

     iteration # 56     ecut=    50.00 Ry     beta= 0.10
     Davidson diagonalization with overlap
     ethr =  4.42E-10,  avg # of iterations =  2.0

     negative rho (up, down):  8.989E-04 5.095E-04
 
     Adding external electric field

     Computed dipole along edir(3) : 
        Dipole               -0.1409 Ry au,         -0.3582 Debye
        Dipole field         -0.0001 Ry au, 
 
        Potential amp.        0.0095 Ry
        Total length         54.2615 bohr
 
 
     Adding external electric field

     Computed dipole along edir(3) : 
        Dipole               -0.1409 Ry au,         -0.3582 Debye
        Dipole field         -0.0001 Ry au, 
 
        Potential amp.        0.0095 Ry
        Total length         54.2615 bohr
 

     total cpu time spent up to now is      786.6 secs

     total energy              =   -7398.03597674 Ry
     estimated scf accuracy    <       0.00000288 Ry

     total magnetization       =    80.44 Bohr mag/cell
     absolute magnetization    =    81.98 Bohr mag/cell

     iteration # 57     ecut=    50.00 Ry     beta= 0.10
     Davidson diagonalization with overlap
     ethr =  2.67E-10,  avg # of iterations =  2.0

     negative rho (up, down):  7.751E-04 3.936E-04
 
     Adding external electric field

     Computed dipole along edir(3) : 
        Dipole               -0.1428 Ry au,         -0.3631 Debye
        Dipole field         -0.0001 Ry au, 
 
        Potential amp.        0.0096 Ry
        Total length         54.2615 bohr
 
 
     Adding external electric field

     Computed dipole along edir(3) : 
        Dipole               -0.1428 Ry au,         -0.3631 Debye
        Dipole field         -0.0001 Ry au, 
 
        Potential amp.        0.0096 Ry
        Total length         54.2615 bohr
 

     total cpu time spent up to now is      800.9 secs

     total energy              =   -7398.03597585 Ry
     estimated scf accuracy    <       0.00000130 Ry

     total magnetization       =    80.44 Bohr mag/cell
     absolute magnetization    =    81.98 Bohr mag/cell

     iteration # 58     ecut=    50.00 Ry     beta= 0.10
     Davidson diagonalization with overlap
     ethr =  1.20E-10,  avg # of iterations =  4.0

     negative rho (up, down):  9.304E-04 5.474E-04
 
     Adding external electric field

     Computed dipole along edir(3) : 
        Dipole               -0.1512 Ry au,         -0.3844 Debye
        Dipole field         -0.0001 Ry au, 
 
        Potential amp.        0.0101 Ry
[...]
    -6.0029  -5.9860  -5.9553  -5.9375  -5.9116  -5.8908  -5.8534  -5.8486
    -5.8178  -5.7968  -5.7613  -5.7419  -5.7321  -5.7236  -5.6990  -5.6804
    -5.6759  -5.6716  -5.6438  -5.6235  -5.6136  -5.5919  -5.5381  -5.5095
    -5.4619  -5.4459  -5.4156  -5.4005  -5.3884  -5.3515  -5.3049  -5.2891
    -5.2430  -5.2146  -5.1951  -5.1747  -5.1715  -5.0800  -5.0758  -5.0568
    -5.0043  -4.9726  -4.9524  -4.9195  -4.8980  -4.8764  -4.8522  -4.7992
    -4.7757  -4.7688  -4.7451  -4.7344  -4.6466  -4.6405  -4.5883  -4.5517
    -4.5359  -4.5203  -4.4872  -4.4540  -4.4212  -4.4052  -4.3836  -4.3688
    -4.3466  -4.2990  -4.2916  -4.2195  -4.1757  -4.1529  -4.1294  -4.0827
    -4.0752  -4.0466  -4.0384  -3.9997  -3.9627  -3.9536  -3.9257  -3.8996
    -3.8913  -3.8416  -3.8333  -3.8234  -3.7975  -3.7716  -3.7486  -3.7344
    -3.7192  -3.6969  -3.6622  -3.6466  -3.6439  -3.6289  -3.6068  -3.5906
    -3.5452  -3.5294  -3.5234  -3.5197  -3.4924  -3.4757  -3.4508  -3.4375
    -3.4248  -3.4059  -3.3931  -3.3474  -3.3464  -3.3004  -3.2914  -3.2579
    -3.2385  -3.2197  -3.2095  -3.1952  -3.1749  -3.1677  -3.1572  -3.1417
    -3.1168  -3.0743  -3.0403  -3.0303  -3.0284  -2.9964  -2.9728  -2.9573
    -2.9320  -2.9119  -2.9006  -2.8756  -2.8620  -2.8500  -2.8226  -2.8155
    -2.7955  -2.7913  -2.7843  -2.7737  -2.7508  -2.7454  -2.7267  -2.7026
    -2.6929  -2.6782  -2.6628  -2.6466  -2.6273  -2.6231  -2.5998  -2.5766
    -2.5623  -2.5422  -2.5286  -2.4946  -2.4927  -2.4807  -2.4659  -2.4395
    -2.4329  -2.4009  -2.3907  -2.3759  -2.3560  -2.3198  -2.3003  -2.2917
    -2.2647  -2.2553  -2.2315  -2.2020  -2.1773  -2.1637  -2.1336  -2.1243
    -2.1065  -2.0924  -2.0841  -2.0715  -2.0685  -2.0510  -2.0076  -1.9938
    -1.9790  -1.9703  -1.9609  -1.9352  -1.9245  -1.9182  -1.8872  -1.8742
    -1.8370  -1.8200  -1.7909  -1.7652  -1.7472  -1.7366  -1.7160  -1.6987
    -1.6655  -1.6561  -1.6419  -1.6299  -1.6117  -1.6005  -1.5776  -1.5481
    -1.5427  -1.5187  -1.4951  -1.4654  -1.4433  -1.4360  -1.4331  -1.4219
    -1.4096  -1.3781  -1.3376  -1.3096  -1.2980  -1.2377  -1.2195  -1.2086
    -1.1503  -1.0987  -1.0644  -1.0534  -1.0147  -0.9276  -0.8933  -0.8773
    -0.7787  -0.6634  -0.6147  -0.6082  -0.4643  -0.3678  -0.3051  -0.2601
     0.1042   0.1225   0.1576   0.1904   0.2305   0.2412   0.2598   0.2684
     0.2823   0.2851   0.2995   0.3008   0.3091   0.3259   0.3387   0.3448
     0.3493   0.3542   0.3681   0.3785   0.3831   0.3848   0.3948   0.4003
     0.4089   0.4163   0.4235   0.4346   0.4455   0.4484   0.4563   0.4572
     0.4633   0.4701   0.4754   0.4875   0.4930   0.4977   0.5004   0.5066
     0.5139   0.5316   0.5338   0.5414   0.5500   0.5583   0.5628   0.5782
     0.5807   0.5836   0.5904   0.5963   0.6077   0.6133   0.6200   0.6306
     0.6352   0.6448   0.6582   0.6601   0.6724   0.6759   0.6810   0.6854
     0.6973   0.7049   0.7110   0.7139   0.7191   0.7252   0.7380   0.7413
     0.7463   0.7500   0.7649   0.7711   0.7838   0.7860   0.7945   0.8077
     0.8216   0.8268   0.8431   0.8510   0.8601   0.8631   0.8780   0.8808
     0.8951   0.9108   0.9152   0.9247   0.9337   0.9852   0.9893   1.0137
     1.0705   1.1343   1.6107   1.6566   1.6992   1.7029   1.7120   1.7155
     1.7561   1.8447   1.8645   1.8752   1.8914   1.9291   1.9346   1.9629
     1.9707   1.9921   2.0163   2.0305   2.0395   2.0667   2.0827   2.1214
     2.1493   2.1600   2.1616   2.1927   2.1996   2.2069   2.2203   2.2277
     2.2419   2.2522   2.2621   2.2796   2.2870   2.2989   2.3040   2.3160
     2.3377   2.3492   2.3574   2.3727   2.4076   2.4112   2.4151   2.4447
     2.4587   2.4848   2.4973   2.4983   2.5139   2.5215   2.5462   2.5543
     2.5706   2.5814   2.5936   2.6281   2.6700   2.7053   2.7250   2.7467
     2.7802   2.8334   2.8806   2.8880   2.9056   3.5798   3.5891   3.6636
     3.7467   3.8222   3.8346   3.8434   3.8596   3.9972   4.0616   4.5840
     4.6392   4.7077   4.7733   4.9205   4.9472   5.0182   5.4117   6.2936
     6.3597   6.5416   6.5820   6.7414   6.8379   6.8507   6.8830   6.9279
     6.9927   7.0604   7.1108   7.1506   7.2960   7.3226   7.3678   7.4646
     7.5009   7.5582   7.6296   7.6699   7.6933   7.7501   7.7884   7.8088
     7.8637   7.9223   7.9292   7.9736   8.0153   8.0302   8.0556   8.0752
     8.1034   8.1190   8.1620   8.1861   8.2324   8.2629   8.2726   8.3274
     8.3754   8.3967   8.4227   8.4513   8.4662   8.4799   8.4951   8.5117
     8.5435   8.5656   8.5752   8.6069   8.6135   8.6418   8.6647   8.6894
     8.7194   8.7627   8.7779   8.8028   8.8292   8.8484   8.8651

     the Fermi energy is     1.5637 ev

!    total energy              =   -7398.03597682 Ry
     estimated scf accuracy    <       0.00000063 Ry
     smearing contrib. (-TS)   =      -0.01432540 Ry
     internal energy E=F+TS    =   -7398.02165142 Ry

     The total energy is F=E-TS. E is the sum of the following terms:
     one-electron contribution =  -91739.70799620 Ry
     hartree contribution      =   46517.74466190 Ry
     xc contribution           =   -2260.27748396 Ry
     ewald contribution        =   40086.05308108 Ry
     Dispersion Correction     =      -1.83392839 Ry
     electric field correction =       0.00001414 Ry

     total magnetization       =    80.44 Bohr mag/cell
     absolute magnetization    =    81.98 Bohr mag/cell

     convergence has been achieved in  58 iterations

     negative rho (up, down):  9.304E-04 5.474E-04

     Forces acting on atoms (cartesian axes, Ry/au):

     atom    1 type  2   force =     0.03097075   -0.01966694   -0.01642334
     atom    2 type  1   force =     0.00222289   -0.00396980   -0.01080117
     atom    3 type  1   force =    -0.02156877   -0.02070160    0.01805170
     atom    4 type  1   force =     0.00138124    0.01031084   -0.01277309
     atom    5 type  1   force =    -0.00483991    0.02907801   -0.01859510
     atom    6 type  1   force =     0.00587234    0.00045413   -0.00051535
     atom    7 type  1   force =     0.02689429   -0.02096018    0.01728033
     atom    8 type  1   force =    -0.00966467   -0.00313767   -0.01111451
     atom    9 type  1   force =    -0.02978712   -0.01821951    0.01601084
     atom   10 type  1   force =    -0.00115799    0.00809352   -0.01304667
     atom   11 type  1   force =    -0.01309431    0.03041531   -0.02075098
     atom   12 type  1   force =     0.00124653    0.00656316   -0.00416794
     atom   13 type  3   force =     0.05103160   -0.11003739    0.00917514
     atom   14 type  3   force =    -0.02903799    0.03593521   -0.06515889
     atom   15 type  3   force =    -0.00920961    0.17549294   -0.08317037
     atom   16 type  3   force =     0.06068117    0.00060280   -0.00437796
     atom   17 type  4   force =     0.01520755   -0.02182598   -0.00977923
     atom   18 type  4   force =    -0.00538452    0.00478870    0.02961241
     atom   19 type  4   force =     0.00212974    0.00099074    0.03072119
     atom   20 type  4   force =     0.00511414    0.00189964    0.00242740
     atom   21 type  4   force =     0.00055058   -0.01200385    0.00002776
     atom   22 type  4   force =    -0.00092117    0.00383895    0.03257941
     atom   23 type  4   force =    -0.00609988    0.01462481    0.02752134
     atom   24 type  4   force =     0.00866962    0.00320854   -0.00427302
     atom   25 type  4   force =     0.00648114   -0.00330266    0.00155040
     atom   26 type  4   force =     0.03112985   -0.17828435    0.00723761
     atom   27 type  4   force =     0.00290486    0.00098159    0.00169345
     atom   28 type  4   force =    -0.01697547    0.00168476    0.00474672
     atom   29 type  4   force =     0.09128266    0.00314669    0.00805072
     atom   30 type  4   force =     0.01310376   -0.02509227   -0.00089903
     atom   31 type  4   force =    -0.03845982    0.13336570   -0.00017368
     atom   32 type  4   force =    -0.00553729   -0.01186308    0.00652211
     atom   33 type  3   force =     0.04155648   -0.11927322    0.00970449
     atom   34 type  3   force =    -0.10168581    0.04259100   -0.07574021
     atom   35 type  3   force =    -0.01352220    0.16598962   -0.08810456
     atom   36 type  3   force =    -0.00359767    0.00261406   -0.01042344
     atom   37 type  4   force =     0.00824685   -0.01465414   -0.00235910
     atom   38 type  4   force =    -0.00584998   -0.00173351    0.02738661
     atom   39 type  4   force =    -0.00470300    0.00722184    0.03213978
     atom   40 type  4   force =     0.00128113    0.00005796    0.00252928
     atom   41 type  4   force =    -0.00149615   -0.00959514   -0.00158168
     atom   42 type  4   force =     0.00543311   -0.00056767    0.02942875
     atom   43 type  4   force =    -0.01047218    0.01345784    0.02715951
     atom   44 type  4   force =     0.00444876    0.00345887   -0.00446072
     atom   45 type  4   force =    -0.00033078   -0.00068097    0.00199578
     atom   46 type  4   force =     0.02811192   -0.17049283    0.00540869
     atom   47 type  4   force =    -0.06548915   -0.00075522   -0.00310533
     atom   48 type  4   force =    -0.01978758    0.00391917    0.00530362
     atom   49 type  4   force =     0.01399287    0.00084929    0.00204428
     atom   50 type  4   force =     0.00797284   -0.02432167   -0.00015640
     atom   51 type  4   force =    -0.03974142    0.13335350   -0.00136789
     atom   52 type  4   force =    -0.00780845   -0.01064162    0.00874745
     atom   53 type  2   force =     0.00646850   -0.00740666    0.00555914
     atom   54 type  1   force =    -0.00000075   -0.00551032    0.01034693
     atom   55 type  1   force =     0.00491408   -0.00630675    0.00651783
     atom   56 type  1   force =    -0.00035546    0.00725792   -0.00095501
     atom   57 type  1   force =     0.00047897    0.02207568   -0.01413651
     atom   58 type  1   force =     0.00163336   -0.00331725    0.00235138
     atom   59 type  1   force =     0.00243519   -0.00997608    0.00385724
     atom   60 type  1   force =    -0.00679861   -0.00344325    0.00390534
     atom   61 type  1   force =    -0.00471296   -0.00500165    0.00653720
     atom   62 type  1   force =    -0.00336899    0.00649287   -0.00177972
     atom   63 type  1   force =    -0.01082389    0.02497777   -0.01754964
     atom   64 type  1   force =    -0.00245502    0.00124258   -0.00061986
     atom   65 type  3   force =     0.04619161   -0.12079292    0.01817448
     atom   66 type  3   force =     0.00166268   -0.00422386    0.00096381
     atom   67 type  3   force =    -0.04064021    0.12355920   -0.00697903
     atom   68 type  3   force =     0.06283787   -0.00132107    0.00745784
     atom   69 type  4   force =     0.01261614   -0.01720737   -0.00255049
     atom   70 type  4   force =    -0.00186536    0.00340333   -0.00074052
     atom   71 type  4   force =    -0.00192913    0.00348721    0.00534717
     atom   72 type  4   force =     0.00467460    0.00132964    0.00127037
     atom   73 type  4   force =     0.00768879   -0.01761164    0.01305022
     atom   74 type  4   force =    -0.00444743   -0.00332230    0.00922214
     atom   75 type  4   force =     0.00353081    0.00865201    0.00460655
     atom   76 type  4   force =     0.00629328    0.00076981   -0.00004346
     atom   77 type  4   force =     0.00636314   -0.00185734   -0.00077727
     atom   78 type  4   force =     0.04528809   -0.14081345    0.00574476
     atom   79 type  4   force =     0.00007580    0.00012638   -0.00033123
     atom   80 type  4   force =     0.00151131    0.00191160    0.00224923
     atom   81 type  4   force =     0.06746510    0.00009170    0.00652705
     atom   82 type  4   force =     0.00014467    0.00224066    0.00128245
     atom   83 type  4   force =    -0.03929335    0.13817921   -0.00230286
     atom   84 type  4   force =    -0.00181658   -0.01028125    0.00353055
     atom   85 type  3   force =     0.03858686   -0.12489492    0.02469280
     atom   86 type  3   force =    -0.06336027   -0.00163074   -0.00380398
     atom   87 type  3   force =    -0.04619359    0.12069073   -0.01049810
     atom   88 type  3   force =    -0.00013008    0.00106185    0.00305489
     atom   89 type  4   force =     0.00911680   -0.01464969   -0.00549666
     atom   90 type  4   force =    -0.00446205    0.00103880   -0.00080855
     atom   91 type  4   force =    -0.00949183    0.00839854    0.00552449
     atom   92 type  4   force =     0.00041068   -0.00037836    0.00021574
     atom   93 type  4   force =     0.00175723   -0.01120208   -0.00113830
     atom   94 type  4   force =    -0.00897261   -0.00304037    0.00828716
     atom   95 type  4   force =    -0.00030515    0.00777739    0.00303465
     atom   96 type  4   force =    -0.00122350    0.00128756   -0.00006524
     atom   97 type  4   force =    -0.00124812    0.00114712   -0.00032251
     atom   98 type  4   force =     0.04064817   -0.13907409    0.00484399
     atom   99 type  4   force =    -0.06710766   -0.00078280   -0.00564739
     atom  100 type  4   force =    -0.00044463    0.00287511    0.00289222
     atom  101 type  4   force =    -0.00125722    0.00002593    0.00133676
     atom  102 type  4   force =    -0.00679691    0.00541662    0.00154961
     atom  103 type  4   force =    -0.04004740    0.13586374   -0.00440135
     atom  104 type  4   force =    -0.00550924   -0.00999513    0.00489469
     atom  105 type  2   force =    -0.00041732    0.00041386    0.00000986
     atom  106 type  1   force =    -0.00191440   -0.00214279    0.00255918
     atom  107 type  1   force =    -0.00005574   -0.00041760    0.00000438
     atom  108 type  1   force =     0.00033002    0.00047620   -0.00027381
     atom  109 type  1   force =    -0.00056901   -0.00007425   -0.00001581
     atom  110 type  1   force =    -0.00001275   -0.00008855    0.00018144
     atom  111 type  1   force =    -0.00006399    0.00033153    0.00007514
     atom  112 type  1   force =     0.00008093    0.00000856    0.00021590
     atom  113 type  1   force =     0.00008781   -0.00030453   -0.00019317
     atom  114 type  1   force =    -0.00046431    0.00016264   -0.00036714
     atom  115 type  1   force =     0.00026384   -0.00007054    0.00005147
     atom  116 type  1   force =    -0.00039653   -0.00035918    0.00011585
     atom  117 type  3   force =    -0.00021089   -0.00065152    0.00048326
     atom  118 type  3   force =     0.00026087   -0.00024644    0.00002797
     atom  119 type  3   force =    -0.00002773   -0.00006607   -0.00007888
     atom  120 type  3   force =    -0.00006588   -0.00028506    0.00010725
     atom  121 type  4   force =     0.00021308    0.00001703   -0.00050576
     atom  122 type  4   force =    -0.00017524    0.00017843    0.00043374
     atom  123 type  4   force =     0.00021062   -0.00024093    0.00008030
     atom  124 type  4   force =    -0.00020346   -0.00034428    0.00004743
     atom  125 type  4   force =    -0.00006999    0.00025756   -0.00039115
     atom  126 type  4   force =    -0.00009056   -0.00030907    0.00002098
     atom  127 type  4   force =     0.00042946   -0.00009827   -0.00016290
     atom  128 type  4   force =    -0.00015757   -0.00045848    0.00019575
     atom  129 type  4   force =     0.00019203   -0.00016909   -0.00009950
     atom  130 type  4   force =    -0.00006438   -0.00000231   -0.00008877
     atom  131 type  4   force =    -0.00061493   -0.00005402    0.00013734
     atom  132 type  4   force =     0.00000318   -0.00026081    0.00026008
     atom  133 type  4   force =    -0.00005941   -0.00028115    0.00010236
     atom  134 type  4   force =    -0.00035183   -0.00030221   -0.00002990
     atom  135 type  4   force =    -0.00064179   -0.00011061   -0.00044398
     atom  136 type  4   force =     0.00094178   -0.00031331   -0.00018149
     atom  137 type  3   force =     0.00021869   -0.00023511   -0.00001545
     atom  138 type  3   force =    -0.00022523   -0.00021994   -0.00003822
     atom  139 type  3   force =    -0.00008495    0.00001423    0.00012472
     atom  140 type  3   force =    -0.00051284   -0.00029927   -0.00028603
     atom  141 type  4   force =     0.00042207   -0.00039066    0.00000475
     atom  142 type  4   force =     0.00009012    0.00007876   -0.00000880
     atom  143 type  4   force =     0.00005506   -0.00011598    0.00032713
     atom  144 type  4   force =     0.00074602    0.00029582    0.00086816
     atom  145 type  4   force =    -0.00040170   -0.00021486   -0.00033786
     atom  146 type  4   force =    -0.00006037   -0.00018692   -0.00022812
     atom  147 type  4   force =     0.00046107    0.00002255   -0.00008373
     atom  148 type  4   force =    -0.00000096    0.00042242    0.00002689
     atom  149 type  4   force =     0.00042308    0.00001457    0.00004698
     atom  150 type  4   force =     0.00027724    0.00008873    0.00012271
     atom  151 type  4   force =    -0.00012743   -0.00000478    0.00004252
     atom  152 type  4   force =     0.00026184   -0.00004908    0.00010012
     atom  153 type  4   force =     0.00000377    0.00001687   -0.00030119
     atom  154 type  4   force =    -0.00024277   -0.00034191   -0.00005172
     atom  155 type  4   force =     0.00010178    0.00013669   -0.00010115
     atom  156 type  4   force =     0.00019078    0.00032338   -0.00044763
     atom  157 type  4   force =     0.00550968   -0.00044188   -0.00311072
     atom  158 type  5   force =    -0.00292237    0.00234410    0.00145115

     Total force =     0.665360     Total SCF correction =     0.003239
 
     init_run     :      7.49s CPU      8.21s WALL (       1 calls)
     electrons    :    763.57s CPU    804.44s WALL (       1 calls)
     forces       :      3.71s CPU      4.08s WALL (       1 calls)
     force_london :      0.09s CPU      0.09s WALL (       1 calls)

     Called by init_run:
     wfcinit      :      4.45s CPU      4.62s WALL (       1 calls)
     potinit      :      0.62s CPU      0.82s WALL (       1 calls)
     hinit0       :      1.10s CPU      1.22s WALL (       1 calls)

     Called by electrons:
     c_bands      :    606.77s CPU    628.43s WALL (      58 calls)
     sum_band     :    100.62s CPU    111.10s WALL (      58 calls)
     v_of_rho     :     11.24s CPU     12.29s WALL (      59 calls)
     newd         :     29.30s CPU     37.10s WALL (      59 calls)
     mix_rho      :     15.32s CPU     15.45s WALL (      58 calls)
     energy_londo :      0.08s CPU      0.08s WALL (       1 calls)

     Called by c_bands:
     init_us_2    :      2.09s CPU      2.14s WALL (     236 calls)
     init_us_2:cp :      2.09s CPU      2.14s WALL (     236 calls)
     regterg      :    594.03s CPU    615.48s WALL (     118 calls)

     Called by *egterg:
     rdiaghg      :    168.77s CPU    178.62s WALL (     485 calls)
     h_psi        :    232.92s CPU    238.21s WALL (     487 calls)
     s_psi        :     49.09s CPU     49.17s WALL (     487 calls)
     g_psi        :      0.32s CPU      0.33s WALL (     367 calls)

     Called by h_psi:
     h_psi:calbec :     60.50s CPU     65.19s WALL (     487 calls)
     vloc_psi     :    121.93s CPU    122.45s WALL (     487 calls)
     add_vuspsi   :     49.83s CPU     49.91s WALL (     487 calls)

     General routines
     calbec       :     89.10s CPU     96.11s WALL (     611 calls)
     fft          :     11.67s CPU     13.00s WALL (    1075 calls)
     ffts         :      8.97s CPU      9.00s WALL (    7187 calls)
     fftw         :    136.62s CPU    137.20s WALL (  198162 calls)
     interpolate  :      0.92s CPU      0.99s WALL (     118 calls)
 
     Parallel routines
 
     PWSCF        :  12m57.03s CPU  13m39.27s WALL

 
   This run was terminated on:  20:50:34  19Nov2025            

=------------------------------------------------------------------------------=
   JOB DONE.
=------------------------------------------------------------------------------=
