
     Program PWSCF v.7.2 starts on 19Nov2025 at 21:32:42 

     This program is part of the open-source Quantum ESPRESSO suite
     for quantum simulation of materials; please cite
         "P. Giannozzi et al., J. Phys.:Condens. Matter 21 395502 (2009);
         "P. Giannozzi et al., J. Phys.:Condens. Matter 29 465901 (2017);
         "P. Giannozzi et al., J. Chem. Phys. 152 154105 (2020);
          URL http://www.quantum-espresso.org", 
     in publications or presentations arising from this work. More details at
     http://www.quantum-espresso.org/quote

     Parallel version (MPI), running on    64 processors

     MPI processes distributed on     4 nodes
     445043 MiB available memory on the printing compute node when the environment starts
 
     Reading input from PWINPUT_atm158_xm

     Current dimensions of program PWSCF are:
     Max number of different atomic species (ntypx) = 10
     Max number of k-points (npk) =  40000
     Max angular momentum in pseudopotentials (lmaxx) =  4
     Presently no symmetry can be used with electric field

     file Ni.pbe-n-rrkjus_psl.1.0.0.UPF: wavefunction(s)  3D renormalized
     file Mn.pbe-spn-rrkjus_psl.0.3.1.UPF: wavefunction(s)  3D renormalized
     file O.pbe-rrkjus.UPF: wavefunction(s)  2S renormalized
     file H.pbe-rrkjus.UPF: wavefunction(s)  1S renormalized

     gamma-point specific algorithms are used
 
     R & G space division:  proc/nbgrp/npool/nimage =      64
     Subspace diagonalization in iterative solution of the eigenvalue problem:
     one sub-group per band group will be used
     custom distributed-memory algorithm (size of sub-group:  6*  6 procs)

 
     Parallelization info
     --------------------
     sticks:   dense  smooth     PW     G-vecs:    dense   smooth      PW
     Min         208      82     20                59912    15118    1876
     Max         210      84     22                59974    15196    1926
     Sum       13399    5355   1345              3836275   970529  121367
 
     Using Slab Decomposition
 


     bravais-lattice index     =            0
     lattice parameter (alat)  =      17.7004  a.u.
     unit-cell volume          =   20319.7251 (a.u.)^3
     number of atoms/cell      =          158
     number of atomic types    =            5
     number of electrons       =      1078.00
     number of Kohn-Sham states=          647
     kinetic-energy cutoff     =      50.0000  Ry
     charge density cutoff     =     500.0000  Ry
     scf convergence threshold =      1.0E-06
     mixing beta               =       0.1000
     number of iterations used =            8  local-TF  mixing
     Exchange-correlation=  SLA  PW   PBE  PBE
                           (   1   4   3   4   0   0   0)

     celldm(1)=  17.700384  celldm(2)=   0.000000  celldm(3)=   0.000000
     celldm(4)=   0.000000  celldm(5)=   0.000000  celldm(6)=   0.000000

     crystal axes: (cart. coord. in units of alat)
               a(1) = (   1.000000   0.000000   0.000000 )  
               a(2) = (   0.000000   1.075730   0.000000 )  
               a(3) = (   0.000000   0.000000   3.406172 )  

     reciprocal axes: (cart. coord. in units 2 pi/alat)
               b(1) = (  1.000000  0.000000  0.000000 )  
               b(2) = (  0.000000  0.929602  0.000000 )  
               b(3) = (  0.000000  0.000000  0.293585 )  


     PseudoPot. # 1 for Ni read from file:
     ~/PSEUDO/Ni.pbe-n-rrkjus_psl.1.0.0.UPF
     MD5 check sum: Not computed, couldn't open file
     Pseudo is Ultrasoft + core correction, Zval = 10.0
     Generated using "atomic" code by A. Dal Corso  v.5.1.2
     Using radial grid of 1195 points,  6 beta functions with: 
                l(1) =   0
                l(2) =   0
                l(3) =   1
                l(4) =   1
                l(5) =   2
                l(6) =   2
     Q(r) pseudized with 0 coefficients 


     PseudoPot. # 2 for Mn read from file:
     ~/PSEUDO/Mn.pbe-spn-rrkjus_psl.0.3.1.UPF
     MD5 check sum: Not computed, couldn't open file
     Pseudo is Ultrasoft + core correction, Zval = 15.0
     Generated using &quot;atomic&quot; code by A. Dal Corso  v.6.2.2
     Using radial grid of 1187 points,  6 beta functions with: 
                l(1) =   0
                l(2) =   0
                l(3) =   1
                l(4) =   1
                l(5) =   2
                l(6) =   2
     Q(r) pseudized with 0 coefficients 


     PseudoPot. # 3 for P  read from file:
     ~/PSEUDO/P.pbe-n-rrkjus_psl.1.0.0.UPF
     MD5 check sum: Not computed, couldn't open file
     Pseudo is Ultrasoft + core correction, Zval =  5.0
     Generated using "atomic" code by A. Dal Corso  v.5.1
     Using radial grid of 1147 points,  6 beta functions with: 
                l(1) =   0
                l(2) =   0
                l(3) =   1
                l(4) =   1
                l(5) =   2
                l(6) =   2
     Q(r) pseudized with 0 coefficients 


     PseudoPot. # 4 for O  read from file:
     ~/PSEUDO/O.pbe-rrkjus.UPF
     MD5 check sum: Not computed, couldn't open file
     Pseudo is Ultrasoft, Zval =  6.0
     Generated by new atomic code, or converted to UPF format
     Using radial grid of 1269 points,  4 beta functions with: 
                l(1) =   0
                l(2) =   0
                l(3) =   1
                l(4) =   1
     Q(r) pseudized with 0 coefficients 


     PseudoPot. # 5 for H  read from file:
     ~/PSEUDO/H.pbe-rrkjus.UPF
     MD5 check sum: Not computed, couldn't open file
     Pseudo is Ultrasoft, Zval =  1.0
     Generated by new atomic code, or converted to UPF format
     Using radial grid of 1061 points,  2 beta functions with: 
                l(1) =   0
                l(2) =   0
     Q(r) pseudized with 0 coefficients 


     atomic species   valence    mass     pseudopotential
     Ni               10.00    58.69300     Ni( 1.00)
     Mn               15.00    54.93800     Mn( 1.00)
     P                 5.00    30.97300     P ( 1.00)
     O                 6.00    15.99900     O ( 1.00)
     H                 1.00     1.00790     H ( 1.00)

     Starting magnetic structure 
     atomic species   magnetization
     Ni              1.000
     Mn              1.000
     P               1.000
     O               1.000
     H               0.000

     No symmetry found



   Cartesian axes

     site n.     atom                  positions (alat units)
         1        Mn     tau(   1) = (   0.2404744   0.8371250   0.1168501  )
         2        Ni     tau(   2) = (   0.4968126   0.7726670   0.4415546  )
         3        Ni     tau(   3) = (   0.0066150   0.2936743   0.1241053  )
         4        Ni     tau(   4) = (   0.2585722   0.2355858   0.4448848  )
         5        Ni     tau(   5) = (   0.9987350   1.0696411   0.2854926  )
         6        Ni     tau(   6) = (   0.2517397   0.5330511   0.2829322  )
         7        Ni     tau(   7) = (   0.7451645   0.8337543   0.1221751  )
         8        Ni     tau(   8) = (   0.9939181   0.7738804   0.4407595  )
         9        Ni     tau(   9) = (   0.5111533   0.2924088   0.1251865  )
        10        Ni     tau(  10) = (   0.7606326   0.2319267   0.4451372  )
        11        Ni     tau(  11) = (   0.5024065   1.0688133   0.2870502  )
        12        Ni     tau(  12) = (   0.7529977   0.5317900   0.2845227  )
        13        P      tau(  13) = (   0.2092944   0.9731097   0.4345035  )
        14        P      tau(  14) = (   0.4655727   0.6359535   0.1274635  )
        15        P      tau(  15) = (   0.2910699   0.1027363   0.1296098  )
        16        P      tau(  16) = (   0.0396216   0.4288395   0.4398838  )
        17        O      tau(  17) = (   0.1294378   0.9013260   0.3010618  )
        18        O      tau(  18) = (   0.3874505   0.7054774   0.2637003  )
        19        O      tau(  19) = (   0.3702540   0.1714799   0.2660028  )
        20        O      tau(  20) = (   0.1184398   0.3582958   0.3038353  )
        21        O      tau(  21) = (   0.1451572   0.8850881   0.5587578  )
        22        O      tau(  22) = (   0.4048762   0.7245585   0.0017492  )
        23        O      tau(  23) = (   0.3523506   0.1900579   0.0035744  )
        24        O      tau(  24) = (   0.1017610   0.3410484   0.5656572  )
        25        O      tau(  25) = (   0.0975396   0.5849288   0.4357922  )
        26        O      tau(  26) = (   0.3483552   1.0314945   0.1270322  )
        27        O      tau(  27) = (   0.3784305   0.4225118   0.4308928  )
        28        O      tau(  28) = (   0.1268237   0.1067944   0.1392744  )
        29        O      tau(  29) = (   0.1212267   0.6424170   0.1362896  )
        30        O      tau(  30) = (   0.4053315   0.4809387   0.1300622  )
        31        O      tau(  31) = (   0.1536621   0.0446918   0.4373386  )
        32        O      tau(  32) = (   0.3732349   0.9631717   0.4256642  )
        33        P      tau(  33) = (   0.7119823   0.9695974   0.4373010  )
        34        P      tau(  34) = (   0.9615208   0.6363392   0.1262932  )
        35        P      tau(  35) = (   0.7927710   0.0970060   0.1292164  )
        36        P      tau(  36) = (   0.5426404   0.4269675   0.4410738  )
        37        O      tau(  37) = (   0.6326879   0.8991182   0.3013240  )
        38        O      tau(  38) = (   0.8842163   0.7083206   0.2625155  )
        39        O      tau(  39) = (   0.8716178   0.1677751   0.2653504  )
        40        O      tau(  40) = (   0.6212010   0.3558666   0.3051085  )
        41        O      tau(  41) = (   0.6507714   0.8812342   0.5631722  )
        42        O      tau(  42) = (   0.9014054   0.7264458   0.0010676  )
        43        O      tau(  43) = (   0.8548963   0.1847909   0.0035471  )
        44        O      tau(  44) = (   0.6044469   0.3378706   0.5660366  )
        45        O      tau(  45) = (   0.6024424   0.5823140   0.4379016  )
        46        O      tau(  46) = (   0.8498940   1.0254482   0.1275156  )
        47        O      tau(  47) = (   0.8798395   0.4205825   0.4305771  )
        48        O      tau(  48) = (   0.6286921   0.1034636   0.1397346  )
        49        O      tau(  49) = (   0.6294973   0.6427753   0.1372553  )
        50        O      tau(  50) = (   0.9024339   0.4810312   0.1296418  )
        51        O      tau(  51) = (   0.6547812   0.0410987   0.4396636  )
        52        O      tau(  52) = (   0.8760507   0.9632605   0.4264507  )
        53        Mn     tau(  53) = (   0.2404744   0.8246335   0.7367378  )
        54        Ni     tau(  54) = (   0.4968126   0.7601755   1.0614423  )
        55        Ni     tau(  55) = (   0.0066150   0.2811828   0.7439929  )
        56        Ni     tau(  56) = (   0.2585722   0.2230943   1.0647725  )
        57        Ni     tau(  57) = (   0.9987350   1.0571496   0.9053803  )
        58        Ni     tau(  58) = (   0.2517397   0.5205596   0.9028199  )
        59        Ni     tau(  59) = (   0.7451645   0.8212628   0.7420628  )
        60        Ni     tau(  60) = (   0.9939181   0.7613889   1.0606471  )
        61        Ni     tau(  61) = (   0.5111533   0.2799173   0.7450742  )
        62        Ni     tau(  62) = (   0.7606326   0.2194352   1.0650249  )
        63        Ni     tau(  63) = (   0.5024065   1.0563218   0.9069379  )
        64        Ni     tau(  64) = (   0.7529977   0.5192985   0.9044104  )
        65        P      tau(  65) = (   0.2092944   0.9606182   1.0543912  )
        66        P      tau(  66) = (   0.4655727   0.6234620   0.7473512  )
        67        P      tau(  67) = (   0.2910699   0.0902448   0.7494974  )
        68        P      tau(  68) = (   0.0396216   0.4163480   1.0597715  )
        69        O      tau(  69) = (   0.1294378   0.8888345   0.9209495  )
        70        O      tau(  70) = (   0.3874505   0.6929859   0.8835880  )
        71        O      tau(  71) = (   0.3702540   0.1589885   0.8858904  )
        72        O      tau(  72) = (   0.1184398   0.3458043   0.9237230  )
        73        O      tau(  73) = (   0.1451572   0.8725966   1.1786454  )
        74        O      tau(  74) = (   0.4048762   0.7120670   0.6216369  )
        75        O      tau(  75) = (   0.3523506   0.1775664   0.6234620  )
        76        O      tau(  76) = (   0.1017610   0.3285569   1.1855448  )
        77        O      tau(  77) = (   0.0975396   0.5724373   1.0556799  )
        78        O      tau(  78) = (   0.3483552   1.0190030   0.7469198  )
        79        O      tau(  79) = (   0.3784305   0.4100203   1.0507804  )
        80        O      tau(  80) = (   0.1268237   0.0943029   0.7591620  )
        81        O      tau(  81) = (   0.1212267   0.6299255   0.7561772  )
        82        O      tau(  82) = (   0.4053315   0.4684472   0.7499499  )
        83        O      tau(  83) = (   0.1536621   0.0322003   1.0572263  )
        84        O      tau(  84) = (   0.3732349   0.9506802   1.0455518  )
        85        P      tau(  85) = (   0.7119823   0.9571059   1.0571887  )
        86        P      tau(  86) = (   0.9615208   0.6238477   0.7461808  )
        87        P      tau(  87) = (   0.7927710   0.0845145   0.7491041  )
        88        P      tau(  88) = (   0.5426404   0.4144760   1.0609615  )
        89        O      tau(  89) = (   0.6326879   0.8866267   0.9212117  )
        90        O      tau(  90) = (   0.8842163   0.6958291   0.8824032  )
        91        O      tau(  91) = (   0.8716178   0.1552836   0.8852381  )
        92        O      tau(  92) = (   0.6212010   0.3433751   0.9249961  )
        93        O      tau(  93) = (   0.6507714   0.8687427   1.1830599  )
        94        O      tau(  94) = (   0.9014054   0.7139543   0.6209553  )
        95        O      tau(  95) = (   0.8548963   0.1722994   0.6234348  )
        96        O      tau(  96) = (   0.6044469   0.3253792   1.1859242  )
        97        O      tau(  97) = (   0.6024424   0.5698225   1.0577892  )
        98        O      tau(  98) = (   0.8498940   1.0129567   0.7474033  )
        99        O      tau(  99) = (   0.8798395   0.4080910   1.0504647  )
       100        O      tau( 100) = (   0.6286921   0.0909721   0.7596222  )
       101        O      tau( 101) = (   0.6294973   0.6302838   0.7571429  )
       102        O      tau( 102) = (   0.9024339   0.4685397   0.7495295  )
       103        O      tau( 103) = (   0.6547812   0.0286072   1.0595512  )
       104        O      tau( 104) = (   0.8760507   0.9507690   1.0463383  )
       105        Mn     tau( 105) = (   0.2364458   0.8094794   1.3653459  )
       106        Ni     tau( 106) = (   0.4907942   0.7363522   1.7049996  )
       107        Ni     tau( 107) = (   0.0093952   0.2680398   1.3698569  )
       108        Ni     tau( 108) = (   0.2497295   0.2108424   1.6761145  )
       109        Ni     tau( 109) = (   1.0036298   1.0443547   1.5337867  )
       110        Ni     tau( 110) = (   0.2508731   0.5072093   1.5337250  )
       111        Ni     tau( 111) = (   0.7430527   0.8053936   1.3670713  )
       112        Ni     tau( 112) = (   1.0004343   0.7470669   1.6781949  )
       113        Ni     tau( 113) = (   0.5111923   0.2663270   1.3700523  )
       114        Ni     tau( 114) = (   0.7492854   0.2057646   1.6748146  )
       115        Ni     tau( 115) = (   0.5041086   1.0410710   1.5344479  )
       116        Ni     tau( 116) = (   0.7475733   0.5047540   1.5316464  )
       117        P      tau( 117) = (   0.2133552   0.9392292   1.6984504  )
       118        P      tau( 118) = (   0.4634655   0.6097679   1.3737019  )
       119        P      tau( 119) = (   0.2926447   0.0743533   1.3725526  )
       120        P      tau( 120) = (   0.0367365   0.3974952   1.6921475  )
       121        O      tau( 121) = (   0.1371062   0.8722393   1.5551977  )
       122        O      tau( 122) = (   0.3876369   0.6802541   1.5098871  )
       123        O      tau( 123) = (   0.3711295   0.1420780   1.5089708  )
       124        O      tau( 124) = (   0.1160403   0.3372838   1.5462681  )
       125        O      tau( 125) = (   0.1492652   0.8455602   1.8156300  )
       126        O      tau( 126) = (   0.4032581   0.6987394   1.2472428  )
       127        O      tau( 127) = (   0.3539738   0.1604313   1.2459115  )
       128        O      tau( 128) = (   0.0992937   0.3009536   1.8068009  )
       129        O      tau( 129) = (   0.0909237   0.5559234   1.6906175  )
       130        O      tau( 130) = (   0.3495909   0.9934160   1.3761257  )
       131        O      tau( 131) = (   0.3736946   0.3887924   1.6741111  )
       132        O      tau( 132) = (   0.1287801   0.0799213   1.3839567  )
       133        O      tau( 133) = (   0.1223930   0.6189353   1.3829709  )
       134        O      tau( 134) = (   0.4027999   0.4547621   1.3753464  )
       135        O      tau( 135) = (   0.1562549   0.0204997   1.6913958  )
       136        O      tau( 136) = (   0.3777647   0.9340275   1.6841911  )
       137        P      tau( 137) = (   0.7135711   0.9304873   1.6870697  )
       138        P      tau( 138) = (   0.9579050   0.6098693   1.3704654  )
       139        P      tau( 139) = (   0.7935730   0.0700637   1.3709798  )
       140        P      tau( 140) = (   0.5382788   0.3921678   1.6921168  )
       141        O      tau( 141) = (   0.6368445   0.8715343   1.5433244  )
       142        O      tau( 142) = (   0.8818270   0.6814858   1.5066133  )
       143        O      tau( 143) = (   0.8713193   0.1417772   1.5072868  )
       144        O      tau( 144) = (   0.6174579   0.3303663   1.5458240  )
       145        O      tau( 145) = (   0.6552232   0.8337369   1.8043110  )
       146        O      tau( 146) = (   0.8989657   0.6978510   1.2434901  )
       147        O      tau( 147) = (   0.8552504   0.1586671   1.2456065  )
       148        O      tau( 148) = (   0.5963858   0.2917729   1.8058571  )
       149        O      tau( 149) = (   0.5989840   0.5475310   1.6881864  )
       150        O      tau( 150) = (   0.8545284   0.9913153   1.3740611  )
       151        O      tau( 151) = (   0.8720431   0.3904281   1.6773436  )
       152        O      tau( 152) = (   0.6296650   0.0761030   1.3824892  )
       153        O      tau( 153) = (   0.6276372   0.6149600   1.3818254  )
       154        O      tau( 154) = (   0.9002664   0.4546242   1.3744661  )
       155        O      tau( 155) = (   0.6584351   0.0133671   1.6886222  )
       156        O      tau( 156) = (   0.8793773   0.9284013   1.6770673  )
       157        O      tau( 157) = (   0.3761800   0.6543040   1.8384848  )
       158        H      tau( 158) = (   0.2913919   0.7142463   1.8633046  )

     -------------------------------------------------
     Parameters for Dispersion (Grimme-D2) Correction:
     -------------------------------------------------
       atom      VdW radius       C_6     

        Ni         2.952        374.666
        Mn         2.952        374.666
        P          3.222        271.980
        O          2.536         24.284
        H          1.892          4.857

     number of k points=     1  Gaussian smearing, width (Ry)=  0.0100
                       cart. coord. in units 2pi/alat
        k(    1) = (   0.0000000   0.0000000   0.0000000), wk =   1.0000000

     Dense  grid:  1918138 G-vectors     FFT dimensions: ( 125, 135, 432)

     Smooth grid:   485265 G-vectors     FFT dimensions: (  80,  90, 288)

     Estimated max dynamical RAM per process >     320.12 MB

     Estimated total dynamical RAM >      20.01 GB
     Generating pointlists ...
     new r_m :   0.0801 (alat units)  1.4174 (a.u.) for type    1
     new r_m :   0.0869 (alat units)  1.5388 (a.u.) for type    2
     new r_m :   0.0650 (alat units)  1.1499 (a.u.) for type    3
     new r_m :   0.0440 (alat units)  0.7795 (a.u.) for type    4
     new r_m :   0.0440 (alat units)  0.7795 (a.u.) for type    5

     Initial potential from superposition of free atoms

     starting charge    1077.8900, renormalised to    1078.0000

     negative rho (up, down):  1.237E-03 4.580E-04
 
     Adding external electric field

     Computed dipole along edir(3) : 
        Dipole                1.6221 Ry au,          4.1229 Debye
        Dipole field          0.0010 Ry au, 
 
        Potential amp.       -0.1089 Ry
        Total length         54.2615 bohr
 
 
     Adding external electric field

     Computed dipole along edir(3) : 
        Dipole                1.6221 Ry au,          4.1229 Debye
        Dipole field          0.0010 Ry au, 
 
        Potential amp.       -0.1089 Ry
        Total length         54.2615 bohr
 
     Starting wfcs are  812 randomized atomic wfcs

     total cpu time spent up to now is       10.8 secs

     Self-consistent Calculation

     iteration #  1     ecut=    50.00 Ry     beta= 0.10
     Davidson diagonalization with overlap
     ethr =  1.00E-02,  avg # of iterations =  6.0

     negative rho (up, down):  3.339E-01 1.115E-06
 
     Adding external electric field

     Computed dipole along edir(3) : 
        Dipole               -3.6444 Ry au,         -9.2630 Debye
        Dipole field         -0.0023 Ry au, 
 
        Potential amp.        0.2446 Ry
        Total length         54.2615 bohr
 
 
     Adding external electric field

     Computed dipole along edir(3) : 
        Dipole               -3.6444 Ry au,         -9.2630 Debye
        Dipole field         -0.0023 Ry au, 
 
        Potential amp.        0.2446 Ry
        Total length         54.2615 bohr
 

     total cpu time spent up to now is       39.8 secs

     total energy              =   -7177.83817616 Ry
     estimated scf accuracy    <     753.66796499 Ry

     total magnetization       =   216.00 Bohr mag/cell
     absolute magnetization    =   297.29 Bohr mag/cell

     iteration #  2     ecut=    50.00 Ry     beta= 0.10
     Davidson diagonalization with overlap
     ethr =  1.00E-02,  avg # of iterations =  2.0

     negative rho (up, down):  3.188E-01 6.581E-07
 
     Adding external electric field

     Computed dipole along edir(3) : 
        Dipole               -2.3720 Ry au,         -6.0290 Debye
        Dipole field         -0.0015 Ry au, 
 
        Potential amp.        0.1592 Ry
        Total length         54.2615 bohr
 
 
     Adding external electric field

     Computed dipole along edir(3) : 
        Dipole               -2.3720 Ry au,         -6.0290 Debye
        Dipole field         -0.0015 Ry au, 
 
        Potential amp.        0.1592 Ry
        Total length         54.2615 bohr
 

     total cpu time spent up to now is       56.5 secs

     total energy              =   -7261.67041447 Ry
     estimated scf accuracy    <     219.38599055 Ry

     total magnetization       =   151.28 Bohr mag/cell
     absolute magnetization    =   200.76 Bohr mag/cell

     iteration #  3     ecut=    50.00 Ry     beta= 0.10
     Davidson diagonalization with overlap
     ethr =  1.00E-02,  avg # of iterations =  1.5

     negative rho (up, down):  2.817E-01 5.158E-07
 
     Adding external electric field

     Computed dipole along edir(3) : 
        Dipole               -2.0537 Ry au,         -5.2199 Debye
        Dipole field         -0.0013 Ry au, 
 
        Potential amp.        0.1378 Ry
        Total length         54.2615 bohr
 
 
     Adding external electric field

     Computed dipole along edir(3) : 
        Dipole               -2.0537 Ry au,         -5.2199 Debye
        Dipole field         -0.0013 Ry au, 
 
        Potential amp.        0.1378 Ry
        Total length         54.2615 bohr
 

     total cpu time spent up to now is       69.4 secs

     total energy              =   -7291.77723551 Ry
     estimated scf accuracy    <      97.98337925 Ry

     total magnetization       =   126.27 Bohr mag/cell
     absolute magnetization    =   179.92 Bohr mag/cell

     iteration #  4     ecut=    50.00 Ry     beta= 0.10
     Davidson diagonalization with overlap
     ethr =  9.09E-03,  avg # of iterations =  1.5

     negative rho (up, down):  2.098E-01 3.884E-08
 
     Adding external electric field

     Computed dipole along edir(3) : 
        Dipole               -1.9495 Ry au,         -4.9552 Debye
        Dipole field         -0.0012 Ry au, 
 
        Potential amp.        0.1308 Ry
        Total length         54.2615 bohr
 
 
     Adding external electric field

     Computed dipole along edir(3) : 
        Dipole               -1.9495 Ry au,         -4.9552 Debye
        Dipole field         -0.0012 Ry au, 
 
        Potential amp.        0.1308 Ry
        Total length         54.2615 bohr
 

     total cpu time spent up to now is       82.2 secs

     total energy              =   -7326.68911027 Ry
     estimated scf accuracy    <      78.97472709 Ry

     total magnetization       =   111.19 Bohr mag/cell
     absolute magnetization    =   165.64 Bohr mag/cell

     iteration #  5     ecut=    50.00 Ry     beta= 0.10
     Davidson diagonalization with overlap
     ethr =  7.33E-03,  avg # of iterations =  1.5

     negative rho (up, down):  1.310E-02 5.698E-07
 
     Adding external electric field

     Computed dipole along edir(3) : 
        Dipole               -1.4722 Ry au,         -3.7420 Debye
        Dipole field         -0.0009 Ry au, 
 
        Potential amp.        0.0988 Ry
        Total length         54.2615 bohr
 
 
     Adding external electric field

     Computed dipole along edir(3) : 
        Dipole               -1.4722 Ry au,         -3.7420 Debye
        Dipole field         -0.0009 Ry au, 
 
        Potential amp.        0.0988 Ry
        Total length         54.2615 bohr
 

     total cpu time spent up to now is       94.8 secs

     total energy              =   -7385.25357102 Ry
     estimated scf accuracy    <      61.25861121 Ry

     total magnetization       =    88.02 Bohr mag/cell
     absolute magnetization    =   146.33 Bohr mag/cell

     iteration #  6     ecut=    50.00 Ry     beta= 0.10
     Davidson diagonalization with overlap
     ethr =  5.68E-03,  avg # of iterations =  1.5

     negative rho (up, down):  4.284E-04 5.961E-04
 
     Adding external electric field

     Computed dipole along edir(3) : 
        Dipole               -1.1460 Ry au,         -2.9128 Debye
        Dipole field         -0.0007 Ry au, 
 
        Potential amp.        0.0769 Ry
        Total length         54.2615 bohr
 
 
     Adding external electric field

     Computed dipole along edir(3) : 
        Dipole               -1.1460 Ry au,         -2.9128 Debye
        Dipole field         -0.0007 Ry au, 
 
        Potential amp.        0.0769 Ry
        Total length         54.2615 bohr
 

     total cpu time spent up to now is      108.2 secs

     total energy              =   -7395.34956118 Ry
     estimated scf accuracy    <      10.74079943 Ry

     total magnetization       =    82.00 Bohr mag/cell
     absolute magnetization    =   116.64 Bohr mag/cell

     iteration #  7     ecut=    50.00 Ry     beta= 0.10
     Davidson diagonalization with overlap
     ethr =  9.96E-04,  avg # of iterations =  4.5

     negative rho (up, down):  4.091E-04 5.791E-04
 
     Adding external electric field

     Computed dipole along edir(3) : 
        Dipole               -1.1445 Ry au,         -2.9089 Debye
        Dipole field         -0.0007 Ry au, 
 
        Potential amp.        0.0768 Ry
        Total length         54.2615 bohr
 
 
     Adding external electric field

     Computed dipole along edir(3) : 
        Dipole               -1.1445 Ry au,         -2.9089 Debye
        Dipole field         -0.0007 Ry au, 
 
        Potential amp.        0.0768 Ry
        Total length         54.2615 bohr
 

     total cpu time spent up to now is      126.8 secs

     total energy              =   -7397.63567187 Ry
     estimated scf accuracy    <      10.82875315 Ry

     total magnetization       =    71.44 Bohr mag/cell
     absolute magnetization    =    88.75 Bohr mag/cell

     iteration #  8     ecut=    50.00 Ry     beta= 0.10
     Davidson diagonalization with overlap
     ethr =  9.96E-04,  avg # of iterations =  1.0

     negative rho (up, down):  3.258E-04 4.764E-04
 
     Adding external electric field

     Computed dipole along edir(3) : 
        Dipole               -1.1157 Ry au,         -2.8359 Debye
        Dipole field         -0.0007 Ry au, 
 
        Potential amp.        0.0749 Ry
        Total length         54.2615 bohr
 
 
     Adding external electric field

     Computed dipole along edir(3) : 
        Dipole               -1.1157 Ry au,         -2.8359 Debye
        Dipole field         -0.0007 Ry au, 
 
        Potential amp.        0.0749 Ry
        Total length         54.2615 bohr
 

     total cpu time spent up to now is      139.4 secs

     total energy              =   -7397.61246188 Ry
     estimated scf accuracy    <      10.36466807 Ry

     total magnetization       =    71.66 Bohr mag/cell
     absolute magnetization    =    88.61 Bohr mag/cell

     iteration #  9     ecut=    50.00 Ry     beta= 0.10
     Davidson diagonalization with overlap
     ethr =  9.61E-04,  avg # of iterations =  1.0

     negative rho (up, down):  1.171E-04 2.615E-04
 
     Adding external electric field

     Computed dipole along edir(3) : 
        Dipole               -1.0201 Ry au,         -2.5927 Debye
        Dipole field         -0.0006 Ry au, 
 
        Potential amp.        0.0685 Ry
        Total length         54.2615 bohr
 
 
     Adding external electric field

     Computed dipole along edir(3) : 
        Dipole               -1.0201 Ry au,         -2.5927 Debye
        Dipole field         -0.0006 Ry au, 
 
        Potential amp.        0.0685 Ry
        Total length         54.2615 bohr
 

     total cpu time spent up to now is      152.6 secs

     total energy              =   -7397.46184313 Ry
     estimated scf accuracy    <       9.03568229 Ry

     total magnetization       =    71.99 Bohr mag/cell
     absolute magnetization    =    88.20 Bohr mag/cell

     iteration # 10     ecut=    50.00 Ry     beta= 0.10
     Davidson diagonalization with overlap
     ethr =  8.38E-04,  avg # of iterations =  1.5

     negative rho (up, down):  1.164E-04 3.158E-04
 
     Adding external electric field

     Computed dipole along edir(3) : 
        Dipole               -1.0750 Ry au,         -2.7324 Debye
        Dipole field         -0.0007 Ry au, 
 
        Potential amp.        0.0721 Ry
        Total length         54.2615 bohr
 
 
     Adding external electric field

     Computed dipole along edir(3) : 
        Dipole               -1.0750 Ry au,         -2.7324 Debye
        Dipole field         -0.0007 Ry au, 
 
        Potential amp.        0.0721 Ry
        Total length         54.2615 bohr
 

     total cpu time spent up to now is      165.4 secs

     total energy              =   -7397.58459696 Ry
     estimated scf accuracy    <       4.87988254 Ry

     total magnetization       =    75.47 Bohr mag/cell
     absolute magnetization    =    88.46 Bohr mag/cell

     iteration # 11     ecut=    50.00 Ry     beta= 0.10
     Davidson diagonalization with overlap
     ethr =  4.53E-04,  avg # of iterations =  1.5

     negative rho (up, down):  3.212E-04 8.725E-04
 
     Adding external electric field

     Computed dipole along edir(3) : 
        Dipole               -1.2004 Ry au,         -3.0510 Debye
        Dipole field         -0.0007 Ry au, 
 
        Potential amp.        0.0806 Ry
        Total length         54.2615 bohr
 
 
     Adding external electric field

     Computed dipole along edir(3) : 
        Dipole               -1.2004 Ry au,         -3.0510 Debye
        Dipole field         -0.0007 Ry au, 
 
        Potential amp.        0.0806 Ry
        Total length         54.2615 bohr
 

     total cpu time spent up to now is      177.7 secs

     total energy              =   -7397.61169186 Ry
     estimated scf accuracy    <       3.43139998 Ry

     total magnetization       =    75.84 Bohr mag/cell
     absolute magnetization    =    88.07 Bohr mag/cell

     iteration # 12     ecut=    50.00 Ry     beta= 0.10
     Davidson diagonalization with overlap
     ethr =  3.18E-04,  avg # of iterations =  2.0

     negative rho (up, down):  4.011E-04 9.881E-04
 
     Adding external electric field

     Computed dipole along edir(3) : 
        Dipole               -1.2044 Ry au,         -3.0613 Debye
        Dipole field         -0.0007 Ry au, 
 
        Potential amp.        0.0808 Ry
        Total length         54.2615 bohr
 
 
     Adding external electric field

     Computed dipole along edir(3) : 
        Dipole               -1.2044 Ry au,         -3.0613 Debye
        Dipole field         -0.0007 Ry au, 
 
        Potential amp.        0.0808 Ry
        Total length         54.2615 bohr
 

     total cpu time spent up to now is      191.2 secs

     total energy              =   -7397.82590782 Ry
     estimated scf accuracy    <       0.52805977 Ry

     total magnetization       =    81.14 Bohr mag/cell
     absolute magnetization    =    89.71 Bohr mag/cell

     iteration # 13     ecut=    50.00 Ry     beta= 0.10
     Davidson diagonalization with overlap
     ethr =  4.90E-05,  avg # of iterations = 15.5

     negative rho (up, down):  4.531E-04 1.043E-03
 
     Adding external electric field

     Computed dipole along edir(3) : 
        Dipole               -1.1194 Ry au,         -2.8452 Debye
        Dipole field         -0.0007 Ry au, 
 
        Potential amp.        0.0751 Ry
        Total length         54.2615 bohr
 
 
     Adding external electric field

     Computed dipole along edir(3) : 
        Dipole               -1.1194 Ry au,         -2.8452 Debye
        Dipole field         -0.0007 Ry au, 
 
        Potential amp.        0.0751 Ry
        Total length         54.2615 bohr
 

     total cpu time spent up to now is      223.5 secs

     total energy              =   -7397.96287287 Ry
     estimated scf accuracy    <       0.63251985 Ry

     total magnetization       =    81.71 Bohr mag/cell
     absolute magnetization    =    88.16 Bohr mag/cell

     iteration # 14     ecut=    50.00 Ry     beta= 0.10
     Davidson diagonalization with overlap
     ethr =  4.90E-05,  avg # of iterations =  1.0

     negative rho (up, down):  4.632E-05 2.263E-04
 
     Adding external electric field

     Computed dipole along edir(3) : 
        Dipole               -0.9790 Ry au,         -2.4883 Debye
        Dipole field         -0.0006 Ry au, 
 
        Potential amp.        0.0657 Ry
        Total length         54.2615 bohr
 
 
     Adding external electric field

     Computed dipole along edir(3) : 
        Dipole               -0.9790 Ry au,         -2.4883 Debye
        Dipole field         -0.0006 Ry au, 
 
        Potential amp.        0.0657 Ry
        Total length         54.2615 bohr
 

     total cpu time spent up to now is      236.7 secs

     total energy              =   -7398.01247788 Ry
     estimated scf accuracy    <       0.64428854 Ry

     total magnetization       =    81.61 Bohr mag/cell
     absolute magnetization    =    86.28 Bohr mag/cell

     iteration # 15     ecut=    50.00 Ry     beta= 0.10
     Davidson diagonalization with overlap
     ethr =  4.90E-05,  avg # of iterations =  1.0

     negative rho (up, down):  3.619E-05 1.072E-04
 
     Adding external electric field

     Computed dipole along edir(3) : 
        Dipole               -0.9992 Ry au,         -2.5398 Debye
        Dipole field         -0.0006 Ry au, 
 
        Potential amp.        0.0671 Ry
        Total length         54.2615 bohr
 
 
     Adding external electric field

     Computed dipole along edir(3) : 
        Dipole               -0.9992 Ry au,         -2.5398 Debye
        Dipole field         -0.0006 Ry au, 
 
        Potential amp.        0.0671 Ry
        Total length         54.2615 bohr
 

     total cpu time spent up to now is      250.1 secs

     total energy              =   -7398.02092188 Ry
     estimated scf accuracy    <       0.74189794 Ry

     total magnetization       =    80.83 Bohr mag/cell
     absolute magnetization    =    84.24 Bohr mag/cell

     iteration # 16     ecut=    50.00 Ry     beta= 0.10
     Davidson diagonalization with overlap
     ethr =  4.90E-05,  avg # of iterations =  1.0

     negative rho (up, down):  2.297E-05 4.052E-05
 
     Adding external electric field

     Computed dipole along edir(3) : 
        Dipole               -0.9943 Ry au,         -2.5273 Debye
        Dipole field         -0.0006 Ry au, 
 
        Potential amp.        0.0667 Ry
        Total length         54.2615 bohr
 
 
     Adding external electric field

     Computed dipole along edir(3) : 
        Dipole               -0.9943 Ry au,         -2.5273 Debye
        Dipole field         -0.0006 Ry au, 
 
        Potential amp.        0.0667 Ry
        Total length         54.2615 bohr
 

     total cpu time spent up to now is      262.1 secs

     total energy              =   -7398.02621408 Ry
     estimated scf accuracy    <       0.52261755 Ry

     total magnetization       =    81.11 Bohr mag/cell
     absolute magnetization    =    84.73 Bohr mag/cell

     iteration # 17     ecut=    50.00 Ry     beta= 0.10
     Davidson diagonalization with overlap
     ethr =  4.85E-05,  avg # of iterations =  1.0

     negative rho (up, down):  3.767E-06 2.074E-05
 
     Adding external electric field

     Computed dipole along edir(3) : 
        Dipole               -0.9198 Ry au,         -2.3379 Debye
        Dipole field         -0.0006 Ry au, 
 
        Potential amp.        0.0617 Ry
        Total length         54.2615 bohr
 
 
     Adding external electric field

     Computed dipole along edir(3) : 
        Dipole               -0.9198 Ry au,         -2.3379 Debye
        Dipole field         -0.0006 Ry au, 
 
        Potential amp.        0.0617 Ry
        Total length         54.2615 bohr
 

     total cpu time spent up to now is      273.1 secs

     total energy              =   -7398.02967898 Ry
     estimated scf accuracy    <       0.51277520 Ry

     total magnetization       =    81.19 Bohr mag/cell
     absolute magnetization    =    84.78 Bohr mag/cell

     iteration # 18     ecut=    50.00 Ry     beta= 0.10
     Davidson diagonalization with overlap
     ethr =  4.76E-05,  avg # of iterations =  1.0

     negative rho (up, down):  2.778E-05 3.030E-05
 
     Adding external electric field

     Computed dipole along edir(3) : 
        Dipole               -1.1395 Ry au,         -2.8962 Debye
        Dipole field         -0.0007 Ry au, 
 
        Potential amp.        0.0765 Ry
        Total length         54.2615 bohr
 
 
     Adding external electric field

     Computed dipole along edir(3) : 
        Dipole               -1.1395 Ry au,         -2.8962 Debye
        Dipole field         -0.0007 Ry au, 
 
        Potential amp.        0.0765 Ry
        Total length         54.2615 bohr
 

     total cpu time spent up to now is      284.5 secs

     total energy              =   -7398.01190709 Ry
     estimated scf accuracy    <       0.67883572 Ry

     total magnetization       =    80.81 Bohr mag/cell
     absolute magnetization    =    84.23 Bohr mag/cell

     iteration # 19     ecut=    50.00 Ry     beta= 0.10
     Davidson diagonalization with overlap
     ethr =  4.76E-05,  avg # of iterations =  1.0

     negative rho (up, down):  9.544E-06 9.519E-06
 
     Adding external electric field

     Computed dipole along edir(3) : 
        Dipole               -1.0995 Ry au,         -2.7945 Debye
        Dipole field         -0.0007 Ry au, 
 
        Potential amp.        0.0738 Ry
        Total length         54.2615 bohr
 
 
     Adding external electric field

     Computed dipole along edir(3) : 
        Dipole               -1.0995 Ry au,         -2.7945 Debye
        Dipole field         -0.0007 Ry au, 
 
        Potential amp.        0.0738 Ry
        Total length         54.2615 bohr
 

     total cpu time spent up to now is      296.0 secs

     total energy              =   -7398.01511386 Ry
     estimated scf accuracy    <       0.38580542 Ry

     total magnetization       =    80.58 Bohr mag/cell
     absolute magnetization    =    84.23 Bohr mag/cell

     iteration # 20     ecut=    50.00 Ry     beta= 0.10
     Davidson diagonalization with overlap
     ethr =  3.58E-05,  avg # of iterations =  1.0

     negative rho (up, down):  7.418E-09 1.033E-08
 
     Adding external electric field

     Computed dipole along edir(3) : 
        Dipole               -0.8929 Ry au,         -2.2696 Debye
        Dipole field         -0.0006 Ry au, 
 
        Potential amp.        0.0599 Ry
        Total length         54.2615 bohr
 
 
     Adding external electric field

     Computed dipole along edir(3) : 
        Dipole               -0.8929 Ry au,         -2.2696 Debye
        Dipole field         -0.0006 Ry au, 
 
        Potential amp.        0.0599 Ry
        Total length         54.2615 bohr
 

     total cpu time spent up to now is      307.1 secs

     total energy              =   -7397.99751143 Ry
     estimated scf accuracy    <       0.46738130 Ry

     total magnetization       =    80.29 Bohr mag/cell
     absolute magnetization    =    84.00 Bohr mag/cell

     iteration # 21     ecut=    50.00 Ry     beta= 0.10
     Davidson diagonalization with overlap
     ethr =  3.58E-05,  avg # of iterations =  2.0

     negative rho (up, down):  1.107E-07 6.065E-08
 
     Adding external electric field

     Computed dipole along edir(3) : 
        Dipole               -1.0015 Ry au,         -2.5456 Debye
        Dipole field         -0.0006 Ry au, 
 
        Potential amp.        0.0672 Ry
        Total length         54.2615 bohr
 
 
     Adding external electric field

     Computed dipole along edir(3) : 
        Dipole               -1.0015 Ry au,         -2.5456 Debye
        Dipole field         -0.0006 Ry au, 
 
        Potential amp.        0.0672 Ry
        Total length         54.2615 bohr
 

     total cpu time spent up to now is      319.1 secs

     total energy              =   -7398.02477485 Ry
     estimated scf accuracy    <       0.77009119 Ry

     total magnetization       =    79.42 Bohr mag/cell
     absolute magnetization    =    83.41 Bohr mag/cell

     iteration # 22     ecut=    50.00 Ry     beta= 0.10
     Davidson diagonalization with overlap
     ethr =  3.58E-05,  avg # of iterations =  1.0

     negative rho (up, down):  4.181E-05 2.814E-05
 
     Adding external electric field

     Computed dipole along edir(3) : 
        Dipole               -0.9664 Ry au,         -2.4564 Debye
        Dipole field         -0.0006 Ry au, 
 
        Potential amp.        0.0649 Ry
        Total length         54.2615 bohr
 
 
     Adding external electric field

     Computed dipole along edir(3) : 
        Dipole               -0.9664 Ry au,         -2.4564 Debye
        Dipole field         -0.0006 Ry au, 
 
        Potential amp.        0.0649 Ry
        Total length         54.2615 bohr
 

     total cpu time spent up to now is      329.9 secs

     total energy              =   -7398.03248541 Ry
     estimated scf accuracy    <       0.43398032 Ry

     total magnetization       =    80.10 Bohr mag/cell
     absolute magnetization    =    83.21 Bohr mag/cell

     iteration # 23     ecut=    50.00 Ry     beta= 0.10
     Davidson diagonalization with overlap
     ethr =  3.58E-05,  avg # of iterations =  1.0

     negative rho (up, down):  4.326E-05 3.400E-05
 
     Adding external electric field

     Computed dipole along edir(3) : 
        Dipole               -0.9860 Ry au,         -2.5062 Debye
        Dipole field         -0.0006 Ry au, 
 
        Potential amp.        0.0662 Ry
        Total length         54.2615 bohr
 
 
     Adding external electric field

     Computed dipole along edir(3) : 
        Dipole               -0.9860 Ry au,         -2.5062 Debye
        Dipole field         -0.0006 Ry au, 
 
        Potential amp.        0.0662 Ry
        Total length         54.2615 bohr
 

     total cpu time spent up to now is      340.8 secs

     total energy              =   -7398.04815805 Ry
     estimated scf accuracy    <       0.22223395 Ry

     total magnetization       =    80.02 Bohr mag/cell
     absolute magnetization    =    81.95 Bohr mag/cell

     iteration # 24     ecut=    50.00 Ry     beta= 0.10
     Davidson diagonalization with overlap
     ethr =  2.06E-05,  avg # of iterations =  1.0

     negative rho (up, down):  5.155E-05 3.491E-05
 
     Adding external electric field

     Computed dipole along edir(3) : 
        Dipole               -1.0239 Ry au,         -2.6025 Debye
        Dipole field         -0.0006 Ry au, 
 
        Potential amp.        0.0687 Ry
        Total length         54.2615 bohr
 
 
     Adding external electric field

     Computed dipole along edir(3) : 
        Dipole               -1.0239 Ry au,         -2.6025 Debye
        Dipole field         -0.0006 Ry au, 
 
        Potential amp.        0.0687 Ry
        Total length         54.2615 bohr
 

     total cpu time spent up to now is      352.4 secs

     total energy              =   -7398.05089201 Ry
     estimated scf accuracy    <       0.26094641 Ry

     total magnetization       =    80.16 Bohr mag/cell
     absolute magnetization    =    82.06 Bohr mag/cell

     iteration # 25     ecut=    50.00 Ry     beta= 0.10
     Davidson diagonalization with overlap
     ethr =  2.06E-05,  avg # of iterations =  1.0

     negative rho (up, down):  5.574E-05 3.023E-05
 
     Adding external electric field

     Computed dipole along edir(3) : 
        Dipole               -1.0185 Ry au,         -2.5888 Debye
        Dipole field         -0.0006 Ry au, 
 
        Potential amp.        0.0684 Ry
        Total length         54.2615 bohr
 
 
     Adding external electric field

     Computed dipole along edir(3) : 
        Dipole               -1.0185 Ry au,         -2.5888 Debye
        Dipole field         -0.0006 Ry au, 
 
        Potential amp.        0.0684 Ry
        Total length         54.2615 bohr
 

     total cpu time spent up to now is      363.5 secs

     total energy              =   -7398.05027071 Ry
     estimated scf accuracy    <       0.35374235 Ry

     total magnetization       =    80.27 Bohr mag/cell
     absolute magnetization    =    81.98 Bohr mag/cell

     iteration # 26     ecut=    50.00 Ry     beta= 0.10
     Davidson diagonalization with overlap
     ethr =  2.06E-05,  avg # of iterations =  1.0

     negative rho (up, down):  5.873E-05 7.443E-06
 
     Adding external electric field

     Computed dipole along edir(3) : 
        Dipole               -0.9462 Ry au,         -2.4049 Debye
        Dipole field         -0.0006 Ry au, 
 
        Potential amp.        0.0635 Ry
        Total length         54.2615 bohr
 
 
     Adding external electric field

     Computed dipole along edir(3) : 
        Dipole               -0.9462 Ry au,         -2.4049 Debye
        Dipole field         -0.0006 Ry au, 
 
        Potential amp.        0.0635 Ry
        Total length         54.2615 bohr
 

     total cpu time spent up to now is      374.5 secs

     total energy              =   -7398.03691917 Ry
     estimated scf accuracy    <       0.29330249 Ry

     total magnetization       =    80.40 Bohr mag/cell
     absolute magnetization    =    82.05 Bohr mag/cell

     iteration # 27     ecut=    50.00 Ry     beta= 0.10
     Davidson diagonalization with overlap
     ethr =  2.06E-05,  avg # of iterations =  1.5

     negative rho (up, down):  7.229E-05 4.176E-06
 
     Adding external electric field

     Computed dipole along edir(3) : 
        Dipole               -0.8727 Ry au,         -2.2182 Debye
        Dipole field         -0.0005 Ry au, 
 
        Potential amp.        0.0586 Ry
        Total length         54.2615 bohr
 
 
     Adding external electric field

     Computed dipole along edir(3) : 
        Dipole               -0.8727 Ry au,         -2.2182 Debye
        Dipole field         -0.0005 Ry au, 
 
        Potential amp.        0.0586 Ry
        Total length         54.2615 bohr
 

     total cpu time spent up to now is      386.5 secs

     total energy              =   -7398.03185732 Ry
     estimated scf accuracy    <       0.12206548 Ry

     total magnetization       =    80.58 Bohr mag/cell
     absolute magnetization    =    82.17 Bohr mag/cell

     iteration # 28     ecut=    50.00 Ry     beta= 0.10
     Davidson diagonalization with overlap
     ethr =  1.13E-05,  avg # of iterations =  1.5

     negative rho (up, down):  4.674E-05 6.796E-06
 
     Adding external electric field

     Computed dipole along edir(3) : 
        Dipole               -0.8877 Ry au,         -2.2564 Debye
        Dipole field         -0.0005 Ry au, 
 
        Potential amp.        0.0596 Ry
        Total length         54.2615 bohr
 
 
     Adding external electric field

     Computed dipole along edir(3) : 
        Dipole               -0.8877 Ry au,         -2.2564 Debye
        Dipole field         -0.0005 Ry au, 
 
        Potential amp.        0.0596 Ry
        Total length         54.2615 bohr
 

     total cpu time spent up to now is      398.1 secs

     total energy              =   -7398.03873345 Ry
     estimated scf accuracy    <       0.11120475 Ry

     total magnetization       =    80.72 Bohr mag/cell
     absolute magnetization    =    82.23 Bohr mag/cell

     iteration # 29     ecut=    50.00 Ry     beta= 0.10
     Davidson diagonalization with overlap
     ethr =  1.03E-05,  avg # of iterations =  1.5

     negative rho (up, down):  2.166E-05 8.465E-06
 
     Adding external electric field

     Computed dipole along edir(3) : 
        Dipole               -0.7941 Ry au,         -2.0185 Debye
        Dipole field         -0.0005 Ry au, 
 
        Potential amp.        0.0533 Ry
        Total length         54.2615 bohr
 
 
     Adding external electric field

     Computed dipole along edir(3) : 
        Dipole               -0.7941 Ry au,         -2.0185 Debye
        Dipole field         -0.0005 Ry au, 
 
        Potential amp.        0.0533 Ry
        Total length         54.2615 bohr
 

     total cpu time spent up to now is      409.2 secs

     total energy              =   -7398.03956225 Ry
     estimated scf accuracy    <       0.10085723 Ry

     total magnetization       =    80.92 Bohr mag/cell
     absolute magnetization    =    82.32 Bohr mag/cell

     iteration # 30     ecut=    50.00 Ry     beta= 0.10
     Davidson diagonalization with overlap
     ethr =  9.36E-06,  avg # of iterations =  2.0

     negative rho (up, down):  1.811E-05 3.029E-05
 
     Adding external electric field

     Computed dipole along edir(3) : 
        Dipole               -0.9093 Ry au,         -2.3113 Debye
        Dipole field         -0.0006 Ry au, 
 
        Potential amp.        0.0610 Ry
        Total length         54.2615 bohr
 
 
     Adding external electric field

     Computed dipole along edir(3) : 
        Dipole               -0.9093 Ry au,         -2.3113 Debye
        Dipole field         -0.0006 Ry au, 
 
        Potential amp.        0.0610 Ry
        Total length         54.2615 bohr
 

     total cpu time spent up to now is      421.8 secs

     total energy              =   -7398.03909435 Ry
     estimated scf accuracy    <       0.16710550 Ry

     total magnetization       =    80.32 Bohr mag/cell
     absolute magnetization    =    81.71 Bohr mag/cell

     iteration # 31     ecut=    50.00 Ry     beta= 0.10
     Davidson diagonalization with overlap
     ethr =  9.36E-06,  avg # of iterations =  1.5

     negative rho (up, down):  1.708E-05 2.864E-05
 
     Adding external electric field

     Computed dipole along edir(3) : 
        Dipole               -0.9060 Ry au,         -2.3028 Debye
        Dipole field         -0.0006 Ry au, 
 
        Potential amp.        0.0608 Ry
        Total length         54.2615 bohr
 
 
     Adding external electric field

     Computed dipole along edir(3) : 
        Dipole               -0.9060 Ry au,         -2.3028 Debye
        Dipole field         -0.0006 Ry au, 
 
        Potential amp.        0.0608 Ry
        Total length         54.2615 bohr
 

     total cpu time spent up to now is      434.1 secs

     total energy              =   -7398.04114499 Ry
     estimated scf accuracy    <       0.05106136 Ry

     total magnetization       =    80.56 Bohr mag/cell
     absolute magnetization    =    82.03 Bohr mag/cell

     iteration # 32     ecut=    50.00 Ry     beta= 0.10
     Davidson diagonalization with overlap
     ethr =  4.74E-06,  avg # of iterations =  2.0

     negative rho (up, down):  1.358E-05 2.073E-05
 
     Adding external electric field

     Computed dipole along edir(3) : 
        Dipole               -0.8295 Ry au,         -2.1083 Debye
        Dipole field         -0.0005 Ry au, 
 
        Potential amp.        0.0557 Ry
        Total length         54.2615 bohr
 
 
     Adding external electric field

     Computed dipole along edir(3) : 
        Dipole               -0.8295 Ry au,         -2.1083 Debye
        Dipole field         -0.0005 Ry au, 
 
        Potential amp.        0.0557 Ry
        Total length         54.2615 bohr
 

     total cpu time spent up to now is      448.1 secs

     total energy              =   -7398.03875100 Ry
     estimated scf accuracy    <       0.05515614 Ry

     total magnetization       =    80.63 Bohr mag/cell
     absolute magnetization    =    82.15 Bohr mag/cell

     iteration # 33     ecut=    50.00 Ry     beta= 0.10
     Davidson diagonalization with overlap
     ethr =  4.74E-06,  avg # of iterations = 17.5

     negative rho (up, down):  1.127E-05 1.520E-05
 
     Adding external electric field

     Computed dipole along edir(3) : 
        Dipole               -0.8470 Ry au,         -2.1527 Debye
        Dipole field         -0.0005 Ry au, 
 
        Potential amp.        0.0568 Ry
        Total length         54.2615 bohr
 
 
     Adding external electric field

     Computed dipole along edir(3) : 
        Dipole               -0.8470 Ry au,         -2.1527 Debye
        Dipole field         -0.0005 Ry au, 
 
        Potential amp.        0.0568 Ry
        Total length         54.2615 bohr
 

     total cpu time spent up to now is      474.5 secs

     total energy              =   -7398.03906886 Ry
     estimated scf accuracy    <       0.05225501 Ry

     total magnetization       =    80.19 Bohr mag/cell
     absolute magnetization    =    81.81 Bohr mag/cell

     iteration # 34     ecut=    50.00 Ry     beta= 0.10
     Davidson diagonalization with overlap
     ethr =  4.74E-06,  avg # of iterations =  2.0

     negative rho (up, down):  8.922E-06 1.163E-05
 
     Adding external electric field

     Computed dipole along edir(3) : 
        Dipole               -0.7922 Ry au,         -2.0136 Debye
        Dipole field         -0.0005 Ry au, 
 
        Potential amp.        0.0532 Ry
        Total length         54.2615 bohr
 
 
     Adding external electric field

     Computed dipole along edir(3) : 
        Dipole               -0.7922 Ry au,         -2.0136 Debye
        Dipole field         -0.0005 Ry au, 
 
        Potential amp.        0.0532 Ry
        Total length         54.2615 bohr
 

     total cpu time spent up to now is      487.1 secs

     total energy              =   -7398.04014765 Ry
     estimated scf accuracy    <       0.02909067 Ry

     total magnetization       =    80.60 Bohr mag/cell
     absolute magnetization    =    82.20 Bohr mag/cell

     iteration # 35     ecut=    50.00 Ry     beta= 0.10
     Davidson diagonalization with overlap
     c_bands:  4 eigenvalues not converged
     ethr =  2.70E-06,  avg # of iterations = 11.0

     negative rho (up, down):  1.752E-05 1.980E-05
 
     Adding external electric field

     Computed dipole along edir(3) : 
        Dipole               -0.7876 Ry au,         -2.0018 Debye
        Dipole field         -0.0005 Ry au, 
 
        Potential amp.        0.0529 Ry
        Total length         54.2615 bohr
 
 
     Adding external electric field

     Computed dipole along edir(3) : 
        Dipole               -0.7876 Ry au,         -2.0018 Debye
        Dipole field         -0.0005 Ry au, 
 
        Potential amp.        0.0529 Ry
        Total length         54.2615 bohr
 

     total cpu time spent up to now is      504.2 secs

     total energy              =   -7398.04099512 Ry
     estimated scf accuracy    <       0.07320865 Ry

     total magnetization       =    80.59 Bohr mag/cell
     absolute magnetization    =    82.25 Bohr mag/cell

     iteration # 36     ecut=    50.00 Ry     beta= 0.10
     Davidson diagonalization with overlap
     c_bands:  3 eigenvalues not converged
     ethr =  2.70E-06,  avg # of iterations = 11.0

     negative rho (up, down):  1.421E-05 1.740E-05
 
     Adding external electric field

     Computed dipole along edir(3) : 
        Dipole               -0.8039 Ry au,         -2.0432 Debye
        Dipole field         -0.0005 Ry au, 
 
        Potential amp.        0.0540 Ry
        Total length         54.2615 bohr
 
 
     Adding external electric field

     Computed dipole along edir(3) : 
        Dipole               -0.8039 Ry au,         -2.0432 Debye
        Dipole field         -0.0005 Ry au, 
 
        Potential amp.        0.0540 Ry
        Total length         54.2615 bohr
 

     total cpu time spent up to now is      521.9 secs

     total energy              =   -7398.04025304 Ry
     estimated scf accuracy    <       0.06812125 Ry

     total magnetization       =    80.64 Bohr mag/cell
     absolute magnetization    =    82.29 Bohr mag/cell

     iteration # 37     ecut=    50.00 Ry     beta= 0.10
     Davidson diagonalization with overlap
     c_bands:  1 eigenvalues not converged
     ethr =  2.70E-06,  avg # of iterations = 11.0

     negative rho (up, down):  1.617E-05 1.616E-05
 
     Adding external electric field

     Computed dipole along edir(3) : 
        Dipole               -0.7892 Ry au,         -2.0060 Debye
        Dipole field         -0.0005 Ry au, 
 
        Potential amp.        0.0530 Ry
        Total length         54.2615 bohr
 
 
     Adding external electric field

     Computed dipole along edir(3) : 
        Dipole               -0.7892 Ry au,         -2.0060 Debye
        Dipole field         -0.0005 Ry au, 
 
        Potential amp.        0.0530 Ry
        Total length         54.2615 bohr
 

     total cpu time spent up to now is      538.7 secs

     total energy              =   -7398.04028590 Ry
     estimated scf accuracy    <       0.05562810 Ry

     total magnetization       =    80.65 Bohr mag/cell
     absolute magnetization    =    82.34 Bohr mag/cell

     iteration # 38     ecut=    50.00 Ry     beta= 0.10
     Davidson diagonalization with overlap
     ethr =  2.70E-06,  avg # of iterations =  2.0

     negative rho (up, down):  1.208E-05 1.703E-05
 
     Adding external electric field

     Computed dipole along edir(3) : 
        Dipole               -0.7664 Ry au,         -1.9480 Debye
        Dipole field         -0.0005 Ry au, 
 
        Potential amp.        0.0514 Ry
        Total length         54.2615 bohr
 
 
     Adding external electric field

     Computed dipole along edir(3) : 
        Dipole               -0.7664 Ry au,         -1.9480 Debye
        Dipole field         -0.0005 Ry au, 
 
        Potential amp.        0.0514 Ry
        Total length         54.2615 bohr
 

     total cpu time spent up to now is      552.5 secs

     total energy              =   -7398.03917805 Ry
     estimated scf accuracy    <       0.05557692 Ry

     total magnetization       =    80.64 Bohr mag/cell
     absolute magnetization    =    82.31 Bohr mag/cell

     iteration # 39     ecut=    50.00 Ry     beta= 0.10
     Davidson diagonalization with overlap
     ethr =  2.70E-06,  avg # of iterations =  2.0

     negative rho (up, down):  8.784E-06 1.008E-05
 
     Adding external electric field

     Computed dipole along edir(3) : 
        Dipole               -0.7665 Ry au,         -1.9482 Debye
        Dipole field         -0.0005 Ry au, 
 
        Potential amp.        0.0514 Ry
        Total length         54.2615 bohr
 
 
     Adding external electric field

     Computed dipole along edir(3) : 
        Dipole               -0.7665 Ry au,         -1.9482 Debye
        Dipole field         -0.0005 Ry au, 
 
        Potential amp.        0.0514 Ry
        Total length         54.2615 bohr
 

     total cpu time spent up to now is      565.0 secs

     total energy              =   -7398.03967806 Ry
     estimated scf accuracy    <       0.04218872 Ry

     total magnetization       =    80.43 Bohr mag/cell
     absolute magnetization    =    82.07 Bohr mag/cell

     iteration # 40     ecut=    50.00 Ry     beta= 0.10
     Davidson diagonalization with overlap
     ethr =  2.70E-06,  avg # of iterations =  1.0

     negative rho (up, down):  1.151E-05 1.436E-05
 
     Adding external electric field

     Computed dipole along edir(3) : 
        Dipole               -0.7826 Ry au,         -1.9892 Debye
        Dipole field         -0.0005 Ry au, 
 
        Potential amp.        0.0525 Ry
        Total length         54.2615 bohr
 
 
     Adding external electric field

     Computed dipole along edir(3) : 
        Dipole               -0.7826 Ry au,         -1.9892 Debye
        Dipole field         -0.0005 Ry au, 
 
        Potential amp.        0.0525 Ry
        Total length         54.2615 bohr
 

     total cpu time spent up to now is      575.8 secs

     total energy              =   -7398.04000748 Ry
     estimated scf accuracy    <       0.04425559 Ry

     total magnetization       =    80.49 Bohr mag/cell
     absolute magnetization    =    82.05 Bohr mag/cell

     iteration # 41     ecut=    50.00 Ry     beta= 0.10
     Davidson diagonalization with overlap
     ethr =  2.70E-06,  avg # of iterations =  2.0

     negative rho (up, down):  3.712E-05 4.693E-05
 
     Adding external electric field

     Computed dipole along edir(3) : 
        Dipole               -0.7245 Ry au,         -1.8415 Debye
        Dipole field         -0.0004 Ry au, 
 
        Potential amp.        0.0486 Ry
        Total length         54.2615 bohr
 
 
     Adding external electric field

     Computed dipole along edir(3) : 
        Dipole               -0.7245 Ry au,         -1.8415 Debye
        Dipole field         -0.0004 Ry au, 
 
        Potential amp.        0.0486 Ry
        Total length         54.2615 bohr
 

     total cpu time spent up to now is      588.6 secs

     total energy              =   -7398.03807932 Ry
     estimated scf accuracy    <       0.03804790 Ry

     total magnetization       =    80.47 Bohr mag/cell
     absolute magnetization    =    82.03 Bohr mag/cell

     iteration # 42     ecut=    50.00 Ry     beta= 0.10
     Davidson diagonalization with overlap
     ethr =  2.70E-06,  avg # of iterations =  2.0

     negative rho (up, down):  3.997E-04 5.247E-04
 
     Adding external electric field

     Computed dipole along edir(3) : 
        Dipole               -0.6687 Ry au,         -1.6998 Debye
        Dipole field         -0.0004 Ry au, 
 
        Potential amp.        0.0449 Ry
        Total length         54.2615 bohr
 
 
     Adding external electric field

     Computed dipole along edir(3) : 
        Dipole               -0.6687 Ry au,         -1.6998 Debye
        Dipole field         -0.0004 Ry au, 
 
        Potential amp.        0.0449 Ry
        Total length         54.2615 bohr
 

     total cpu time spent up to now is      601.9 secs

     total energy              =   -7398.03747267 Ry
     estimated scf accuracy    <       0.02885279 Ry

     total magnetization       =    80.50 Bohr mag/cell
     absolute magnetization    =    82.14 Bohr mag/cell

     iteration # 43     ecut=    50.00 Ry     beta= 0.10
     Davidson diagonalization with overlap
     ethr =  2.68E-06,  avg # of iterations =  2.0

     negative rho (up, down):  8.389E-04 1.037E-03
 
     Adding external electric field

     Computed dipole along edir(3) : 
        Dipole               -0.6346 Ry au,         -1.6130 Debye
        Dipole field         -0.0004 Ry au, 
 
        Potential amp.        0.0426 Ry
        Total length         54.2615 bohr
 
 
     Adding external electric field

     Computed dipole along edir(3) : 
        Dipole               -0.6346 Ry au,         -1.6130 Debye
        Dipole field         -0.0004 Ry au, 
 
        Potential amp.        0.0426 Ry
        Total length         54.2615 bohr
 

     total cpu time spent up to now is      614.1 secs

     total energy              =   -7398.03743160 Ry
     estimated scf accuracy    <       0.02366201 Ry

     total magnetization       =    80.51 Bohr mag/cell
     absolute magnetization    =    82.14 Bohr mag/cell

     iteration # 44     ecut=    50.00 Ry     beta= 0.10
     Davidson diagonalization with overlap
     ethr =  2.19E-06,  avg # of iterations =  5.0

     negative rho (up, down):  1.201E-03 1.433E-03
 
     Adding external electric field

     Computed dipole along edir(3) : 
        Dipole               -0.6225 Ry au,         -1.5821 Debye
        Dipole field         -0.0004 Ry au, 
 
        Potential amp.        0.0418 Ry
        Total length         54.2615 bohr
 
 
     Adding external electric field

     Computed dipole along edir(3) : 
        Dipole               -0.6225 Ry au,         -1.5821 Debye
        Dipole field         -0.0004 Ry au, 
 
        Potential amp.        0.0418 Ry
        Total length         54.2615 bohr
 

     total cpu time spent up to now is      628.4 secs

     total energy              =   -7398.03745957 Ry
     estimated scf accuracy    <       0.02415501 Ry

     total magnetization       =    80.48 Bohr mag/cell
     absolute magnetization    =    82.08 Bohr mag/cell

     iteration # 45     ecut=    50.00 Ry     beta= 0.10
     Davidson diagonalization with overlap
     ethr =  2.19E-06,  avg # of iterations = 19.5

     negative rho (up, down):  1.278E-03 1.451E-03
 
     Adding external electric field

     Computed dipole along edir(3) : 
        Dipole               -0.6083 Ry au,         -1.5462 Debye
        Dipole field         -0.0004 Ry au, 
 
        Potential amp.        0.0408 Ry
        Total length         54.2615 bohr
 
 
     Adding external electric field

     Computed dipole along edir(3) : 
        Dipole               -0.6083 Ry au,         -1.5462 Debye
        Dipole field         -0.0004 Ry au, 
 
        Potential amp.        0.0408 Ry
        Total length         54.2615 bohr
 

     total cpu time spent up to now is      655.8 secs

     total energy              =   -7398.03728455 Ry
     estimated scf accuracy    <       0.02488115 Ry

     total magnetization       =    80.53 Bohr mag/cell
     absolute magnetization    =    82.11 Bohr mag/cell

     iteration # 46     ecut=    50.00 Ry     beta= 0.10
     Davidson diagonalization with overlap
     ethr =  2.19E-06,  avg # of iterations =  1.5

     negative rho (up, down):  4.213E-04 5.753E-04
 
     Adding external electric field

     Computed dipole along edir(3) : 
        Dipole               -0.6089 Ry au,         -1.5477 Debye
        Dipole field         -0.0004 Ry au, 
 
        Potential amp.        0.0409 Ry
        Total length         54.2615 bohr
 
 
     Adding external electric field

     Computed dipole along edir(3) : 
        Dipole               -0.6089 Ry au,         -1.5477 Debye
        Dipole field         -0.0004 Ry au, 
 
        Potential amp.        0.0409 Ry
        Total length         54.2615 bohr
 

     total cpu time spent up to now is      668.5 secs

     total energy              =   -7398.03747264 Ry
     estimated scf accuracy    <       0.02999857 Ry

     total magnetization       =    80.37 Bohr mag/cell
     absolute magnetization    =    81.96 Bohr mag/cell

     iteration # 47     ecut=    50.00 Ry     beta= 0.10
     Davidson diagonalization with overlap
     ethr =  2.19E-06,  avg # of iterations =  1.5

     negative rho (up, down):  3.025E-04 4.816E-04
 
     Adding external electric field

     Computed dipole along edir(3) : 
        Dipole               -0.6049 Ry au,         -1.5374 Debye
        Dipole field         -0.0004 Ry au, 
 
        Potential amp.        0.0406 Ry
        Total length         54.2615 bohr
 
 
     Adding external electric field

     Computed dipole along edir(3) : 
        Dipole               -0.6049 Ry au,         -1.5374 Debye
        Dipole field         -0.0004 Ry au, 
 
        Potential amp.        0.0406 Ry
        Total length         54.2615 bohr
 

     total cpu time spent up to now is      681.3 secs

     total energy              =   -7398.03711581 Ry
     estimated scf accuracy    <       0.02375689 Ry

     total magnetization       =    80.40 Bohr mag/cell
     absolute magnetization    =    81.98 Bohr mag/cell

     iteration # 48     ecut=    50.00 Ry     beta= 0.10
     Davidson diagonalization with overlap
     ethr =  2.19E-06,  avg # of iterations =  1.5

     negative rho (up, down):  3.200E-04 4.091E-04
 
     Adding external electric field

     Computed dipole along edir(3) : 
        Dipole               -0.6115 Ry au,         -1.5543 Debye
        Dipole field         -0.0004 Ry au, 
 
        Potential amp.        0.0410 Ry
        Total length         54.2615 bohr
 
 
     Adding external electric field

     Computed dipole along edir(3) : 
        Dipole               -0.6115 Ry au,         -1.5543 Debye
        Dipole field         -0.0004 Ry au, 
 
        Potential amp.        0.0410 Ry
        Total length         54.2615 bohr
 

     total cpu time spent up to now is      695.7 secs

     total energy              =   -7398.03774747 Ry
     estimated scf accuracy    <       0.02769994 Ry

     total magnetization       =    80.37 Bohr mag/cell
     absolute magnetization    =    81.95 Bohr mag/cell

     iteration # 49     ecut=    50.00 Ry     beta= 0.10
     Davidson diagonalization with overlap
     ethr =  2.19E-06,  avg # of iterations =  1.5

     negative rho (up, down):  2.403E-04 2.997E-04
 
     Adding external electric field

     Computed dipole along edir(3) : 
        Dipole               -0.6075 Ry au,         -1.5440 Debye
        Dipole field         -0.0004 Ry au, 
 
        Potential amp.        0.0408 Ry
        Total length         54.2615 bohr
 
 
     Adding external electric field

     Computed dipole along edir(3) : 
        Dipole               -0.6075 Ry au,         -1.5440 Debye
        Dipole field         -0.0004 Ry au, 
 
        Potential amp.        0.0408 Ry
        Total length         54.2615 bohr
 

     total cpu time spent up to now is      708.7 secs

     total energy              =   -7398.03749485 Ry
     estimated scf accuracy    <       0.02968443 Ry

     total magnetization       =    80.38 Bohr mag/cell
     absolute magnetization    =    81.93 Bohr mag/cell

     iteration # 50     ecut=    50.00 Ry     beta= 0.10
     Davidson diagonalization with overlap
     ethr =  2.19E-06,  avg # of iterations =  1.5

     negative rho (up, down):  6.888E-05 9.156E-05
 
     Adding external electric field

     Computed dipole along edir(3) : 
        Dipole               -0.6523 Ry au,         -1.6579 Debye
        Dipole field         -0.0004 Ry au, 
 
        Potential amp.        0.0438 Ry
        Total length         54.2615 bohr
 
 
     Adding external electric field

     Computed dipole along edir(3) : 
        Dipole               -0.6523 Ry au,         -1.6579 Debye
        Dipole field         -0.0004 Ry au, 
 
        Potential amp.        0.0438 Ry
        Total length         54.2615 bohr
 

     total cpu time spent up to now is      720.5 secs

     total energy              =   -7398.03768933 Ry
     estimated scf accuracy    <       0.02780970 Ry

     total magnetization       =    80.47 Bohr mag/cell
     absolute magnetization    =    82.10 Bohr mag/cell

     iteration # 51     ecut=    50.00 Ry     beta= 0.10
     Davidson diagonalization with overlap
     ethr =  2.19E-06,  avg # of iterations =  1.5

     negative rho (up, down):  6.845E-04 8.300E-04
 
     Adding external electric field

     Computed dipole along edir(3) : 
        Dipole               -0.6035 Ry au,         -1.5338 Debye
        Dipole field         -0.0004 Ry au, 
 
        Potential amp.        0.0405 Ry
        Total length         54.2615 bohr
 
 
     Adding external electric field

     Computed dipole along edir(3) : 
        Dipole               -0.6035 Ry au,         -1.5338 Debye
        Dipole field         -0.0004 Ry au, 
 
        Potential amp.        0.0405 Ry
        Total length         54.2615 bohr
 

     total cpu time spent up to now is      732.0 secs

     total energy              =   -7398.03746096 Ry
     estimated scf accuracy    <       0.02576429 Ry

     total magnetization       =    80.49 Bohr mag/cell
     absolute magnetization    =    81.99 Bohr mag/cell

     iteration # 52     ecut=    50.00 Ry     beta= 0.10
     Davidson diagonalization with overlap
     ethr =  2.19E-06,  avg # of iterations =  2.0

     negative rho (up, down):  3.431E-03 3.640E-03
 
     Adding external electric field

     Computed dipole along edir(3) : 
        Dipole               -0.4940 Ry au,         -1.2556 Debye
        Dipole field         -0.0003 Ry au, 
 
        Potential amp.        0.0332 Ry
        Total length         54.2615 bohr
 
 
     Adding external electric field

     Computed dipole along edir(3) : 
        Dipole               -0.4940 Ry au,         -1.2556 Debye
        Dipole field         -0.0003 Ry au, 
 
        Potential amp.        0.0332 Ry
        Total length         54.2615 bohr
 

     total cpu time spent up to now is      747.1 secs

     total energy              =   -7398.03683096 Ry
     estimated scf accuracy    <       0.02182194 Ry

     total magnetization       =    80.53 Bohr mag/cell
     absolute magnetization    =    82.08 Bohr mag/cell

     iteration # 53     ecut=    50.00 Ry     beta= 0.10
     Davidson diagonalization with overlap
     ethr =  2.02E-06,  avg # of iterations =  6.0

     negative rho (up, down):  4.325E-03 4.463E-03
 
     Adding external electric field

     Computed dipole along edir(3) : 
        Dipole               -0.4728 Ry au,         -1.2019 Debye
        Dipole field         -0.0003 Ry au, 
 
        Potential amp.        0.0317 Ry
        Total length         54.2615 bohr
 
 
     Adding external electric field

     Computed dipole along edir(3) : 
        Dipole               -0.4728 Ry au,         -1.2019 Debye
        Dipole field         -0.0003 Ry au, 
 
        Potential amp.        0.0317 Ry
        Total length         54.2615 bohr
 

     total cpu time spent up to now is      762.3 secs

     total energy              =   -7398.03705984 Ry
     estimated scf accuracy    <       0.02443600 Ry

     total magnetization       =    80.42 Bohr mag/cell
     absolute magnetization    =    81.96 Bohr mag/cell

     iteration # 54     ecut=    50.00 Ry     beta= 0.10
     Davidson diagonalization with overlap
     ethr =  2.02E-06,  avg # of iterations =  1.5

     negative rho (up, down):  4.489E-03 4.751E-03
 
     Adding external electric field

     Computed dipole along edir(3) : 
        Dipole               -0.4749 Ry au,         -1.2071 Debye
        Dipole field         -0.0003 Ry au, 
 
        Potential amp.        0.0319 Ry
        Total length         54.2615 bohr
 
 
     Adding external electric field

     Computed dipole along edir(3) : 
        Dipole               -0.4749 Ry au,         -1.2071 Debye
        Dipole field         -0.0003 Ry au, 
 
        Potential amp.        0.0319 Ry
        Total length         54.2615 bohr
 

     total cpu time spent up to now is      773.9 secs

     total energy              =   -7398.03693917 Ry
     estimated scf accuracy    <       0.02313538 Ry

     total magnetization       =    80.44 Bohr mag/cell
     absolute magnetization    =    81.96 Bohr mag/cell

     iteration # 55     ecut=    50.00 Ry     beta= 0.10
     Davidson diagonalization with overlap
     ethr =  2.02E-06,  avg # of iterations =  2.0

     negative rho (up, down):  4.290E-03 4.352E-03
 
     Adding external electric field

     Computed dipole along edir(3) : 
        Dipole               -0.4907 Ry au,         -1.2472 Debye
        Dipole field         -0.0003 Ry au, 
 
        Potential amp.        0.0329 Ry
        Total length         54.2615 bohr
 
 
     Adding external electric field

     Computed dipole along edir(3) : 
        Dipole               -0.4907 Ry au,         -1.2472 Debye
        Dipole field         -0.0003 Ry au, 
 
        Potential amp.        0.0329 Ry
        Total length         54.2615 bohr
 

     total cpu time spent up to now is      786.3 secs

     total energy              =   -7398.03699888 Ry
     estimated scf accuracy    <       0.02273106 Ry

     total magnetization       =    80.49 Bohr mag/cell
     absolute magnetization    =    82.01 Bohr mag/cell

     iteration # 56     ecut=    50.00 Ry     beta= 0.10
     Davidson diagonalization with overlap
     ethr =  2.02E-06,  avg # of iterations =  1.0

     negative rho (up, down):  6.155E-03 6.450E-03
 
     Adding external electric field

     Computed dipole along edir(3) : 
        Dipole               -0.4944 Ry au,         -1.2566 Debye
        Dipole field         -0.0003 Ry au, 
 
        Potential amp.        0.0332 Ry
        Total length         54.2615 bohr
 
 
     Adding external electric field

     Computed dipole along edir(3) : 
        Dipole               -0.4944 Ry au,         -1.2566 Debye
        Dipole field         -0.0003 Ry au, 
 
        Potential amp.        0.0332 Ry
        Total length         54.2615 bohr
 

     total cpu time spent up to now is      796.5 secs

     total energy              =   -7398.03691137 Ry
     estimated scf accuracy    <       0.02137756 Ry

     total magnetization       =    80.45 Bohr mag/cell
     absolute magnetization    =    82.04 Bohr mag/cell

     iteration # 57     ecut=    50.00 Ry     beta= 0.10
     Davidson diagonalization with overlap
     ethr =  1.98E-06,  avg # of iterations =  2.0

     negative rho (up, down):  2.831E-03 2.772E-03
 
     Adding external electric field

     Computed dipole along edir(3) : 
        Dipole               -0.5091 Ry au,         -1.2940 Debye
        Dipole field         -0.0003 Ry au, 
 
        Potential amp.        0.0342 Ry
        Total length         54.2615 bohr
 
 
     Adding external electric field

     Computed dipole along edir(3) : 
        Dipole               -0.5091 Ry au,         -1.2940 Debye
        Dipole field         -0.0003 Ry au, 
 
        Potential amp.        0.0342 Ry
        Total length         54.2615 bohr
 

     total cpu time spent up to now is      808.9 secs

     total energy              =   -7398.03672370 Ry
     estimated scf accuracy    <       0.02530574 Ry

     total magnetization       =    80.47 Bohr mag/cell
     absolute magnetization    =    82.06 Bohr mag/cell

     iteration # 58     ecut=    50.00 Ry     beta= 0.10
     Davidson diagonalization with overlap
     ethr =  1.98E-06,  avg # of iterations =  2.0

     negative rho (up, down):  1.800E-03 1.547E-03
 
     Adding external electric field

     Computed dipole along edir(3) : 
        Dipole               -0.5277 Ry au,         -1.3412 Debye
        Dipole field         -0.0003 Ry au, 
 
        Potential amp.        0.0354 Ry
[...]
    -6.0001  -5.9831  -5.9522  -5.9344  -5.9088  -5.8879  -5.8503  -5.8457
    -5.8145  -5.7938  -5.7583  -5.7392  -5.7296  -5.7209  -5.6959  -5.6773
    -5.6736  -5.6687  -5.6410  -5.6204  -5.6106  -5.5897  -5.5358  -5.5063
    -5.4588  -5.4433  -5.4128  -5.3983  -5.3853  -5.3486  -5.3033  -5.2861
    -5.2396  -5.2120  -5.1930  -5.1729  -5.1686  -5.0770  -5.0744  -5.0533
    -5.0042  -4.9705  -4.9501  -4.9168  -4.8961  -4.8742  -4.8500  -4.7963
    -4.7730  -4.7663  -4.7448  -4.7313  -4.6439  -4.6381  -4.5863  -4.5491
    -4.5335  -4.5189  -4.4853  -4.4512  -4.4215  -4.4033  -4.3807  -4.3654
    -4.3457  -4.2974  -4.2898  -4.2163  -4.1725  -4.1500  -4.1267  -4.0796
    -4.0738  -4.0439  -4.0360  -3.9974  -3.9600  -3.9508  -3.9226  -3.8968
    -3.8890  -3.8392  -3.8309  -3.8207  -3.7946  -3.7686  -3.7456  -3.7314
    -3.7166  -3.6938  -3.6597  -3.6441  -3.6409  -3.6264  -3.6041  -3.5879
    -3.5425  -3.5267  -3.5205  -3.5174  -3.4900  -3.4733  -3.4485  -3.4350
    -3.4222  -3.4029  -3.3899  -3.3441  -3.3436  -3.2977  -3.2892  -3.2558
    -3.2359  -3.2176  -3.2067  -3.1921  -3.1717  -3.1647  -3.1543  -3.1387
    -3.1144  -3.0717  -3.0378  -3.0276  -3.0258  -2.9938  -2.9706  -2.9544
    -2.9291  -2.9092  -2.8976  -2.8725  -2.8590  -2.8469  -2.8195  -2.8128
    -2.7925  -2.7885  -2.7821  -2.7714  -2.7478  -2.7427  -2.7239  -2.6999
    -2.6901  -2.6756  -2.6599  -2.6435  -2.6243  -2.6204  -2.5967  -2.5738
    -2.5603  -2.5396  -2.5257  -2.4920  -2.4896  -2.4782  -2.4638  -2.4369
    -2.4304  -2.3983  -2.3879  -2.3735  -2.3531  -2.3171  -2.2977  -2.2889
    -2.2622  -2.2530  -2.2291  -2.1995  -2.1746  -2.1607  -2.1308  -2.1217
    -2.1041  -2.0906  -2.0810  -2.0686  -2.0656  -2.0484  -2.0047  -1.9907
    -1.9762  -1.9676  -1.9581  -1.9325  -1.9232  -1.9150  -1.8853  -1.8715
    -1.8349  -1.8170  -1.7875  -1.7627  -1.7467  -1.7332  -1.7142  -1.6958
    -1.6649  -1.6530  -1.6409  -1.6270  -1.6092  -1.5990  -1.5796  -1.5450
    -1.5409  -1.5163  -1.4929  -1.4633  -1.4408  -1.4339  -1.4305  -1.4193
    -1.4069  -1.3758  -1.3361  -1.3070  -1.2948  -1.2364  -1.2194  -1.2063
    -1.1485  -1.0972  -1.0670  -1.0502  -1.0119  -0.9245  -0.8966  -0.8744
    -0.7805  -0.6646  -0.6117  -0.6073  -0.4612  -0.3650  -0.3212  -0.2573
     0.1079   0.1261   0.1614   0.1942   0.2341   0.2448   0.2631   0.2720
     0.2858   0.2875   0.3024   0.3044   0.3121   0.3292   0.3416   0.3482
     0.3524   0.3577   0.3714   0.3814   0.3864   0.3877   0.3979   0.4039
     0.4121   0.4194   0.4268   0.4381   0.4490   0.4512   0.4592   0.4604
     0.4662   0.4733   0.4786   0.4906   0.4962   0.5007   0.5036   0.5097
     0.5173   0.5346   0.5372   0.5445   0.5530   0.5618   0.5661   0.5801
     0.5840   0.5870   0.5932   0.5986   0.6110   0.6163   0.6230   0.6336
     0.6385   0.6477   0.6611   0.6626   0.6757   0.6789   0.6839   0.6885
     0.7009   0.7084   0.7143   0.7173   0.7223   0.7277   0.7408   0.7445
     0.7496   0.7530   0.7675   0.7739   0.7871   0.7891   0.7978   0.8106
     0.8243   0.8302   0.8464   0.8541   0.8634   0.8665   0.8812   0.8838
     0.8982   0.9139   0.9180   0.9279   0.9356   0.9883   0.9915   1.0170
     1.0736   1.1373   1.6149   1.6599   1.7025   1.7054   1.7152   1.7181
     1.7588   1.8487   1.8679   1.8786   1.8949   1.9326   1.9379   1.9663
     1.9732   1.9956   2.0196   2.0330   2.0425   2.0700   2.0859   2.1243
     2.1524   2.1633   2.1645   2.1953   2.2026   2.2099   2.2230   2.2308
     2.2448   2.2555   2.2655   2.2828   2.2903   2.3024   2.3066   2.3193
     2.3408   2.3523   2.3601   2.3758   2.4103   2.4134   2.4185   2.4480
     2.4620   2.4875   2.5004   2.5014   2.5166   2.5245   2.5491   2.5572
     2.5736   2.5847   2.5967   2.6314   2.6735   2.7081   2.7272   2.7497
     2.7832   2.8364   2.8839   2.8904   2.9086   3.5830   3.5920   3.6665
     3.7500   3.8251   3.8374   3.8462   3.8624   3.9999   4.0644   4.5865
     4.6419   4.7111   4.7760   4.9227   4.9498   5.0208   5.4139   6.2960
     6.3627   6.5448   6.5850   6.7428   6.8400   6.8529   6.8839   6.9307
     6.9960   7.0632   7.1137   7.1531   7.2986   7.3256   7.3707   7.4668
     7.5038   7.5608   7.6317   7.6701   7.6930   7.7527   7.7913   7.8115
     7.8653   7.9248   7.9309   7.9760   8.0186   8.0309   8.0588   8.0784
     8.1066   8.1211   8.1644   8.1890   8.2354   8.2651   8.2742   8.3305
     8.3777   8.3988   8.4250   8.4536   8.4687   8.4821   8.4975   8.5148
     8.5457   8.5678   8.5766   8.6088   8.6161   8.6439   8.6668   8.6917
     8.7214   8.7647   8.7800   8.8045   8.8300   8.8498   8.8660

     the Fermi energy is     1.5670 ev

!    total energy              =   -7398.03589438 Ry
     estimated scf accuracy    <       0.00000050 Ry
     smearing contrib. (-TS)   =      -0.01434145 Ry
     internal energy E=F+TS    =   -7398.02155294 Ry

     The total energy is F=E-TS. E is the sum of the following terms:
     one-electron contribution =  -91743.56336720 Ry
     hartree contribution      =   46519.73589377 Ry
     xc contribution           =   -2260.27238468 Ry
     ewald contribution        =   40087.91229656 Ry
     Dispersion Correction     =      -1.83400207 Ry
     electric field correction =       0.00001069 Ry

     total magnetization       =    80.44 Bohr mag/cell
     absolute magnetization    =    81.98 Bohr mag/cell

     convergence has been achieved in  91 iterations

     negative rho (up, down):  9.305E-04 5.475E-04

     Forces acting on atoms (cartesian axes, Ry/au):

     atom    1 type  2   force =     0.03090775   -0.01981926   -0.01645173
     atom    2 type  1   force =     0.00218864   -0.00413709   -0.01041679
     atom    3 type  1   force =    -0.02152870   -0.02045808    0.01806088
     atom    4 type  1   force =     0.00147932    0.01040940   -0.01251153
     atom    5 type  1   force =    -0.00480044    0.02904854   -0.01834759
     atom    6 type  1   force =     0.00590351    0.00043134   -0.00034541
     atom    7 type  1   force =     0.02684714   -0.02120885    0.01727385
     atom    8 type  1   force =    -0.00970912   -0.00331561   -0.01080137
     atom    9 type  1   force =    -0.02980258   -0.01797043    0.01604708
     atom   10 type  1   force =    -0.00116347    0.00824185   -0.01276859
     atom   11 type  1   force =    -0.01316551    0.03041835   -0.02051069
     atom   12 type  1   force =     0.00122006    0.00659661   -0.00402181
     atom   13 type  3   force =     0.05102046   -0.11003750    0.00914280
     atom   14 type  3   force =    -0.02903808    0.03594073   -0.06519535
     atom   15 type  3   force =    -0.00919218    0.17548021   -0.08319942
     atom   16 type  3   force =     0.06067799    0.00060142   -0.00440867
     atom   17 type  4   force =     0.01515512   -0.02189201   -0.00985550
     atom   18 type  4   force =    -0.00542164    0.00482191    0.02968670
     atom   19 type  4   force =     0.00217429    0.00105037    0.03077530
     atom   20 type  4   force =     0.00514634    0.00185956    0.00234047
     atom   21 type  4   force =     0.00053269   -0.01203483    0.00008230
     atom   22 type  4   force =    -0.00094576    0.00389426    0.03241958
     atom   23 type  4   force =    -0.00606239    0.01470337    0.02734608
     atom   24 type  4   force =     0.00867916    0.00321811   -0.00424464
     atom   25 type  4   force =     0.00649714   -0.00327361    0.00156865
     atom   26 type  4   force =     0.03123826   -0.17843975    0.00718888
     atom   27 type  4   force =     0.00287185    0.00099100    0.00171041
     atom   28 type  4   force =    -0.01712309    0.00168731    0.00472174
     atom   29 type  4   force =     0.09139678    0.00312075    0.00803495
     atom   30 type  4   force =     0.01306648   -0.02517925   -0.00091419
     atom   31 type  4   force =    -0.03850540    0.13346001   -0.00014371
     atom   32 type  4   force =    -0.00545184   -0.01186292    0.00654719
     atom   33 type  3   force =     0.04154911   -0.11927175    0.00967864
     atom   34 type  3   force =    -0.10167568    0.04259205   -0.07576166
     atom   35 type  3   force =    -0.01350570    0.16598607   -0.08813286
     atom   36 type  3   force =    -0.00359616    0.00260988   -0.01045127
     atom   37 type  4   force =     0.00821357   -0.01471745   -0.00245402
     atom   38 type  4   force =    -0.00589035   -0.00170026    0.02743674
     atom   39 type  4   force =    -0.00465672    0.00729462    0.03220124
     atom   40 type  4   force =     0.00130764    0.00003078    0.00245696
     atom   41 type  4   force =    -0.00150072   -0.00961259   -0.00154856
     atom   42 type  4   force =     0.00539536   -0.00051197    0.02928686
     atom   43 type  4   force =    -0.01043570    0.01354168    0.02696366
     atom   44 type  4   force =     0.00444261    0.00347938   -0.00444697
     atom   45 type  4   force =    -0.00031305   -0.00066664    0.00201387
     atom   46 type  4   force =     0.02819512   -0.17066000    0.00535940
     atom   47 type  4   force =    -0.06554671   -0.00074110   -0.00309109
     atom   48 type  4   force =    -0.01994039    0.00392294    0.00527473
     atom   49 type  4   force =     0.01409318    0.00083933    0.00203308
     atom   50 type  4   force =     0.00792794   -0.02441097   -0.00017206
     atom   51 type  4   force =    -0.03979785    0.13346583   -0.00133285
     atom   52 type  4   force =    -0.00770885   -0.01064483    0.00876808
     atom   53 type  2   force =     0.00658097   -0.00769662    0.00588003
     atom   54 type  1   force =    -0.00006350   -0.00575106    0.01012814
     atom   55 type  1   force =     0.00493443   -0.00611219    0.00675014
     atom   56 type  1   force =    -0.00023007    0.00745156   -0.00104770
     atom   57 type  1   force =     0.00051450    0.02206429   -0.01420602
     atom   58 type  1   force =     0.00173817   -0.00330162    0.00235604
     atom   59 type  1   force =     0.00239560   -0.01022992    0.00405945
     atom   60 type  1   force =    -0.00681103   -0.00374326    0.00378233
     atom   61 type  1   force =    -0.00473380   -0.00476127    0.00680165
     atom   62 type  1   force =    -0.00346253    0.00675265   -0.00198420
     atom   63 type  1   force =    -0.01088506    0.02495599   -0.01757064
     atom   64 type  1   force =    -0.00255398    0.00132356   -0.00066874
     atom   65 type  3   force =     0.04621308   -0.12078695    0.01813659
     atom   66 type  3   force =     0.00167568   -0.00423015    0.00095196
     atom   67 type  3   force =    -0.04064229    0.12356455   -0.00700244
     atom   68 type  3   force =     0.06283573   -0.00131194    0.00741511
     atom   69 type  4   force =     0.01264818   -0.01720482   -0.00253263
     atom   70 type  4   force =    -0.00182895    0.00333864   -0.00083272
     atom   71 type  4   force =    -0.00195525    0.00346344    0.00529357
     atom   72 type  4   force =     0.00465147    0.00139049    0.00133579
     atom   73 type  4   force =     0.00769254   -0.01762949    0.01304059
     atom   74 type  4   force =    -0.00444424   -0.00333639    0.00926584
     atom   75 type  4   force =     0.00353741    0.00866178    0.00461884
     atom   76 type  4   force =     0.00627284    0.00082007   -0.00010595
     atom   77 type  4   force =     0.00630796   -0.00197415   -0.00080535
     atom   78 type  4   force =     0.04527868   -0.14082236    0.00575910
     atom   79 type  4   force =     0.00020873    0.00012206   -0.00036470
     atom   80 type  4   force =     0.00154042    0.00191171    0.00226030
     atom   81 type  4   force =     0.06739289    0.00010213    0.00654678
     atom   82 type  4   force =     0.00020020    0.00235594    0.00131653
     atom   83 type  4   force =    -0.03926370    0.13813644   -0.00232319
     atom   84 type  4   force =    -0.00190132   -0.01028178    0.00350714
     atom   85 type  3   force =     0.03857315   -0.12490744    0.02464298
     atom   86 type  3   force =    -0.06336258   -0.00162978   -0.00383132
     atom   87 type  3   force =    -0.04619606    0.12068541   -0.01052423
     atom   88 type  3   force =    -0.00013691    0.00107843    0.00301118
     atom   89 type  4   force =     0.00915229   -0.01462142   -0.00545776
     atom   90 type  4   force =    -0.00442788    0.00097920   -0.00088090
     atom   91 type  4   force =    -0.00950100    0.00839388    0.00549372
     atom   92 type  4   force =     0.00036951   -0.00031295    0.00028097
     atom   93 type  4   force =     0.00178485   -0.01119982   -0.00116895
     atom   94 type  4   force =    -0.00895782   -0.00306755    0.00832954
     atom   95 type  4   force =    -0.00029539    0.00779844    0.00303002
     atom   96 type  4   force =    -0.00126267    0.00133325   -0.00013417
     atom   97 type  4   force =    -0.00130608    0.00101154   -0.00037112
     atom   98 type  4   force =     0.04064119   -0.13906038    0.00485703
     atom   99 type  4   force =    -0.06700717   -0.00076646   -0.00567095
     atom  100 type  4   force =    -0.00041698    0.00288209    0.00290336
     atom  101 type  4   force =    -0.00137795    0.00002411    0.00136057
     atom  102 type  4   force =    -0.00676113    0.00550654    0.00157617
     atom  103 type  4   force =    -0.04004590    0.13584346   -0.00442331
     atom  104 type  4   force =    -0.00553113   -0.01001262    0.00487387
     atom  105 type  2   force =    -0.00043980    0.00015487   -0.00012477
     atom  106 type  1   force =     0.00002953   -0.00054447    0.00022366
     atom  107 type  1   force =     0.00005861   -0.00010169    0.00002295
     atom  108 type  1   force =     0.00031370    0.00072743   -0.00023647
     atom  109 type  1   force =    -0.00049730   -0.00005943    0.00004804
     atom  110 type  1   force =    -0.00013124   -0.00013417    0.00004980
     atom  111 type  1   force =    -0.00003034   -0.00002807    0.00005142
     atom  112 type  1   force =    -0.00020834   -0.00040352    0.00002618
     atom  113 type  1   force =    -0.00003134   -0.00005511   -0.00022887
     atom  114 type  1   force =    -0.00050110    0.00049699   -0.00013671
     atom  115 type  1   force =     0.00012528   -0.00001114   -0.00000544
     atom  116 type  1   force =    -0.00028397   -0.00035871    0.00016065
     atom  117 type  3   force =     0.00011612   -0.00025386   -0.00020746
     atom  118 type  3   force =     0.00022455   -0.00021750   -0.00005967
     atom  119 type  3   force =     0.00000446   -0.00007080   -0.00013997
     atom  120 type  3   force =    -0.00010219   -0.00036461   -0.00003986
     atom  121 type  4   force =     0.00028398    0.00008515   -0.00029154
     atom  122 type  4   force =    -0.00013154    0.00017100    0.00017676
     atom  123 type  4   force =     0.00018201   -0.00026198    0.00005593
     atom  124 type  4   force =    -0.00026598   -0.00025748    0.00010919
     atom  125 type  4   force =    -0.00006647   -0.00006101    0.00014884
     atom  126 type  4   force =    -0.00004651   -0.00036992    0.00003396
     atom  127 type  4   force =     0.00038332   -0.00013873   -0.00011436
     atom  128 type  4   force =    -0.00021048   -0.00035092    0.00009625
     atom  129 type  4   force =     0.00011112   -0.00023364   -0.00006982
     atom  130 type  4   force =    -0.00006861    0.00005234   -0.00010267
     atom  131 type  4   force =    -0.00052285   -0.00017098    0.00008994
     atom  132 type  4   force =     0.00003512   -0.00026536    0.00026292
     atom  133 type  4   force =    -0.00018142   -0.00029644    0.00010264
     atom  134 type  4   force =    -0.00031549   -0.00021967   -0.00002906
     atom  135 type  4   force =    -0.00065190   -0.00034019   -0.00032107
     atom  136 type  4   force =     0.00074210   -0.00014205   -0.00014218
     atom  137 type  3   force =     0.00024987   -0.00010267   -0.00021531
     atom  138 type  3   force =    -0.00020538   -0.00022246   -0.00010283
     atom  139 type  3   force =    -0.00007431    0.00003254    0.00006923
     atom  140 type  3   force =    -0.00052027   -0.00034265   -0.00045009
     atom  141 type  4   force =     0.00047709   -0.00041179    0.00006316
     atom  142 type  4   force =     0.00014011    0.00002567   -0.00006263
     atom  143 type  4   force =     0.00004153   -0.00012354    0.00033574
     atom  144 type  4   force =     0.00071277    0.00034230    0.00091927
     atom  145 type  4   force =    -0.00040862   -0.00021407   -0.00041537
     atom  146 type  4   force =    -0.00001466   -0.00025711   -0.00015220
     atom  147 type  4   force =     0.00044972    0.00001417   -0.00008767
     atom  148 type  4   force =    -0.00003167    0.00052345   -0.00008597
     atom  149 type  4   force =     0.00065022   -0.00023030   -0.00004092
     atom  150 type  4   force =     0.00029163    0.00005921    0.00011815
     atom  151 type  4   force =     0.00003427    0.00001084    0.00004875
     atom  152 type  4   force =     0.00026856   -0.00006652    0.00009930
     atom  153 type  4   force =    -0.00004583    0.00001102   -0.00029474
     atom  154 type  4   force =    -0.00020080   -0.00021990   -0.00004008
     atom  155 type  4   force =     0.00013273    0.00005578   -0.00006696
     atom  156 type  4   force =     0.00012931    0.00029663   -0.00040582
     atom  157 type  4   force =    -0.00997151    0.00672546    0.00411613
     atom  158 type  5   force =     0.01054470   -0.00625265   -0.00330845

     Total force =     0.665672     Total SCF correction =     0.002725
 
     init_run     :      7.50s CPU      8.23s WALL (       1 calls)
     electrons    :   1150.44s CPU   1207.43s WALL (       1 calls)
     forces       :      3.84s CPU      4.27s WALL (       1 calls)
     force_london :      0.10s CPU      0.10s WALL (       1 calls)

     Called by init_run:
     wfcinit      :      4.55s CPU      4.73s WALL (       1 calls)
     potinit      :      0.61s CPU      0.84s WALL (       1 calls)
     hinit0       :      1.15s CPU      1.25s WALL (       1 calls)

     Called by electrons:
     c_bands      :    906.36s CPU    935.62s WALL (      91 calls)
     sum_band     :    157.22s CPU    172.24s WALL (      91 calls)
     v_of_rho     :     16.36s CPU     17.55s WALL (      92 calls)
     newd         :     44.92s CPU     56.50s WALL (      92 calls)
     mix_rho      :     24.56s CPU     24.75s WALL (      91 calls)
     energy_londo :      0.09s CPU      0.09s WALL (       1 calls)

     Called by c_bands:
     init_us_2    :      3.10s CPU      3.17s WALL (     368 calls)
     init_us_2:cp :      3.09s CPU      3.16s WALL (     368 calls)
     regterg      :    886.94s CPU    915.94s WALL (     184 calls)

     Called by *egterg:
     rdiaghg      :    247.97s CPU    261.40s WALL (     672 calls)
     h_psi        :    351.66s CPU    358.83s WALL (     674 calls)
     s_psi        :     69.63s CPU     69.68s WALL (     674 calls)
     g_psi        :      0.47s CPU      0.48s WALL (     488 calls)

     Called by h_psi:
     h_psi:calbec :     92.34s CPU     98.50s WALL (     674 calls)
     vloc_psi     :    187.64s CPU    188.54s WALL (     674 calls)
     add_vuspsi   :     70.66s CPU     70.76s WALL (     674 calls)

     General routines
     calbec       :    137.55s CPU    146.50s WALL (     864 calls)
     fft          :     16.29s CPU     17.92s WALL (    1669 calls)
     ffts         :     14.46s CPU     14.52s WALL (   11345 calls)
     fftw         :    212.74s CPU    213.70s WALL (  305500 calls)
     interpolate  :      1.38s CPU      1.48s WALL (     184 calls)
 
     Parallel routines
 
     PWSCF        :  19m24.01s CPU  20m22.66s WALL

 
   This run was terminated on:  21:53: 5  19Nov2025            

=------------------------------------------------------------------------------=
   JOB DONE.
=------------------------------------------------------------------------------=
