
     Program PWSCF v.7.2 starts on 19Nov2025 at 21:16:13 

     This program is part of the open-source Quantum ESPRESSO suite
     for quantum simulation of materials; please cite
         "P. Giannozzi et al., J. Phys.:Condens. Matter 21 395502 (2009);
         "P. Giannozzi et al., J. Phys.:Condens. Matter 29 465901 (2017);
         "P. Giannozzi et al., J. Chem. Phys. 152 154105 (2020);
          URL http://www.quantum-espresso.org", 
     in publications or presentations arising from this work. More details at
     http://www.quantum-espresso.org/quote

     Parallel version (MPI), running on    64 processors

     MPI processes distributed on     4 nodes
     455145 MiB available memory on the printing compute node when the environment starts
 
     Reading input from PWINPUT_atm158_xp

     Current dimensions of program PWSCF are:
     Max number of different atomic species (ntypx) = 10
     Max number of k-points (npk) =  40000
     Max angular momentum in pseudopotentials (lmaxx) =  4
     Presently no symmetry can be used with electric field

     file Ni.pbe-n-rrkjus_psl.1.0.0.UPF: wavefunction(s)  3D renormalized
     file Mn.pbe-spn-rrkjus_psl.0.3.1.UPF: wavefunction(s)  3D renormalized
     file O.pbe-rrkjus.UPF: wavefunction(s)  2S renormalized
     file H.pbe-rrkjus.UPF: wavefunction(s)  1S renormalized

     gamma-point specific algorithms are used
 
     R & G space division:  proc/nbgrp/npool/nimage =      64
     Subspace diagonalization in iterative solution of the eigenvalue problem:
     one sub-group per band group will be used
     custom distributed-memory algorithm (size of sub-group:  6*  6 procs)

 
     Parallelization info
     --------------------
     sticks:   dense  smooth     PW     G-vecs:    dense   smooth      PW
     Min         208      82     20                59912    15118    1876
     Max         210      84     22                59974    15196    1926
     Sum       13399    5355   1345              3836275   970529  121367
 
     Using Slab Decomposition
 


     bravais-lattice index     =            0
     lattice parameter (alat)  =      17.7004  a.u.
     unit-cell volume          =   20319.7251 (a.u.)^3
     number of atoms/cell      =          158
     number of atomic types    =            5
     number of electrons       =      1078.00
     number of Kohn-Sham states=          647
     kinetic-energy cutoff     =      50.0000  Ry
     charge density cutoff     =     500.0000  Ry
     scf convergence threshold =      1.0E-06
     mixing beta               =       0.1000
     number of iterations used =            8  local-TF  mixing
     Exchange-correlation=  SLA  PW   PBE  PBE
                           (   1   4   3   4   0   0   0)

     celldm(1)=  17.700384  celldm(2)=   0.000000  celldm(3)=   0.000000
     celldm(4)=   0.000000  celldm(5)=   0.000000  celldm(6)=   0.000000

     crystal axes: (cart. coord. in units of alat)
               a(1) = (   1.000000   0.000000   0.000000 )  
               a(2) = (   0.000000   1.075730   0.000000 )  
               a(3) = (   0.000000   0.000000   3.406172 )  

     reciprocal axes: (cart. coord. in units 2 pi/alat)
               b(1) = (  1.000000  0.000000  0.000000 )  
               b(2) = (  0.000000  0.929602  0.000000 )  
               b(3) = (  0.000000  0.000000  0.293585 )  


     PseudoPot. # 1 for Ni read from file:
     ~/PSEUDO/Ni.pbe-n-rrkjus_psl.1.0.0.UPF
     MD5 check sum: Not computed, couldn't open file
     Pseudo is Ultrasoft + core correction, Zval = 10.0
     Generated using "atomic" code by A. Dal Corso  v.5.1.2
     Using radial grid of 1195 points,  6 beta functions with: 
                l(1) =   0
                l(2) =   0
                l(3) =   1
                l(4) =   1
                l(5) =   2
                l(6) =   2
     Q(r) pseudized with 0 coefficients 


     PseudoPot. # 2 for Mn read from file:
     ~/PSEUDO/Mn.pbe-spn-rrkjus_psl.0.3.1.UPF
     MD5 check sum: Not computed, couldn't open file
     Pseudo is Ultrasoft + core correction, Zval = 15.0
     Generated using &quot;atomic&quot; code by A. Dal Corso  v.6.2.2
     Using radial grid of 1187 points,  6 beta functions with: 
                l(1) =   0
                l(2) =   0
                l(3) =   1
                l(4) =   1
                l(5) =   2
                l(6) =   2
     Q(r) pseudized with 0 coefficients 


     PseudoPot. # 3 for P  read from file:
     ~/PSEUDO/P.pbe-n-rrkjus_psl.1.0.0.UPF
     MD5 check sum: Not computed, couldn't open file
     Pseudo is Ultrasoft + core correction, Zval =  5.0
     Generated using "atomic" code by A. Dal Corso  v.5.1
     Using radial grid of 1147 points,  6 beta functions with: 
                l(1) =   0
                l(2) =   0
                l(3) =   1
                l(4) =   1
                l(5) =   2
                l(6) =   2
     Q(r) pseudized with 0 coefficients 


     PseudoPot. # 4 for O  read from file:
     ~/PSEUDO/O.pbe-rrkjus.UPF
     MD5 check sum: Not computed, couldn't open file
     Pseudo is Ultrasoft, Zval =  6.0
     Generated by new atomic code, or converted to UPF format
     Using radial grid of 1269 points,  4 beta functions with: 
                l(1) =   0
                l(2) =   0
                l(3) =   1
                l(4) =   1
     Q(r) pseudized with 0 coefficients 


     PseudoPot. # 5 for H  read from file:
     ~/PSEUDO/H.pbe-rrkjus.UPF
     MD5 check sum: Not computed, couldn't open file
     Pseudo is Ultrasoft, Zval =  1.0
     Generated by new atomic code, or converted to UPF format
     Using radial grid of 1061 points,  2 beta functions with: 
                l(1) =   0
                l(2) =   0
     Q(r) pseudized with 0 coefficients 


     atomic species   valence    mass     pseudopotential
     Ni               10.00    58.69300     Ni( 1.00)
     Mn               15.00    54.93800     Mn( 1.00)
     P                 5.00    30.97300     P ( 1.00)
     O                 6.00    15.99900     O ( 1.00)
     H                 1.00     1.00790     H ( 1.00)

     Starting magnetic structure 
     atomic species   magnetization
     Ni              1.000
     Mn              1.000
     P               1.000
     O               1.000
     H               0.000

     No symmetry found



   Cartesian axes

     site n.     atom                  positions (alat units)
         1        Mn     tau(   1) = (   0.2404744   0.8371250   0.1168501  )
         2        Ni     tau(   2) = (   0.4968126   0.7726670   0.4415546  )
         3        Ni     tau(   3) = (   0.0066150   0.2936743   0.1241053  )
         4        Ni     tau(   4) = (   0.2585722   0.2355858   0.4448848  )
         5        Ni     tau(   5) = (   0.9987350   1.0696411   0.2854926  )
         6        Ni     tau(   6) = (   0.2517397   0.5330511   0.2829322  )
         7        Ni     tau(   7) = (   0.7451645   0.8337543   0.1221751  )
         8        Ni     tau(   8) = (   0.9939181   0.7738804   0.4407595  )
         9        Ni     tau(   9) = (   0.5111533   0.2924088   0.1251865  )
        10        Ni     tau(  10) = (   0.7606326   0.2319267   0.4451372  )
        11        Ni     tau(  11) = (   0.5024065   1.0688133   0.2870502  )
        12        Ni     tau(  12) = (   0.7529977   0.5317900   0.2845227  )
        13        P      tau(  13) = (   0.2092944   0.9731097   0.4345035  )
        14        P      tau(  14) = (   0.4655727   0.6359535   0.1274635  )
        15        P      tau(  15) = (   0.2910699   0.1027363   0.1296098  )
        16        P      tau(  16) = (   0.0396216   0.4288395   0.4398838  )
        17        O      tau(  17) = (   0.1294378   0.9013260   0.3010618  )
        18        O      tau(  18) = (   0.3874505   0.7054774   0.2637003  )
        19        O      tau(  19) = (   0.3702540   0.1714799   0.2660028  )
        20        O      tau(  20) = (   0.1184398   0.3582958   0.3038353  )
        21        O      tau(  21) = (   0.1451572   0.8850881   0.5587578  )
        22        O      tau(  22) = (   0.4048762   0.7245585   0.0017492  )
        23        O      tau(  23) = (   0.3523506   0.1900579   0.0035744  )
        24        O      tau(  24) = (   0.1017610   0.3410484   0.5656572  )
        25        O      tau(  25) = (   0.0975396   0.5849288   0.4357922  )
        26        O      tau(  26) = (   0.3483552   1.0314945   0.1270322  )
        27        O      tau(  27) = (   0.3784305   0.4225118   0.4308928  )
        28        O      tau(  28) = (   0.1268237   0.1067944   0.1392744  )
        29        O      tau(  29) = (   0.1212267   0.6424170   0.1362896  )
        30        O      tau(  30) = (   0.4053315   0.4809387   0.1300622  )
        31        O      tau(  31) = (   0.1536621   0.0446918   0.4373386  )
        32        O      tau(  32) = (   0.3732349   0.9631717   0.4256642  )
        33        P      tau(  33) = (   0.7119823   0.9695974   0.4373010  )
        34        P      tau(  34) = (   0.9615208   0.6363392   0.1262932  )
        35        P      tau(  35) = (   0.7927710   0.0970060   0.1292164  )
        36        P      tau(  36) = (   0.5426404   0.4269675   0.4410738  )
        37        O      tau(  37) = (   0.6326879   0.8991182   0.3013240  )
        38        O      tau(  38) = (   0.8842163   0.7083206   0.2625155  )
        39        O      tau(  39) = (   0.8716178   0.1677751   0.2653504  )
        40        O      tau(  40) = (   0.6212010   0.3558666   0.3051085  )
        41        O      tau(  41) = (   0.6507714   0.8812342   0.5631722  )
        42        O      tau(  42) = (   0.9014054   0.7264458   0.0010676  )
        43        O      tau(  43) = (   0.8548963   0.1847909   0.0035471  )
        44        O      tau(  44) = (   0.6044469   0.3378706   0.5660366  )
        45        O      tau(  45) = (   0.6024424   0.5823140   0.4379016  )
        46        O      tau(  46) = (   0.8498940   1.0254482   0.1275156  )
        47        O      tau(  47) = (   0.8798395   0.4205825   0.4305771  )
        48        O      tau(  48) = (   0.6286921   0.1034636   0.1397346  )
        49        O      tau(  49) = (   0.6294973   0.6427753   0.1372553  )
        50        O      tau(  50) = (   0.9024339   0.4810312   0.1296418  )
        51        O      tau(  51) = (   0.6547812   0.0410987   0.4396636  )
        52        O      tau(  52) = (   0.8760507   0.9632605   0.4264507  )
        53        Mn     tau(  53) = (   0.2404744   0.8246335   0.7367378  )
        54        Ni     tau(  54) = (   0.4968126   0.7601755   1.0614423  )
        55        Ni     tau(  55) = (   0.0066150   0.2811828   0.7439929  )
        56        Ni     tau(  56) = (   0.2585722   0.2230943   1.0647725  )
        57        Ni     tau(  57) = (   0.9987350   1.0571496   0.9053803  )
        58        Ni     tau(  58) = (   0.2517397   0.5205596   0.9028199  )
        59        Ni     tau(  59) = (   0.7451645   0.8212628   0.7420628  )
        60        Ni     tau(  60) = (   0.9939181   0.7613889   1.0606471  )
        61        Ni     tau(  61) = (   0.5111533   0.2799173   0.7450742  )
        62        Ni     tau(  62) = (   0.7606326   0.2194352   1.0650249  )
        63        Ni     tau(  63) = (   0.5024065   1.0563218   0.9069379  )
        64        Ni     tau(  64) = (   0.7529977   0.5192985   0.9044104  )
        65        P      tau(  65) = (   0.2092944   0.9606182   1.0543912  )
        66        P      tau(  66) = (   0.4655727   0.6234620   0.7473512  )
        67        P      tau(  67) = (   0.2910699   0.0902448   0.7494974  )
        68        P      tau(  68) = (   0.0396216   0.4163480   1.0597715  )
        69        O      tau(  69) = (   0.1294378   0.8888345   0.9209495  )
        70        O      tau(  70) = (   0.3874505   0.6929859   0.8835880  )
        71        O      tau(  71) = (   0.3702540   0.1589885   0.8858904  )
        72        O      tau(  72) = (   0.1184398   0.3458043   0.9237230  )
        73        O      tau(  73) = (   0.1451572   0.8725966   1.1786454  )
        74        O      tau(  74) = (   0.4048762   0.7120670   0.6216369  )
        75        O      tau(  75) = (   0.3523506   0.1775664   0.6234620  )
        76        O      tau(  76) = (   0.1017610   0.3285569   1.1855448  )
        77        O      tau(  77) = (   0.0975396   0.5724373   1.0556799  )
        78        O      tau(  78) = (   0.3483552   1.0190030   0.7469198  )
        79        O      tau(  79) = (   0.3784305   0.4100203   1.0507804  )
        80        O      tau(  80) = (   0.1268237   0.0943029   0.7591620  )
        81        O      tau(  81) = (   0.1212267   0.6299255   0.7561772  )
        82        O      tau(  82) = (   0.4053315   0.4684472   0.7499499  )
        83        O      tau(  83) = (   0.1536621   0.0322003   1.0572263  )
        84        O      tau(  84) = (   0.3732349   0.9506802   1.0455518  )
        85        P      tau(  85) = (   0.7119823   0.9571059   1.0571887  )
        86        P      tau(  86) = (   0.9615208   0.6238477   0.7461808  )
        87        P      tau(  87) = (   0.7927710   0.0845145   0.7491041  )
        88        P      tau(  88) = (   0.5426404   0.4144760   1.0609615  )
        89        O      tau(  89) = (   0.6326879   0.8866267   0.9212117  )
        90        O      tau(  90) = (   0.8842163   0.6958291   0.8824032  )
        91        O      tau(  91) = (   0.8716178   0.1552836   0.8852381  )
        92        O      tau(  92) = (   0.6212010   0.3433751   0.9249961  )
        93        O      tau(  93) = (   0.6507714   0.8687427   1.1830599  )
        94        O      tau(  94) = (   0.9014054   0.7139543   0.6209553  )
        95        O      tau(  95) = (   0.8548963   0.1722994   0.6234348  )
        96        O      tau(  96) = (   0.6044469   0.3253792   1.1859242  )
        97        O      tau(  97) = (   0.6024424   0.5698225   1.0577892  )
        98        O      tau(  98) = (   0.8498940   1.0129567   0.7474033  )
        99        O      tau(  99) = (   0.8798395   0.4080910   1.0504647  )
       100        O      tau( 100) = (   0.6286921   0.0909721   0.7596222  )
       101        O      tau( 101) = (   0.6294973   0.6302838   0.7571429  )
       102        O      tau( 102) = (   0.9024339   0.4685397   0.7495295  )
       103        O      tau( 103) = (   0.6547812   0.0286072   1.0595512  )
       104        O      tau( 104) = (   0.8760507   0.9507690   1.0463383  )
       105        Mn     tau( 105) = (   0.2364458   0.8094794   1.3653459  )
       106        Ni     tau( 106) = (   0.4907942   0.7363522   1.7049996  )
       107        Ni     tau( 107) = (   0.0093952   0.2680398   1.3698569  )
       108        Ni     tau( 108) = (   0.2497295   0.2108424   1.6761145  )
       109        Ni     tau( 109) = (   1.0036298   1.0443547   1.5337867  )
       110        Ni     tau( 110) = (   0.2508731   0.5072093   1.5337250  )
       111        Ni     tau( 111) = (   0.7430527   0.8053936   1.3670713  )
       112        Ni     tau( 112) = (   1.0004343   0.7470669   1.6781949  )
       113        Ni     tau( 113) = (   0.5111923   0.2663270   1.3700523  )
       114        Ni     tau( 114) = (   0.7492854   0.2057646   1.6748146  )
       115        Ni     tau( 115) = (   0.5041086   1.0410710   1.5344479  )
       116        Ni     tau( 116) = (   0.7475733   0.5047540   1.5316464  )
       117        P      tau( 117) = (   0.2133552   0.9392292   1.6984504  )
       118        P      tau( 118) = (   0.4634655   0.6097679   1.3737019  )
       119        P      tau( 119) = (   0.2926447   0.0743533   1.3725526  )
       120        P      tau( 120) = (   0.0367365   0.3974952   1.6921475  )
       121        O      tau( 121) = (   0.1371062   0.8722393   1.5551977  )
       122        O      tau( 122) = (   0.3876369   0.6802541   1.5098871  )
       123        O      tau( 123) = (   0.3711295   0.1420780   1.5089708  )
       124        O      tau( 124) = (   0.1160403   0.3372838   1.5462681  )
       125        O      tau( 125) = (   0.1492652   0.8455602   1.8156300  )
       126        O      tau( 126) = (   0.4032581   0.6987394   1.2472428  )
       127        O      tau( 127) = (   0.3539738   0.1604313   1.2459115  )
       128        O      tau( 128) = (   0.0992937   0.3009536   1.8068009  )
       129        O      tau( 129) = (   0.0909237   0.5559234   1.6906175  )
       130        O      tau( 130) = (   0.3495909   0.9934160   1.3761257  )
       131        O      tau( 131) = (   0.3736946   0.3887924   1.6741111  )
       132        O      tau( 132) = (   0.1287801   0.0799213   1.3839567  )
       133        O      tau( 133) = (   0.1223930   0.6189353   1.3829709  )
       134        O      tau( 134) = (   0.4027999   0.4547621   1.3753464  )
       135        O      tau( 135) = (   0.1562549   0.0204997   1.6913958  )
       136        O      tau( 136) = (   0.3777647   0.9340275   1.6841911  )
       137        P      tau( 137) = (   0.7135711   0.9304873   1.6870697  )
       138        P      tau( 138) = (   0.9579050   0.6098693   1.3704654  )
       139        P      tau( 139) = (   0.7935730   0.0700637   1.3709798  )
       140        P      tau( 140) = (   0.5382788   0.3921678   1.6921168  )
       141        O      tau( 141) = (   0.6368445   0.8715343   1.5433244  )
       142        O      tau( 142) = (   0.8818270   0.6814858   1.5066133  )
       143        O      tau( 143) = (   0.8713193   0.1417772   1.5072868  )
       144        O      tau( 144) = (   0.6174579   0.3303663   1.5458240  )
       145        O      tau( 145) = (   0.6552232   0.8337369   1.8043110  )
       146        O      tau( 146) = (   0.8989657   0.6978510   1.2434901  )
       147        O      tau( 147) = (   0.8552504   0.1586671   1.2456065  )
       148        O      tau( 148) = (   0.5963858   0.2917729   1.8058571  )
       149        O      tau( 149) = (   0.5989840   0.5475310   1.6881864  )
       150        O      tau( 150) = (   0.8545284   0.9913153   1.3740611  )
       151        O      tau( 151) = (   0.8720431   0.3904281   1.6773436  )
       152        O      tau( 152) = (   0.6296650   0.0761030   1.3824892  )
       153        O      tau( 153) = (   0.6276372   0.6149600   1.3818254  )
       154        O      tau( 154) = (   0.9002664   0.4546242   1.3744661  )
       155        O      tau( 155) = (   0.6584351   0.0133671   1.6886222  )
       156        O      tau( 156) = (   0.8793773   0.9284013   1.6770673  )
       157        O      tau( 157) = (   0.3761800   0.6543040   1.8384848  )
       158        H      tau( 158) = (   0.2935271   0.7142463   1.8633046  )

     -------------------------------------------------
     Parameters for Dispersion (Grimme-D2) Correction:
     -------------------------------------------------
       atom      VdW radius       C_6     

        Ni         2.952        374.666
        Mn         2.952        374.666
        P          3.222        271.980
        O          2.536         24.284
        H          1.892          4.857

     number of k points=     1  Gaussian smearing, width (Ry)=  0.0100
                       cart. coord. in units 2pi/alat
        k(    1) = (   0.0000000   0.0000000   0.0000000), wk =   1.0000000

     Dense  grid:  1918138 G-vectors     FFT dimensions: ( 125, 135, 432)

     Smooth grid:   485265 G-vectors     FFT dimensions: (  80,  90, 288)

     Estimated max dynamical RAM per process >     320.12 MB

     Estimated total dynamical RAM >      20.01 GB
     Generating pointlists ...
     new r_m :   0.0801 (alat units)  1.4174 (a.u.) for type    1
     new r_m :   0.0869 (alat units)  1.5388 (a.u.) for type    2
     new r_m :   0.0650 (alat units)  1.1499 (a.u.) for type    3
     new r_m :   0.0433 (alat units)  0.7672 (a.u.) for type    4
     new r_m :   0.0433 (alat units)  0.7672 (a.u.) for type    5

     Initial potential from superposition of free atoms

     starting charge    1077.8900, renormalised to    1078.0000

     negative rho (up, down):  1.237E-03 4.573E-04
 
     Adding external electric field

     Computed dipole along edir(3) : 
        Dipole                1.6221 Ry au,          4.1229 Debye
        Dipole field          0.0010 Ry au, 
 
        Potential amp.       -0.1089 Ry
        Total length         54.2615 bohr
 
 
     Adding external electric field

     Computed dipole along edir(3) : 
        Dipole                1.6221 Ry au,          4.1229 Debye
        Dipole field          0.0010 Ry au, 
 
        Potential amp.       -0.1089 Ry
        Total length         54.2615 bohr
 
     Starting wfcs are  812 randomized atomic wfcs

     total cpu time spent up to now is       12.2 secs

     Self-consistent Calculation

     iteration #  1     ecut=    50.00 Ry     beta= 0.10
     Davidson diagonalization with overlap
     ethr =  1.00E-02,  avg # of iterations =  6.0

     negative rho (up, down):  3.486E-01 4.490E-06
 
     Adding external electric field

     Computed dipole along edir(3) : 
        Dipole               -3.3380 Ry au,         -8.4843 Debye
        Dipole field         -0.0021 Ry au, 
 
        Potential amp.        0.2240 Ry
        Total length         54.2615 bohr
 
 
     Adding external electric field

     Computed dipole along edir(3) : 
        Dipole               -3.3380 Ry au,         -8.4843 Debye
        Dipole field         -0.0021 Ry au, 
 
        Potential amp.        0.2240 Ry
        Total length         54.2615 bohr
 

     total cpu time spent up to now is       54.6 secs

     total energy              =   -7180.18409134 Ry
     estimated scf accuracy    <     753.72191520 Ry

     total magnetization       =   216.00 Bohr mag/cell
     absolute magnetization    =   297.25 Bohr mag/cell

     iteration #  2     ecut=    50.00 Ry     beta= 0.10
     Davidson diagonalization with overlap
     ethr =  1.00E-02,  avg # of iterations =  2.0

     negative rho (up, down):  3.221E-01 4.155E-06
 
     Adding external electric field

     Computed dipole along edir(3) : 
        Dipole               -2.4060 Ry au,         -6.1155 Debye
        Dipole field         -0.0015 Ry au, 
 
        Potential amp.        0.1615 Ry
        Total length         54.2615 bohr
 
 
     Adding external electric field

     Computed dipole along edir(3) : 
        Dipole               -2.4060 Ry au,         -6.1155 Debye
        Dipole field         -0.0015 Ry au, 
 
        Potential amp.        0.1615 Ry
        Total length         54.2615 bohr
 

     total cpu time spent up to now is       77.0 secs

     total energy              =   -7264.23301679 Ry
     estimated scf accuracy    <     167.88864895 Ry

     total magnetization       =   145.51 Bohr mag/cell
     absolute magnetization    =   197.12 Bohr mag/cell

     iteration #  3     ecut=    50.00 Ry     beta= 0.10
     Davidson diagonalization with overlap
     ethr =  1.00E-02,  avg # of iterations =  1.5

     negative rho (up, down):  2.795E-01 3.868E-06
 
     Adding external electric field

     Computed dipole along edir(3) : 
        Dipole               -1.9623 Ry au,         -4.9876 Debye
        Dipole field         -0.0012 Ry au, 
 
        Potential amp.        0.1317 Ry
        Total length         54.2615 bohr
 
 
     Adding external electric field

     Computed dipole along edir(3) : 
        Dipole               -1.9623 Ry au,         -4.9876 Debye
        Dipole field         -0.0012 Ry au, 
 
        Potential amp.        0.1317 Ry
        Total length         54.2615 bohr
 

     total cpu time spent up to now is       93.0 secs

     total energy              =   -7297.18966073 Ry
     estimated scf accuracy    <      98.31941184 Ry

     total magnetization       =   122.64 Bohr mag/cell
     absolute magnetization    =   177.20 Bohr mag/cell

     iteration #  4     ecut=    50.00 Ry     beta= 0.10
     Davidson diagonalization with overlap
     ethr =  9.12E-03,  avg # of iterations =  1.5

     negative rho (up, down):  2.056E-01 5.728E-07
 
     Adding external electric field

     Computed dipole along edir(3) : 
        Dipole               -1.9484 Ry au,         -4.9524 Debye
        Dipole field         -0.0012 Ry au, 
 
        Potential amp.        0.1308 Ry
        Total length         54.2615 bohr
 
 
     Adding external electric field

     Computed dipole along edir(3) : 
        Dipole               -1.9484 Ry au,         -4.9524 Debye
        Dipole field         -0.0012 Ry au, 
 
        Potential amp.        0.1308 Ry
        Total length         54.2615 bohr
 

     total cpu time spent up to now is      105.6 secs

     total energy              =   -7330.92325864 Ry
     estimated scf accuracy    <      76.41594309 Ry

     total magnetization       =   106.36 Bohr mag/cell
     absolute magnetization    =   162.20 Bohr mag/cell

     iteration #  5     ecut=    50.00 Ry     beta= 0.10
     Davidson diagonalization with overlap
     ethr =  7.09E-03,  avg # of iterations =  1.5

     negative rho (up, down):  3.580E-03 7.695E-08
 
     Adding external electric field

     Computed dipole along edir(3) : 
        Dipole               -1.3475 Ry au,         -3.4249 Debye
        Dipole field         -0.0008 Ry au, 
 
        Potential amp.        0.0904 Ry
        Total length         54.2615 bohr
 
 
     Adding external electric field

     Computed dipole along edir(3) : 
        Dipole               -1.3475 Ry au,         -3.4249 Debye
        Dipole field         -0.0008 Ry au, 
 
        Potential amp.        0.0904 Ry
        Total length         54.2615 bohr
 

     total cpu time spent up to now is      120.0 secs

     total energy              =   -7388.23733063 Ry
     estimated scf accuracy    <      58.37866121 Ry

     total magnetization       =    88.00 Bohr mag/cell
     absolute magnetization    =   144.46 Bohr mag/cell

     iteration #  6     ecut=    50.00 Ry     beta= 0.10
     Davidson diagonalization with overlap
     ethr =  5.42E-03,  avg # of iterations =  1.5

     negative rho (up, down):  4.406E-05 8.608E-05
 
     Adding external electric field

     Computed dipole along edir(3) : 
        Dipole               -1.0121 Ry au,         -2.5725 Debye
        Dipole field         -0.0006 Ry au, 
 
        Potential amp.        0.0679 Ry
        Total length         54.2615 bohr
 
 
     Adding external electric field

     Computed dipole along edir(3) : 
        Dipole               -1.0121 Ry au,         -2.5725 Debye
        Dipole field         -0.0006 Ry au, 
 
        Potential amp.        0.0679 Ry
        Total length         54.2615 bohr
 

     total cpu time spent up to now is      135.0 secs

     total energy              =   -7395.79364700 Ry
     estimated scf accuracy    <       8.46505830 Ry

     total magnetization       =    80.54 Bohr mag/cell
     absolute magnetization    =   112.21 Bohr mag/cell

     iteration #  7     ecut=    50.00 Ry     beta= 0.10
     Davidson diagonalization with overlap
     ethr =  7.85E-04,  avg # of iterations =  6.5

     negative rho (up, down):  4.752E-05 8.226E-05
 
     Adding external electric field

     Computed dipole along edir(3) : 
        Dipole               -1.0219 Ry au,         -2.5973 Debye
        Dipole field         -0.0006 Ry au, 
 
        Potential amp.        0.0686 Ry
        Total length         54.2615 bohr
 
 
     Adding external electric field

     Computed dipole along edir(3) : 
        Dipole               -1.0219 Ry au,         -2.5973 Debye
        Dipole field         -0.0006 Ry au, 
 
        Potential amp.        0.0686 Ry
        Total length         54.2615 bohr
 

     total cpu time spent up to now is      163.5 secs

     total energy              =   -7397.61420039 Ry
     estimated scf accuracy    <       9.74886892 Ry

     total magnetization       =    71.89 Bohr mag/cell
     absolute magnetization    =    89.23 Bohr mag/cell

     iteration #  8     ecut=    50.00 Ry     beta= 0.10
     Davidson diagonalization with overlap
     ethr =  7.85E-04,  avg # of iterations =  1.0

     negative rho (up, down):  2.613E-05 5.641E-05
 
     Adding external electric field

     Computed dipole along edir(3) : 
        Dipole               -0.9274 Ry au,         -2.3571 Debye
        Dipole field         -0.0006 Ry au, 
 
        Potential amp.        0.0622 Ry
        Total length         54.2615 bohr
 
 
     Adding external electric field

     Computed dipole along edir(3) : 
        Dipole               -0.9274 Ry au,         -2.3571 Debye
        Dipole field         -0.0006 Ry au, 
 
        Potential amp.        0.0622 Ry
        Total length         54.2615 bohr
 

     total cpu time spent up to now is      175.4 secs

     total energy              =   -7397.52165884 Ry
     estimated scf accuracy    <      10.59498706 Ry

     total magnetization       =    71.60 Bohr mag/cell
     absolute magnetization    =    88.74 Bohr mag/cell

     iteration #  9     ecut=    50.00 Ry     beta= 0.10
     Davidson diagonalization with overlap
     ethr =  7.85E-04,  avg # of iterations =  1.0

     negative rho (up, down):  1.346E-05 4.856E-05
 
     Adding external electric field

     Computed dipole along edir(3) : 
        Dipole               -0.8700 Ry au,         -2.2113 Debye
        Dipole field         -0.0005 Ry au, 
 
        Potential amp.        0.0584 Ry
        Total length         54.2615 bohr
 
 
     Adding external electric field

     Computed dipole along edir(3) : 
        Dipole               -0.8700 Ry au,         -2.2113 Debye
        Dipole field         -0.0005 Ry au, 
 
        Potential amp.        0.0584 Ry
        Total length         54.2615 bohr
 

     total cpu time spent up to now is      187.6 secs

     total energy              =   -7397.45639438 Ry
     estimated scf accuracy    <       6.97725291 Ry

     total magnetization       =    72.69 Bohr mag/cell
     absolute magnetization    =    88.44 Bohr mag/cell

     iteration # 10     ecut=    50.00 Ry     beta= 0.10
     Davidson diagonalization with overlap
     ethr =  6.47E-04,  avg # of iterations =  1.5

     negative rho (up, down):  1.781E-05 6.522E-05
 
     Adding external electric field

     Computed dipole along edir(3) : 
        Dipole               -0.9641 Ry au,         -2.4504 Debye
        Dipole field         -0.0006 Ry au, 
 
        Potential amp.        0.0647 Ry
        Total length         54.2615 bohr
 
 
     Adding external electric field

     Computed dipole along edir(3) : 
        Dipole               -0.9641 Ry au,         -2.4504 Debye
        Dipole field         -0.0006 Ry au, 
 
        Potential amp.        0.0647 Ry
        Total length         54.2615 bohr
 

     total cpu time spent up to now is      200.4 secs

     total energy              =   -7397.57559647 Ry
     estimated scf accuracy    <       3.90094307 Ry

     total magnetization       =    77.04 Bohr mag/cell
     absolute magnetization    =    89.91 Bohr mag/cell

     iteration # 11     ecut=    50.00 Ry     beta= 0.10
     Davidson diagonalization with overlap
     ethr =  3.62E-04,  avg # of iterations =  1.5

     negative rho (up, down):  1.765E-05 9.361E-05
 
     Adding external electric field

     Computed dipole along edir(3) : 
        Dipole               -1.0601 Ry au,         -2.6944 Debye
        Dipole field         -0.0007 Ry au, 
 
        Potential amp.        0.0711 Ry
        Total length         54.2615 bohr
 
 
     Adding external electric field

     Computed dipole along edir(3) : 
        Dipole               -1.0601 Ry au,         -2.6944 Debye
        Dipole field         -0.0007 Ry au, 
 
        Potential amp.        0.0711 Ry
        Total length         54.2615 bohr
 

     total cpu time spent up to now is      214.0 secs

     total energy              =   -7397.64657417 Ry
     estimated scf accuracy    <       1.92343961 Ry

     total magnetization       =    77.47 Bohr mag/cell
     absolute magnetization    =    89.59 Bohr mag/cell

     iteration # 12     ecut=    50.00 Ry     beta= 0.10
     Davidson diagonalization with overlap
     ethr =  1.78E-04,  avg # of iterations = 11.5

     negative rho (up, down):  1.247E-05 6.232E-05
 
     Adding external electric field

     Computed dipole along edir(3) : 
        Dipole               -1.0539 Ry au,         -2.6788 Debye
        Dipole field         -0.0007 Ry au, 
 
        Potential amp.        0.0707 Ry
        Total length         54.2615 bohr
 
 
     Adding external electric field

     Computed dipole along edir(3) : 
        Dipole               -1.0539 Ry au,         -2.6788 Debye
        Dipole field         -0.0007 Ry au, 
 
        Potential amp.        0.0707 Ry
        Total length         54.2615 bohr
 

     total cpu time spent up to now is      241.1 secs

     total energy              =   -7397.78503745 Ry
     estimated scf accuracy    <       0.56753754 Ry

     total magnetization       =    79.45 Bohr mag/cell
     absolute magnetization    =    89.28 Bohr mag/cell

     iteration # 13     ecut=    50.00 Ry     beta= 0.10
     Davidson diagonalization with overlap
     ethr =  5.26E-05,  avg # of iterations =  2.0

     negative rho (up, down):  8.977E-07 1.647E-05
 
     Adding external electric field

     Computed dipole along edir(3) : 
        Dipole               -0.9121 Ry au,         -2.3184 Debye
        Dipole field         -0.0006 Ry au, 
 
        Potential amp.        0.0612 Ry
        Total length         54.2615 bohr
 
 
     Adding external electric field

     Computed dipole along edir(3) : 
        Dipole               -0.9121 Ry au,         -2.3184 Debye
        Dipole field         -0.0006 Ry au, 
 
        Potential amp.        0.0612 Ry
        Total length         54.2615 bohr
 

     total cpu time spent up to now is      254.2 secs

     total energy              =   -7397.88894272 Ry
     estimated scf accuracy    <       0.56829759 Ry

     total magnetization       =    81.42 Bohr mag/cell
     absolute magnetization    =    89.32 Bohr mag/cell

     iteration # 14     ecut=    50.00 Ry     beta= 0.10
     Davidson diagonalization with overlap
     ethr =  5.26E-05,  avg # of iterations =  1.5

     negative rho (up, down):  1.618E-08 1.210E-06
 
     Adding external electric field

     Computed dipole along edir(3) : 
        Dipole               -0.8538 Ry au,         -2.1702 Debye
        Dipole field         -0.0005 Ry au, 
 
        Potential amp.        0.0573 Ry
        Total length         54.2615 bohr
 
 
     Adding external electric field

     Computed dipole along edir(3) : 
        Dipole               -0.8538 Ry au,         -2.1702 Debye
        Dipole field         -0.0005 Ry au, 
 
        Potential amp.        0.0573 Ry
        Total length         54.2615 bohr
 

     total cpu time spent up to now is      267.1 secs

     total energy              =   -7398.00160714 Ry
     estimated scf accuracy    <       0.90004001 Ry

     total magnetization       =    79.83 Bohr mag/cell
     absolute magnetization    =    85.70 Bohr mag/cell

     iteration # 15     ecut=    50.00 Ry     beta= 0.10
     Davidson diagonalization with overlap
     ethr =  5.26E-05,  avg # of iterations =  2.0

     negative rho (up, down):  4.261E-10 3.715E-06
 
     Adding external electric field

     Computed dipole along edir(3) : 
        Dipole               -0.8850 Ry au,         -2.2493 Debye
        Dipole field         -0.0005 Ry au, 
 
        Potential amp.        0.0594 Ry
        Total length         54.2615 bohr
 
 
     Adding external electric field

     Computed dipole along edir(3) : 
        Dipole               -0.8850 Ry au,         -2.2493 Debye
        Dipole field         -0.0005 Ry au, 
 
        Potential amp.        0.0594 Ry
        Total length         54.2615 bohr
 

     total cpu time spent up to now is      280.0 secs

     total energy              =   -7398.02665092 Ry
     estimated scf accuracy    <       1.05048630 Ry

     total magnetization       =    79.57 Bohr mag/cell
     absolute magnetization    =    83.51 Bohr mag/cell

     iteration # 16     ecut=    50.00 Ry     beta= 0.10
     Davidson diagonalization with overlap
     ethr =  5.26E-05,  avg # of iterations =  1.5

     negative rho (up, down):  9.002E-07 5.716E-05
 
     Adding external electric field

     Computed dipole along edir(3) : 
        Dipole               -0.9284 Ry au,         -2.3598 Debye
        Dipole field         -0.0006 Ry au, 
 
        Potential amp.        0.0623 Ry
        Total length         54.2615 bohr
 
 
     Adding external electric field

     Computed dipole along edir(3) : 
        Dipole               -0.9284 Ry au,         -2.3598 Debye
        Dipole field         -0.0006 Ry au, 
 
        Potential amp.        0.0623 Ry
        Total length         54.2615 bohr
 

     total cpu time spent up to now is      292.1 secs

     total energy              =   -7398.03027713 Ry
     estimated scf accuracy    <       0.68763531 Ry

     total magnetization       =    79.76 Bohr mag/cell
     absolute magnetization    =    82.71 Bohr mag/cell

     iteration # 17     ecut=    50.00 Ry     beta= 0.10
     Davidson diagonalization with overlap
     ethr =  5.26E-05,  avg # of iterations =  1.5

     negative rho (up, down):  7.562E-06 3.829E-05
 
     Adding external electric field

     Computed dipole along edir(3) : 
        Dipole               -0.9471 Ry au,         -2.4072 Debye
        Dipole field         -0.0006 Ry au, 
 
        Potential amp.        0.0636 Ry
        Total length         54.2615 bohr
 
 
     Adding external electric field

     Computed dipole along edir(3) : 
        Dipole               -0.9471 Ry au,         -2.4072 Debye
        Dipole field         -0.0006 Ry au, 
 
        Potential amp.        0.0636 Ry
        Total length         54.2615 bohr
 

     total cpu time spent up to now is      304.3 secs

     total energy              =   -7398.03876594 Ry
     estimated scf accuracy    <       0.18494585 Ry

     total magnetization       =    80.78 Bohr mag/cell
     absolute magnetization    =    82.92 Bohr mag/cell

     iteration # 18     ecut=    50.00 Ry     beta= 0.10
     Davidson diagonalization with overlap
     ethr =  1.72E-05,  avg # of iterations =  2.0

     negative rho (up, down):  5.867E-06 6.429E-06
 
     Adding external electric field

     Computed dipole along edir(3) : 
        Dipole               -0.9298 Ry au,         -2.3632 Debye
        Dipole field         -0.0006 Ry au, 
 
        Potential amp.        0.0624 Ry
        Total length         54.2615 bohr
 
 
     Adding external electric field

     Computed dipole along edir(3) : 
        Dipole               -0.9298 Ry au,         -2.3632 Debye
        Dipole field         -0.0006 Ry au, 
 
        Potential amp.        0.0624 Ry
        Total length         54.2615 bohr
 

     total cpu time spent up to now is      317.5 secs

     total energy              =   -7398.03630344 Ry
     estimated scf accuracy    <       0.08033466 Ry

     total magnetization       =    80.95 Bohr mag/cell
     absolute magnetization    =    82.69 Bohr mag/cell

     iteration # 19     ecut=    50.00 Ry     beta= 0.10
     Davidson diagonalization with overlap
     c_bands:  1 eigenvalues not converged
     ethr =  7.45E-06,  avg # of iterations = 19.5

     negative rho (up, down):  1.744E-06 1.191E-06
 
     Adding external electric field

     Computed dipole along edir(3) : 
        Dipole               -0.8725 Ry au,         -2.2177 Debye
        Dipole field         -0.0005 Ry au, 
 
        Potential amp.        0.0586 Ry
        Total length         54.2615 bohr
 
 
     Adding external electric field

     Computed dipole along edir(3) : 
        Dipole               -0.8725 Ry au,         -2.2177 Debye
        Dipole field         -0.0005 Ry au, 
 
        Potential amp.        0.0586 Ry
        Total length         54.2615 bohr
 

     total cpu time spent up to now is      351.1 secs

     total energy              =   -7398.03870183 Ry
     estimated scf accuracy    <       0.04514928 Ry

     total magnetization       =    80.35 Bohr mag/cell
     absolute magnetization    =    81.89 Bohr mag/cell

     iteration # 20     ecut=    50.00 Ry     beta= 0.10
     Davidson diagonalization with overlap
     ethr =  4.19E-06,  avg # of iterations =  2.0

     negative rho (up, down):  1.840E-06 4.074E-07
 
     Adding external electric field

     Computed dipole along edir(3) : 
        Dipole               -0.8641 Ry au,         -2.1964 Debye
        Dipole field         -0.0005 Ry au, 
 
        Potential amp.        0.0580 Ry
        Total length         54.2615 bohr
 
 
     Adding external electric field

     Computed dipole along edir(3) : 
        Dipole               -0.8641 Ry au,         -2.1964 Debye
        Dipole field         -0.0005 Ry au, 
 
        Potential amp.        0.0580 Ry
        Total length         54.2615 bohr
 

     total cpu time spent up to now is      364.1 secs

     total energy              =   -7398.03912888 Ry
     estimated scf accuracy    <       0.04881366 Ry

     total magnetization       =    80.76 Bohr mag/cell
     absolute magnetization    =    82.23 Bohr mag/cell

     iteration # 21     ecut=    50.00 Ry     beta= 0.10
     Davidson diagonalization with overlap
     ethr =  4.19E-06,  avg # of iterations =  1.0

     negative rho (up, down):  1.333E-06 9.591E-08
 
     Adding external electric field

     Computed dipole along edir(3) : 
        Dipole               -0.8597 Ry au,         -2.1852 Debye
        Dipole field         -0.0005 Ry au, 
 
        Potential amp.        0.0577 Ry
        Total length         54.2615 bohr
 
 
     Adding external electric field

     Computed dipole along edir(3) : 
        Dipole               -0.8597 Ry au,         -2.1852 Debye
        Dipole field         -0.0005 Ry au, 
 
        Potential amp.        0.0577 Ry
        Total length         54.2615 bohr
 

     total cpu time spent up to now is      375.1 secs

     total energy              =   -7398.03836977 Ry
     estimated scf accuracy    <       0.03009418 Ry

     total magnetization       =    80.62 Bohr mag/cell
     absolute magnetization    =    82.08 Bohr mag/cell

     iteration # 22     ecut=    50.00 Ry     beta= 0.10
     Davidson diagonalization with overlap
     ethr =  2.79E-06,  avg # of iterations =  1.0

     negative rho (up, down):  6.838E-07 1.898E-08
 
     Adding external electric field

     Computed dipole along edir(3) : 
        Dipole               -0.8258 Ry au,         -2.0990 Debye
        Dipole field         -0.0005 Ry au, 
 
        Potential amp.        0.0554 Ry
        Total length         54.2615 bohr
 
 
     Adding external electric field

     Computed dipole along edir(3) : 
        Dipole               -0.8258 Ry au,         -2.0990 Debye
        Dipole field         -0.0005 Ry au, 
 
        Potential amp.        0.0554 Ry
        Total length         54.2615 bohr
 

     total cpu time spent up to now is      386.2 secs

     total energy              =   -7398.03782290 Ry
     estimated scf accuracy    <       0.02267211 Ry

     total magnetization       =    80.46 Bohr mag/cell
     absolute magnetization    =    81.97 Bohr mag/cell

     iteration # 23     ecut=    50.00 Ry     beta= 0.10
     Davidson diagonalization with overlap
     ethr =  2.10E-06,  avg # of iterations =  1.0

     negative rho (up, down):  8.417E-07 4.955E-08
 
     Adding external electric field

     Computed dipole along edir(3) : 
        Dipole               -0.8274 Ry au,         -2.1030 Debye
        Dipole field         -0.0005 Ry au, 
 
        Potential amp.        0.0555 Ry
        Total length         54.2615 bohr
 
 
     Adding external electric field

     Computed dipole along edir(3) : 
        Dipole               -0.8274 Ry au,         -2.1030 Debye
        Dipole field         -0.0005 Ry au, 
 
        Potential amp.        0.0555 Ry
        Total length         54.2615 bohr
 

     total cpu time spent up to now is      397.2 secs

     total energy              =   -7398.03852245 Ry
     estimated scf accuracy    <       0.04258541 Ry

     total magnetization       =    80.57 Bohr mag/cell
     absolute magnetization    =    82.11 Bohr mag/cell

     iteration # 24     ecut=    50.00 Ry     beta= 0.10
     Davidson diagonalization with overlap
     ethr =  2.10E-06,  avg # of iterations =  1.0

     negative rho (up, down):  9.884E-07 2.972E-08
 
     Adding external electric field

     Computed dipole along edir(3) : 
        Dipole               -0.8274 Ry au,         -2.1030 Debye
        Dipole field         -0.0005 Ry au, 
 
        Potential amp.        0.0555 Ry
        Total length         54.2615 bohr
 
 
     Adding external electric field

     Computed dipole along edir(3) : 
        Dipole               -0.8274 Ry au,         -2.1030 Debye
        Dipole field         -0.0005 Ry au, 
 
        Potential amp.        0.0555 Ry
        Total length         54.2615 bohr
 

     total cpu time spent up to now is      408.6 secs

     total energy              =   -7398.03810586 Ry
     estimated scf accuracy    <       0.03559320 Ry

     total magnetization       =    80.53 Bohr mag/cell
     absolute magnetization    =    82.08 Bohr mag/cell

     iteration # 25     ecut=    50.00 Ry     beta= 0.10
     Davidson diagonalization with overlap
     ethr =  2.10E-06,  avg # of iterations =  1.0

     negative rho (up, down):  2.053E-06 1.289E-07
 
     Adding external electric field

     Computed dipole along edir(3) : 
        Dipole               -0.8404 Ry au,         -2.1361 Debye
        Dipole field         -0.0005 Ry au, 
 
        Potential amp.        0.0564 Ry
        Total length         54.2615 bohr
 
 
     Adding external electric field

     Computed dipole along edir(3) : 
        Dipole               -0.8404 Ry au,         -2.1361 Debye
        Dipole field         -0.0005 Ry au, 
 
        Potential amp.        0.0564 Ry
        Total length         54.2615 bohr
 

     total cpu time spent up to now is      420.3 secs

     total energy              =   -7398.03821442 Ry
     estimated scf accuracy    <       0.03684911 Ry

     total magnetization       =    80.44 Bohr mag/cell
     absolute magnetization    =    81.96 Bohr mag/cell

     iteration # 26     ecut=    50.00 Ry     beta= 0.10
     Davidson diagonalization with overlap
     ethr =  2.10E-06,  avg # of iterations =  1.0

     negative rho (up, down):  1.027E-05 4.091E-06
 
     Adding external electric field

     Computed dipole along edir(3) : 
        Dipole               -0.6979 Ry au,         -1.7739 Debye
        Dipole field         -0.0004 Ry au, 
 
        Potential amp.        0.0468 Ry
        Total length         54.2615 bohr
 
 
     Adding external electric field

     Computed dipole along edir(3) : 
        Dipole               -0.6979 Ry au,         -1.7739 Debye
        Dipole field         -0.0004 Ry au, 
 
        Potential amp.        0.0468 Ry
        Total length         54.2615 bohr
 

     total cpu time spent up to now is      431.1 secs

     total energy              =   -7398.03713908 Ry
     estimated scf accuracy    <       0.02130545 Ry

     total magnetization       =    80.45 Bohr mag/cell
     absolute magnetization    =    81.95 Bohr mag/cell

     iteration # 27     ecut=    50.00 Ry     beta= 0.10
     Davidson diagonalization with overlap
     ethr =  1.98E-06,  avg # of iterations =  2.5

     negative rho (up, down):  1.652E-05 8.978E-06
 
     Adding external electric field

     Computed dipole along edir(3) : 
        Dipole               -0.6421 Ry au,         -1.6320 Debye
        Dipole field         -0.0004 Ry au, 
 
        Potential amp.        0.0431 Ry
        Total length         54.2615 bohr
 
 
     Adding external electric field

     Computed dipole along edir(3) : 
        Dipole               -0.6421 Ry au,         -1.6320 Debye
        Dipole field         -0.0004 Ry au, 
 
        Potential amp.        0.0431 Ry
        Total length         54.2615 bohr
 

     total cpu time spent up to now is      445.6 secs

     total energy              =   -7398.03774034 Ry
     estimated scf accuracy    <       0.01802190 Ry

     total magnetization       =    80.45 Bohr mag/cell
     absolute magnetization    =    82.02 Bohr mag/cell

     iteration # 28     ecut=    50.00 Ry     beta= 0.10
     Davidson diagonalization with overlap
     ethr =  1.67E-06,  avg # of iterations =  1.5

     negative rho (up, down):  2.124E-05 1.082E-05
 
     Adding external electric field

     Computed dipole along edir(3) : 
        Dipole               -0.6194 Ry au,         -1.5745 Debye
        Dipole field         -0.0004 Ry au, 
 
        Potential amp.        0.0416 Ry
        Total length         54.2615 bohr
 
 
     Adding external electric field

     Computed dipole along edir(3) : 
        Dipole               -0.6194 Ry au,         -1.5745 Debye
        Dipole field         -0.0004 Ry au, 
 
        Potential amp.        0.0416 Ry
        Total length         54.2615 bohr
 

     total cpu time spent up to now is      458.5 secs

     total energy              =   -7398.03766004 Ry
     estimated scf accuracy    <       0.02049422 Ry

     total magnetization       =    80.46 Bohr mag/cell
     absolute magnetization    =    82.03 Bohr mag/cell

     iteration # 29     ecut=    50.00 Ry     beta= 0.10
     Davidson diagonalization with overlap
     ethr =  1.67E-06,  avg # of iterations =  1.0

     negative rho (up, down):  3.410E-05 1.672E-05
 
     Adding external electric field

     Computed dipole along edir(3) : 
        Dipole               -0.5949 Ry au,         -1.5122 Debye
        Dipole field         -0.0004 Ry au, 
 
        Potential amp.        0.0399 Ry
        Total length         54.2615 bohr
 
 
     Adding external electric field

     Computed dipole along edir(3) : 
        Dipole               -0.5949 Ry au,         -1.5122 Debye
        Dipole field         -0.0004 Ry au, 
 
        Potential amp.        0.0399 Ry
        Total length         54.2615 bohr
 

     total cpu time spent up to now is      469.9 secs

     total energy              =   -7398.03743440 Ry
     estimated scf accuracy    <       0.02344384 Ry

     total magnetization       =    80.44 Bohr mag/cell
     absolute magnetization    =    82.02 Bohr mag/cell

     iteration # 30     ecut=    50.00 Ry     beta= 0.10
     Davidson diagonalization with overlap
     ethr =  1.67E-06,  avg # of iterations =  1.5

     negative rho (up, down):  3.731E-05 2.064E-05
 
     Adding external electric field

     Computed dipole along edir(3) : 
        Dipole               -0.5908 Ry au,         -1.5016 Debye
        Dipole field         -0.0004 Ry au, 
 
        Potential amp.        0.0396 Ry
        Total length         54.2615 bohr
 
 
     Adding external electric field

     Computed dipole along edir(3) : 
        Dipole               -0.5908 Ry au,         -1.5016 Debye
        Dipole field         -0.0004 Ry au, 
 
        Potential amp.        0.0396 Ry
        Total length         54.2615 bohr
 

     total cpu time spent up to now is      481.6 secs

     total energy              =   -7398.03751082 Ry
     estimated scf accuracy    <       0.02406512 Ry

     total magnetization       =    80.45 Bohr mag/cell
     absolute magnetization    =    82.05 Bohr mag/cell

     iteration # 31     ecut=    50.00 Ry     beta= 0.10
     Davidson diagonalization with overlap
     ethr =  1.67E-06,  avg # of iterations =  1.5

     negative rho (up, down):  3.642E-05 1.992E-05
 
     Adding external electric field

     Computed dipole along edir(3) : 
        Dipole               -0.5898 Ry au,         -1.4992 Debye
        Dipole field         -0.0004 Ry au, 
 
        Potential amp.        0.0396 Ry
        Total length         54.2615 bohr
 
 
     Adding external electric field

     Computed dipole along edir(3) : 
        Dipole               -0.5898 Ry au,         -1.4992 Debye
        Dipole field         -0.0004 Ry au, 
 
        Potential amp.        0.0396 Ry
        Total length         54.2615 bohr
 

     total cpu time spent up to now is      494.5 secs

     total energy              =   -7398.03754584 Ry
     estimated scf accuracy    <       0.02268829 Ry

     total magnetization       =    80.45 Bohr mag/cell
     absolute magnetization    =    82.07 Bohr mag/cell

     iteration # 32     ecut=    50.00 Ry     beta= 0.10
     Davidson diagonalization with overlap
     ethr =  1.67E-06,  avg # of iterations =  1.5

     negative rho (up, down):  3.626E-05 2.357E-05
 
     Adding external electric field

     Computed dipole along edir(3) : 
        Dipole               -0.5866 Ry au,         -1.4911 Debye
        Dipole field         -0.0004 Ry au, 
 
        Potential amp.        0.0394 Ry
        Total length         54.2615 bohr
 
 
     Adding external electric field

     Computed dipole along edir(3) : 
        Dipole               -0.5866 Ry au,         -1.4911 Debye
        Dipole field         -0.0004 Ry au, 
 
        Potential amp.        0.0394 Ry
        Total length         54.2615 bohr
 

     total cpu time spent up to now is      506.5 secs

     total energy              =   -7398.03780784 Ry
     estimated scf accuracy    <       0.02322827 Ry

     total magnetization       =    80.45 Bohr mag/cell
     absolute magnetization    =    82.07 Bohr mag/cell

     iteration # 33     ecut=    50.00 Ry     beta= 0.10
     Davidson diagonalization with overlap
     ethr =  1.67E-06,  avg # of iterations =  1.5

     negative rho (up, down):  3.291E-05 2.281E-05
 
     Adding external electric field

     Computed dipole along edir(3) : 
        Dipole               -0.5888 Ry au,         -1.4967 Debye
        Dipole field         -0.0004 Ry au, 
 
        Potential amp.        0.0395 Ry
        Total length         54.2615 bohr
 
 
     Adding external electric field

     Computed dipole along edir(3) : 
        Dipole               -0.5888 Ry au,         -1.4967 Debye
        Dipole field         -0.0004 Ry au, 
 
        Potential amp.        0.0395 Ry
        Total length         54.2615 bohr
 

     total cpu time spent up to now is      518.4 secs

     total energy              =   -7398.03786812 Ry
     estimated scf accuracy    <       0.02231246 Ry

     total magnetization       =    80.44 Bohr mag/cell
     absolute magnetization    =    82.00 Bohr mag/cell

     iteration # 34     ecut=    50.00 Ry     beta= 0.10
     Davidson diagonalization with overlap
     ethr =  1.67E-06,  avg # of iterations =  1.0

     negative rho (up, down):  1.456E-05 8.553E-06
 
     Adding external electric field

     Computed dipole along edir(3) : 
        Dipole               -0.6471 Ry au,         -1.6448 Debye
        Dipole field         -0.0004 Ry au, 
 
        Potential amp.        0.0434 Ry
        Total length         54.2615 bohr
 
 
     Adding external electric field

     Computed dipole along edir(3) : 
        Dipole               -0.6471 Ry au,         -1.6448 Debye
        Dipole field         -0.0004 Ry au, 
 
        Potential amp.        0.0434 Ry
        Total length         54.2615 bohr
 

     total cpu time spent up to now is      530.7 secs

     total energy              =   -7398.03818583 Ry
     estimated scf accuracy    <       0.02273397 Ry

     total magnetization       =    80.44 Bohr mag/cell
     absolute magnetization    =    82.03 Bohr mag/cell

     iteration # 35     ecut=    50.00 Ry     beta= 0.10
     Davidson diagonalization with overlap
     ethr =  1.67E-06,  avg # of iterations =  1.5

     negative rho (up, down):  1.221E-04 9.685E-05
 
     Adding external electric field

     Computed dipole along edir(3) : 
        Dipole               -0.5194 Ry au,         -1.3201 Debye
        Dipole field         -0.0003 Ry au, 
 
        Potential amp.        0.0349 Ry
        Total length         54.2615 bohr
 
 
     Adding external electric field

     Computed dipole along edir(3) : 
        Dipole               -0.5194 Ry au,         -1.3201 Debye
        Dipole field         -0.0003 Ry au, 
 
        Potential amp.        0.0349 Ry
        Total length         54.2615 bohr
 

     total cpu time spent up to now is      543.3 secs

     total energy              =   -7398.03736653 Ry
     estimated scf accuracy    <       0.02131865 Ry

     total magnetization       =    80.46 Bohr mag/cell
     absolute magnetization    =    82.03 Bohr mag/cell

     iteration # 36     ecut=    50.00 Ry     beta= 0.10
     Davidson diagonalization with overlap
     ethr =  1.67E-06,  avg # of iterations =  2.0

     negative rho (up, down):  2.773E-04 2.710E-04
 
     Adding external electric field

     Computed dipole along edir(3) : 
        Dipole               -0.4697 Ry au,         -1.1940 Debye
        Dipole field         -0.0003 Ry au, 
 
        Potential amp.        0.0315 Ry
        Total length         54.2615 bohr
 
 
     Adding external electric field

     Computed dipole along edir(3) : 
        Dipole               -0.4697 Ry au,         -1.1940 Debye
        Dipole field         -0.0003 Ry au, 
 
        Potential amp.        0.0315 Ry
        Total length         54.2615 bohr
 

     total cpu time spent up to now is      556.0 secs

     total energy              =   -7398.03705758 Ry
     estimated scf accuracy    <       0.02066254 Ry

     total magnetization       =    80.41 Bohr mag/cell
     absolute magnetization    =    81.98 Bohr mag/cell

     iteration # 37     ecut=    50.00 Ry     beta= 0.10
     Davidson diagonalization with overlap
     ethr =  1.67E-06,  avg # of iterations =  2.0

     negative rho (up, down):  5.656E-04 5.630E-04
 
     Adding external electric field

     Computed dipole along edir(3) : 
        Dipole               -0.4071 Ry au,         -1.0346 Debye
        Dipole field         -0.0003 Ry au, 
 
        Potential amp.        0.0273 Ry
        Total length         54.2615 bohr
 
 
     Adding external electric field

     Computed dipole along edir(3) : 
        Dipole               -0.4071 Ry au,         -1.0346 Debye
        Dipole field         -0.0003 Ry au, 
 
        Potential amp.        0.0273 Ry
        Total length         54.2615 bohr
 

     total cpu time spent up to now is      568.4 secs

     total energy              =   -7398.03672993 Ry
     estimated scf accuracy    <       0.01852118 Ry

     total magnetization       =    80.40 Bohr mag/cell
     absolute magnetization    =    81.96 Bohr mag/cell

     iteration # 38     ecut=    50.00 Ry     beta= 0.10
     Davidson diagonalization with overlap
     ethr =  1.67E-06,  avg # of iterations =  2.0

     negative rho (up, down):  1.883E-03 1.800E-03
 
     Adding external electric field

     Computed dipole along edir(3) : 
        Dipole               -0.2433 Ry au,         -0.6185 Debye
        Dipole field         -0.0002 Ry au, 
 
        Potential amp.        0.0163 Ry
        Total length         54.2615 bohr
 
 
     Adding external electric field

     Computed dipole along edir(3) : 
        Dipole               -0.2433 Ry au,         -0.6185 Debye
        Dipole field         -0.0002 Ry au, 
 
        Potential amp.        0.0163 Ry
        Total length         54.2615 bohr
 

     total cpu time spent up to now is      581.6 secs

     total energy              =   -7398.03611783 Ry
     estimated scf accuracy    <       0.01655342 Ry

     total magnetization       =    80.42 Bohr mag/cell
     absolute magnetization    =    81.97 Bohr mag/cell

     iteration # 39     ecut=    50.00 Ry     beta= 0.10
     Davidson diagonalization with overlap
     c_bands:  2 eigenvalues not converged
     ethr =  1.54E-06,  avg # of iterations = 14.0

     negative rho (up, down):  1.961E-03 1.894E-03
 
     Adding external electric field

     Computed dipole along edir(3) : 
        Dipole               -0.2471 Ry au,         -0.6281 Debye
        Dipole field         -0.0002 Ry au, 
 
        Potential amp.        0.0166 Ry
        Total length         54.2615 bohr
 
 
     Adding external electric field

     Computed dipole along edir(3) : 
        Dipole               -0.2471 Ry au,         -0.6281 Debye
        Dipole field         -0.0002 Ry au, 
 
        Potential amp.        0.0166 Ry
        Total length         54.2615 bohr
 

     total cpu time spent up to now is      601.5 secs

     total energy              =   -7398.03623474 Ry
     estimated scf accuracy    <       0.01445595 Ry

     total magnetization       =    80.42 Bohr mag/cell
     absolute magnetization    =    82.01 Bohr mag/cell

     iteration # 40     ecut=    50.00 Ry     beta= 0.10
     Davidson diagonalization with overlap
     ethr =  1.34E-06,  avg # of iterations =  1.5

     negative rho (up, down):  1.764E-03 1.617E-03
 
     Adding external electric field

     Computed dipole along edir(3) : 
        Dipole               -0.2370 Ry au,         -0.6024 Debye
        Dipole field         -0.0001 Ry au, 
 
        Potential amp.        0.0159 Ry
        Total length         54.2615 bohr
 
 
     Adding external electric field

     Computed dipole along edir(3) : 
        Dipole               -0.2370 Ry au,         -0.6024 Debye
        Dipole field         -0.0001 Ry au, 
 
        Potential amp.        0.0159 Ry
        Total length         54.2615 bohr
 

     total cpu time spent up to now is      613.2 secs

     total energy              =   -7398.03617061 Ry
     estimated scf accuracy    <       0.01450879 Ry

     total magnetization       =    80.43 Bohr mag/cell
     absolute magnetization    =    82.02 Bohr mag/cell

     iteration # 41     ecut=    50.00 Ry     beta= 0.10
     Davidson diagonalization with overlap
     ethr =  1.34E-06,  avg # of iterations =  1.5

     negative rho (up, down):  1.704E-03 1.442E-03
 
     Adding external electric field

     Computed dipole along edir(3) : 
        Dipole               -0.2338 Ry au,         -0.5944 Debye
        Dipole field         -0.0001 Ry au, 
 
        Potential amp.        0.0157 Ry
        Total length         54.2615 bohr
 
 
     Adding external electric field

     Computed dipole along edir(3) : 
        Dipole               -0.2338 Ry au,         -0.5944 Debye
        Dipole field         -0.0001 Ry au, 
 
        Potential amp.        0.0157 Ry
        Total length         54.2615 bohr
 

     total cpu time spent up to now is      626.0 secs

     total energy              =   -7398.03598574 Ry
     estimated scf accuracy    <       0.01432143 Ry

     total magnetization       =    80.42 Bohr mag/cell
     absolute magnetization    =    81.99 Bohr mag/cell

     iteration # 42     ecut=    50.00 Ry     beta= 0.10
     Davidson diagonalization with overlap
     ethr =  1.33E-06,  avg # of iterations =  1.0

     negative rho (up, down):  2.549E-03 2.050E-03
 
     Adding external electric field

     Computed dipole along edir(3) : 
        Dipole               -0.1927 Ry au,         -0.4897 Debye
        Dipole field         -0.0001 Ry au, 
 
        Potential amp.        0.0129 Ry
        Total length         54.2615 bohr
 
 
     Adding external electric field

     Computed dipole along edir(3) : 
        Dipole               -0.1927 Ry au,         -0.4897 Debye
        Dipole field         -0.0001 Ry au, 
 
        Potential amp.        0.0129 Ry
        Total length         54.2615 bohr
 

     total cpu time spent up to now is      638.0 secs

     total energy              =   -7398.03543045 Ry
     estimated scf accuracy    <       0.01396771 Ry

     total magnetization       =    80.44 Bohr mag/cell
     absolute magnetization    =    82.01 Bohr mag/cell

     iteration # 43     ecut=    50.00 Ry     beta= 0.10
     Davidson diagonalization with overlap
     ethr =  1.30E-06,  avg # of iterations =  1.5

     negative rho (up, down):  2.075E-03 1.791E-03
 
     Adding external electric field

     Computed dipole along edir(3) : 
        Dipole               -0.1900 Ry au,         -0.4830 Debye
        Dipole field         -0.0001 Ry au, 
 
        Potential amp.        0.0128 Ry
        Total length         54.2615 bohr
 
 
     Adding external electric field

     Computed dipole along edir(3) : 
        Dipole               -0.1900 Ry au,         -0.4830 Debye
        Dipole field         -0.0001 Ry au, 
 
        Potential amp.        0.0128 Ry
        Total length         54.2615 bohr
 

     total cpu time spent up to now is      650.7 secs

     total energy              =   -7398.03576577 Ry
     estimated scf accuracy    <       0.01428725 Ry

     total magnetization       =    80.46 Bohr mag/cell
     absolute magnetization    =    81.96 Bohr mag/cell

     iteration # 44     ecut=    50.00 Ry     beta= 0.10
     Davidson diagonalization with overlap
     ethr =  1.30E-06,  avg # of iterations =  1.0

     negative rho (up, down):  3.792E-03 3.448E-03
 
     Adding external electric field

     Computed dipole along edir(3) : 
        Dipole               -0.1134 Ry au,         -0.2882 Debye
        Dipole field         -0.0001 Ry au, 
 
        Potential amp.        0.0076 Ry
        Total length         54.2615 bohr
 
 
     Adding external electric field

     Computed dipole along edir(3) : 
        Dipole               -0.1134 Ry au,         -0.2882 Debye
        Dipole field         -0.0001 Ry au, 
 
        Potential amp.        0.0076 Ry
        Total length         54.2615 bohr
 

     total cpu time spent up to now is      662.5 secs

     total energy              =   -7398.03596076 Ry
     estimated scf accuracy    <       0.01345390 Ry

     total magnetization       =    80.47 Bohr mag/cell
     absolute magnetization    =    82.04 Bohr mag/cell

     iteration # 45     ecut=    50.00 Ry     beta= 0.10
     Davidson diagonalization with overlap
     ethr =  1.25E-06,  avg # of iterations =  2.0

     negative rho (up, down):  3.744E-03 3.396E-03
 
     Adding external electric field

     Computed dipole along edir(3) : 
        Dipole               -0.1156 Ry au,         -0.2938 Debye
        Dipole field         -0.0001 Ry au, 
 
        Potential amp.        0.0078 Ry
        Total length         54.2615 bohr
 
 
     Adding external electric field

     Computed dipole along edir(3) : 
        Dipole               -0.1156 Ry au,         -0.2938 Debye
        Dipole field         -0.0001 Ry au, 
 
        Potential amp.        0.0078 Ry
        Total length         54.2615 bohr
 

     total cpu time spent up to now is      676.6 secs

     total energy              =   -7398.03597938 Ry
     estimated scf accuracy    <       0.01326695 Ry

     total magnetization       =    80.46 Bohr mag/cell
     absolute magnetization    =    82.07 Bohr mag/cell

     iteration # 46     ecut=    50.00 Ry     beta= 0.10
     Davidson diagonalization with overlap
     ethr =  1.23E-06,  avg # of iterations =  1.0

     negative rho (up, down):  1.763E-03 1.726E-03
 
     Adding external electric field

     Computed dipole along edir(3) : 
        Dipole               -0.1445 Ry au,         -0.3674 Debye
        Dipole field         -0.0001 Ry au, 
 
        Potential amp.        0.0097 Ry
        Total length         54.2615 bohr
 
 
     Adding external electric field

     Computed dipole along edir(3) : 
        Dipole               -0.1445 Ry au,         -0.3674 Debye
        Dipole field         -0.0001 Ry au, 
 
        Potential amp.        0.0097 Ry
        Total length         54.2615 bohr
 

     total cpu time spent up to now is      688.7 secs

     total energy              =   -7398.03622929 Ry
     estimated scf accuracy    <       0.01340042 Ry

     total magnetization       =    80.46 Bohr mag/cell
     absolute magnetization    =    82.07 Bohr mag/cell

     iteration # 47     ecut=    50.00 Ry     beta= 0.10
     Davidson diagonalization with overlap
     ethr =  1.23E-06,  avg # of iterations =  1.5

     negative rho (up, down):  1.037E-03 1.052E-03
 
     Adding external electric field

     Computed dipole along edir(3) : 
        Dipole               -0.1613 Ry au,         -0.4100 Debye
        Dipole field         -0.0001 Ry au, 
 
        Potential amp.        0.0108 Ry
        Total length         54.2615 bohr
 
 
     Adding external electric field

     Computed dipole along edir(3) : 
        Dipole               -0.1613 Ry au,         -0.4100 Debye
        Dipole field         -0.0001 Ry au, 
 
        Potential amp.        0.0108 Ry
        Total length         54.2615 bohr
 

     total cpu time spent up to now is      702.4 secs

     total energy              =   -7398.03623527 Ry
     estimated scf accuracy    <       0.01199827 Ry

     total magnetization       =    80.44 Bohr mag/cell
     absolute magnetization    =    82.02 Bohr mag/cell

     iteration # 48     ecut=    50.00 Ry     beta= 0.10
     Davidson diagonalization with overlap
     ethr =  1.11E-06,  avg # of iterations =  1.5

     negative rho (up, down):  9.962E-04 1.013E-03
 
     Adding external electric field

     Computed dipole along edir(3) : 
        Dipole               -0.1506 Ry au,         -0.3827 Debye
        Dipole field         -0.0001 Ry au, 
 
        Potential amp.        0.0101 Ry
        Total length         54.2615 bohr
 
 
     Adding external electric field

     Computed dipole along edir(3) : 
        Dipole               -0.1506 Ry au,         -0.3827 Debye
        Dipole field         -0.0001 Ry au, 
 
        Potential amp.        0.0101 Ry
        Total length         54.2615 bohr
 

     total cpu time spent up to now is      715.1 secs

     total energy              =   -7398.03623092 Ry
     estimated scf accuracy    <       0.01117849 Ry

     total magnetization       =    80.43 Bohr mag/cell
     absolute magnetization    =    81.96 Bohr mag/cell

     iteration # 49     ecut=    50.00 Ry     beta= 0.10
     Davidson diagonalization with overlap
     ethr =  1.04E-06,  avg # of iterations =  1.5

     negative rho (up, down):  1.588E-03 1.572E-03
 
     Adding external electric field

     Computed dipole along edir(3) : 
        Dipole               -0.1102 Ry au,         -0.2800 Debye
        Dipole field         -0.0001 Ry au, 
 
        Potential amp.        0.0074 Ry
        Total length         54.2615 bohr
 
 
     Adding external electric field

     Computed dipole along edir(3) : 
        Dipole               -0.1102 Ry au,         -0.2800 Debye
        Dipole field         -0.0001 Ry au, 
 
        Potential amp.        0.0074 Ry
        Total length         54.2615 bohr
 

     total cpu time spent up to now is      727.1 secs

     total energy              =   -7398.03624934 Ry
     estimated scf accuracy    <       0.01044931 Ry

     total magnetization       =    80.41 Bohr mag/cell
     absolute magnetization    =    81.96 Bohr mag/cell

     iteration # 50     ecut=    50.00 Ry     beta= 0.10
     Davidson diagonalization with overlap
     ethr =  9.69E-07,  avg # of iterations =  2.0

     negative rho (up, down):  5.255E-03 5.692E-03
 
     Adding external electric field

     Computed dipole along edir(3) : 
        Dipole               -0.0230 Ry au,         -0.0583 Debye
        Dipole field         -0.0000 Ry au, 
 
        Potential amp.        0.0015 Ry
        Total length         54.2615 bohr
 
 
     Adding external electric field

     Computed dipole along edir(3) : 
        Dipole               -0.0230 Ry au,         -0.0583 Debye
        Dipole field         -0.0000 Ry au, 
 
        Potential amp.        0.0015 Ry
        Total length         54.2615 bohr
 

     total cpu time spent up to now is      740.2 secs

     total energy              =   -7398.03556088 Ry
     estimated scf accuracy    <       0.00861788 Ry

     total magnetization       =    80.41 Bohr mag/cell
     absolute magnetization    =    81.95 Bohr mag/cell

     iteration # 51     ecut=    50.00 Ry     beta= 0.10
     Davidson diagonalization with overlap
     c_bands:  4 eigenvalues not converged
     ethr =  7.99E-07,  avg # of iterations = 12.0

     negative rho (up, down):  6.184E-03 6.699E-03
 
     Adding external electric field

     Computed dipole along edir(3) : 
        Dipole               -0.0152 Ry au,         -0.0385 Debye
        Dipole field         -0.0000 Ry au, 
 
        Potential amp.        0.0010 Ry
        Total length         54.2615 bohr
 
 
     Adding external electric field

     Computed dipole along edir(3) : 
        Dipole               -0.0152 Ry au,         -0.0385 Debye
        Dipole field         -0.0000 Ry au, 
 
        Potential amp.        0.0010 Ry
        Total length         54.2615 bohr
 

     total cpu time spent up to now is      758.6 secs

     total energy              =   -7398.03577848 Ry
     estimated scf accuracy    <       0.00303516 Ry

     total magnetization       =    80.44 Bohr mag/cell
     absolute magnetization    =    81.97 Bohr mag/cell

     iteration # 52     ecut=    50.00 Ry     beta= 0.10
     Davidson diagonalization with overlap
     ethr =  2.82E-07,  avg # of iterations =  2.0

     negative rho (up, down):  4.782E-03 4.807E-03
 
     Adding external electric field

     Computed dipole along edir(3) : 
        Dipole               -0.0523 Ry au,         -0.1330 Debye
        Dipole field         -0.0000 Ry au, 
 
        Potential amp.        0.0035 Ry
        Total length         54.2615 bohr
 
 
     Adding external electric field

     Computed dipole along edir(3) : 
        Dipole               -0.0523 Ry au,         -0.1330 Debye
        Dipole field         -0.0000 Ry au, 
 
        Potential amp.        0.0035 Ry
        Total length         54.2615 bohr
 

     total cpu time spent up to now is      770.9 secs

     total energy              =   -7398.03585804 Ry
     estimated scf accuracy    <       0.00228366 Ry

     total magnetization       =    80.44 Bohr mag/cell
     absolute magnetization    =    81.95 Bohr mag/cell

     iteration # 53     ecut=    50.00 Ry     beta= 0.10
     Davidson diagonalization with overlap
     ethr =  2.12E-07,  avg # of iterations =  8.0

     negative rho (up, down):  1.971E-03 1.546E-03
 
     Adding external electric field

     Computed dipole along edir(3) : 
        Dipole               -0.0978 Ry au,         -0.2486 Debye
        Dipole field         -0.0001 Ry au, 
 
        Potential amp.        0.0066 Ry
        Total length         54.2615 bohr
 
 
     Adding external electric field

     Computed dipole along edir(3) : 
        Dipole               -0.0978 Ry au,         -0.2486 Debye
        Dipole field         -0.0001 Ry au, 
 
        Potential amp.        0.0066 Ry
        Total length         54.2615 bohr
 

     total cpu time spent up to now is      786.4 secs

     total energy              =   -7398.03586258 Ry
     estimated scf accuracy    <       0.00086683 Ry

     total magnetization       =    80.46 Bohr mag/cell
     absolute magnetization    =    81.97 Bohr mag/cell

     iteration # 54     ecut=    50.00 Ry     beta= 0.10
     Davidson diagonalization with overlap
     ethr =  8.04E-08,  avg # of iterations =  2.0

     negative rho (up, down):  4.341E-04 2.591E-04
 
     Adding external electric field

     Computed dipole along edir(3) : 
        Dipole               -0.1301 Ry au,         -0.3308 Debye
        Dipole field         -0.0001 Ry au, 
 
        Potential amp.        0.0087 Ry
        Total length         54.2615 bohr
 
 
     Adding external electric field

     Computed dipole along edir(3) : 
        Dipole               -0.1301 Ry au,         -0.3308 Debye
        Dipole field         -0.0001 Ry au, 
 
        Potential amp.        0.0087 Ry
        Total length         54.2615 bohr
 

     total cpu time spent up to now is      799.3 secs

     total energy              =   -7398.03586511 Ry
     estimated scf accuracy    <       0.00037848 Ry

     total magnetization       =    80.46 Bohr mag/cell
     absolute magnetization    =    81.99 Bohr mag/cell

     iteration # 55     ecut=    50.00 Ry     beta= 0.10
     Davidson diagonalization with overlap
     ethr =  3.51E-08,  avg # of iterations =  2.0

     negative rho (up, down):  9.162E-05 5.036E-05
 
     Adding external electric field

     Computed dipole along edir(3) : 
        Dipole               -0.1606 Ry au,         -0.4081 Debye
        Dipole field         -0.0001 Ry au, 
 
        Potential amp.        0.0108 Ry
        Total length         54.2615 bohr
 
 
     Adding external electric field

     Computed dipole along edir(3) : 
        Dipole               -0.1606 Ry au,         -0.4081 Debye
        Dipole field         -0.0001 Ry au, 
 
        Potential amp.        0.0108 Ry
        Total length         54.2615 bohr
 

     total cpu time spent up to now is      811.6 secs

     total energy              =   -7398.03586227 Ry
     estimated scf accuracy    <       0.00021782 Ry

     total magnetization       =    80.45 Bohr mag/cell
     absolute magnetization    =    81.99 Bohr mag/cell

     iteration # 56     ecut=    50.00 Ry     beta= 0.10
     Davidson diagonalization with overlap
     ethr =  2.02E-08,  avg # of iterations =  2.0

     negative rho (up, down):  1.242E-04 6.102E-05
 
     Adding external electric field

     Computed dipole along edir(3) : 
        Dipole               -0.1619 Ry au,         -0.4116 Debye
        Dipole field         -0.0001 Ry au, 
 
        Potential amp.        0.0109 Ry
        Total length         54.2615 bohr
 
 
     Adding external electric field

     Computed dipole along edir(3) : 
        Dipole               -0.1619 Ry au,         -0.4116 Debye
        Dipole field         -0.0001 Ry au, 
 
        Potential amp.        0.0109 Ry
        Total length         54.2615 bohr
 

     total cpu time spent up to now is      824.5 secs

     total energy              =   -7398.03587945 Ry
     estimated scf accuracy    <       0.00013587 Ry

     total magnetization       =    80.44 Bohr mag/cell
     absolute magnetization    =    81.99 Bohr mag/cell

     iteration # 57     ecut=    50.00 Ry     beta= 0.10
     Davidson diagonalization with overlap
     ethr =  1.26E-08,  avg # of iterations =  2.0

     negative rho (up, down):  2.282E-04 5.679E-05
 
     Adding external electric field

     Computed dipole along edir(3) : 
        Dipole               -0.1552 Ry au,         -0.3945 Debye
        Dipole field         -0.0001 Ry au, 
 
        Potential amp.        0.0104 Ry
        Total length         54.2615 bohr
 
 
     Adding external electric field

     Computed dipole along edir(3) : 
        Dipole               -0.1552 Ry au,         -0.3945 Debye
        Dipole field         -0.0001 Ry au, 
 
        Potential amp.        0.0104 Ry
        Total length         54.2615 bohr
 

     total cpu time spent up to now is      836.9 secs

     total energy              =   -7398.03589002 Ry
     estimated scf accuracy    <       0.00009594 Ry

     total magnetization       =    80.44 Bohr mag/cell
     absolute magnetization    =    81.99 Bohr mag/cell

     iteration # 58     ecut=    50.00 Ry     beta= 0.10
     Davidson diagonalization with overlap
     ethr =  8.90E-09,  avg # of iterations =  2.0

     negative rho (up, down):  3.494E-04 1.231E-04
 
     Adding external electric field

     Computed dipole along edir(3) : 
        Dipole               -0.1538 Ry au,         -0.3910 Debye
        Dipole field         -0.0001 Ry au, 
 
        Potential amp.        0.0103 Ry
[...]
    -6.0006  -5.9838  -5.9530  -5.9352  -5.9093  -5.8887  -5.8513  -5.8463
    -5.8156  -5.7945  -5.7591  -5.7397  -5.7298  -5.7212  -5.6968  -5.6781
    -5.6735  -5.6693  -5.6416  -5.6213  -5.6113  -5.5895  -5.5357  -5.5074
    -5.4597  -5.4435  -5.4135  -5.3983  -5.3861  -5.3493  -5.3027  -5.2868
    -5.2410  -5.2123  -5.1925  -5.1718  -5.1692  -5.0777  -5.0733  -5.0546
    -5.0016  -4.9702  -4.9502  -4.9172  -4.8961  -4.8749  -4.8502  -4.7972
    -4.7742  -4.7678  -4.7440  -4.7321  -4.6451  -4.6391  -4.5868  -4.5508
    -4.5343  -4.5185  -4.4859  -4.4527  -4.4271  -4.4027  -4.3815  -4.3667
    -4.3487  -4.3001  -4.2911  -4.2180  -4.1736  -4.1508  -4.1273  -4.0807
    -4.0741  -4.0445  -4.0363  -3.9983  -3.9608  -3.9513  -3.9237  -3.8974
    -3.8893  -3.8394  -3.8312  -3.8212  -3.7957  -3.7693  -3.7466  -3.7323
    -3.7177  -3.6947  -3.6597  -3.6444  -3.6421  -3.6266  -3.6045  -3.5884
    -3.5432  -3.5274  -3.5212  -3.5178  -3.4901  -3.4735  -3.4485  -3.4352
    -3.4224  -3.4038  -3.3908  -3.3451  -3.3441  -3.2982  -3.2897  -3.2558
    -3.2363  -3.2173  -3.2071  -3.1931  -3.1727  -3.1655  -3.1550  -3.1395
    -3.1143  -3.0720  -3.0378  -3.0282  -3.0261  -2.9942  -2.9704  -2.9552
    -2.9298  -2.9097  -2.8986  -2.8734  -2.8599  -2.8477  -2.8205  -2.8134
    -2.7934  -2.7894  -2.7825  -2.7719  -2.7487  -2.7431  -2.7248  -2.7004
    -2.6908  -2.6761  -2.6607  -2.6443  -2.6252  -2.6208  -2.5976  -2.5750
    -2.5603  -2.5401  -2.5264  -2.4927  -2.4906  -2.4787  -2.4649  -2.4373
    -2.4306  -2.3986  -2.3887  -2.3735  -2.3537  -2.3177  -2.2981  -2.2895
    -2.2626  -2.2530  -2.2291  -2.1998  -2.1750  -2.1616  -2.1314  -2.1221
    -2.1043  -2.0903  -2.0820  -2.0693  -2.0667  -2.0489  -2.0055  -1.9916
    -1.9769  -1.9682  -1.9588  -1.9331  -1.9228  -1.9161  -1.8846  -1.8722
    -1.8351  -1.8178  -1.7888  -1.7632  -1.7446  -1.7344  -1.7140  -1.6965
    -1.6626  -1.6539  -1.6397  -1.6276  -1.6096  -1.5982  -1.5746  -1.5459
    -1.5406  -1.5169  -1.4930  -1.4636  -1.4412  -1.4343  -1.4308  -1.4196
    -1.4075  -1.3759  -1.3350  -1.3073  -1.2957  -1.2366  -1.2187  -1.2071
    -1.1478  -1.0975  -1.0637  -1.0512  -1.0127  -0.9255  -0.9007  -0.8753
    -0.7776  -0.6639  -0.6126  -0.6067  -0.4621  -0.3658  -0.3222  -0.2581
     0.1062   0.1244   0.1596   0.1924   0.2324   0.2432   0.2622   0.2704
     0.2844   0.2872   0.3018   0.3030   0.3112   0.3282   0.3407   0.3470
     0.3515   0.3564   0.3701   0.3808   0.3854   0.3870   0.3970   0.4026
     0.4110   0.4184   0.4257   0.4368   0.4478   0.4506   0.4586   0.4594
     0.4656   0.4724   0.4776   0.4898   0.4953   0.5001   0.5026   0.5088
     0.5162   0.5339   0.5361   0.5436   0.5522   0.5605   0.5650   0.5801
     0.5830   0.5858   0.5926   0.5983   0.6100   0.6156   0.6221   0.6330
     0.6374   0.6471   0.6604   0.6618   0.6748   0.6782   0.6834   0.6876
     0.6997   0.7073   0.7133   0.7163   0.7214   0.7277   0.7400   0.7436
     0.7487   0.7525   0.7669   0.7734   0.7862   0.7884   0.7969   0.8099
     0.8239   0.8291   0.8454   0.8533   0.8624   0.8654   0.8803   0.8831
     0.8974   0.9131   0.9174   0.9270   0.9359   0.9875   0.9916   1.0165
     1.0728   1.1365   1.6124   1.6589   1.7015   1.7054   1.7143   1.7179
     1.7586   1.8474   1.8666   1.8771   1.8935   1.9311   1.9365   1.9651
     1.9729   1.9941   2.0183   2.0323   2.0416   2.0688   2.0848   2.1236
     2.1516   2.1621   2.1638   2.1950   2.2018   2.2094   2.2226   2.2300
     2.2442   2.2544   2.2644   2.2817   2.2890   2.3010   2.3063   2.3182
     2.3400   2.3514   2.3596   2.3753   2.4098   2.4135   2.4171   2.4471
     2.4614   2.4871   2.4999   2.5007   2.5167   2.5240   2.5483   2.5568
     2.5728   2.5843   2.5965   2.6304   2.6722   2.7079   2.7275   2.7491
     2.7825   2.8356   2.8848   2.8903   2.9079   3.5817   3.5909   3.6654
     3.7486   3.8243   3.8367   3.8452   3.8614   3.9993   4.0642   4.5865
     4.6416   4.7094   4.7749   4.9230   4.9494   5.0198   5.4141   6.2958
     6.3618   6.5437   6.5843   6.7438   6.8405   6.8531   6.8853   6.9301
     6.9951   7.0626   7.1132   7.1530   7.2985   7.3251   7.3700   7.4671
     7.5031   7.5607   7.6317   7.6713   7.6943   7.7526   7.7907   7.8112
     7.8661   7.9245   7.9310   7.9756   8.0177   8.0326   8.0579   8.0775
     8.1058   8.1214   8.1644   8.1886   8.2347   8.2655   8.2756   8.3300
     8.3776   8.3994   8.4253   8.4539   8.4686   8.4821   8.4974   8.5141
     8.5455   8.5678   8.5770   8.6096   8.6159   8.6444   8.6670   8.6925
     8.7221   8.7640   8.7793   8.8054   8.8293   8.8487   8.8650

     the Fermi energy is     1.5659 ev

!    total energy              =   -7398.03590157 Ry
     estimated scf accuracy    <       0.00000098 Ry
     smearing contrib. (-TS)   =      -0.01432451 Ry
     internal energy E=F+TS    =   -7398.02157706 Ry

     The total energy is F=E-TS. E is the sum of the following terms:
     one-electron contribution =  -91743.74784207 Ry
     hartree contribution      =   46519.83948599 Ry
     xc contribution           =   -2260.28345718 Ry
     ewald contribution        =   40088.00417530 Ry
     Dispersion Correction     =      -1.83395175 Ry
     electric field correction =       0.00001265 Ry

     total magnetization       =    80.44 Bohr mag/cell
     absolute magnetization    =    81.97 Bohr mag/cell

     convergence has been achieved in  68 iterations

     negative rho (up, down):  9.305E-04 5.476E-04

     Forces acting on atoms (cartesian axes, Ry/au):

     atom    1 type  2   force =     0.03099863   -0.01975468   -0.01629593
     atom    2 type  1   force =     0.00222660   -0.00401938   -0.01082079
     atom    3 type  1   force =    -0.02158064   -0.02061723    0.01814130
     atom    4 type  1   force =     0.00139629    0.01033760   -0.01275451
     atom    5 type  1   force =    -0.00479693    0.02897112   -0.01852238
     atom    6 type  1   force =     0.00583455    0.00051056   -0.00047929
     atom    7 type  1   force =     0.02689100   -0.02103406    0.01736810
     atom    8 type  1   force =    -0.00964079   -0.00314949   -0.01116137
     atom    9 type  1   force =    -0.02979118   -0.01816599    0.01612852
     atom   10 type  1   force =    -0.00117019    0.00815474   -0.01301385
     atom   11 type  1   force =    -0.01314065    0.03036851   -0.02072084
     atom   12 type  1   force =     0.00127282    0.00659230   -0.00410651
     atom   13 type  3   force =     0.05103742   -0.11003904    0.00916277
     atom   14 type  3   force =    -0.02903162    0.03593182   -0.06515170
     atom   15 type  3   force =    -0.00921496    0.17549393   -0.08316658
     atom   16 type  3   force =     0.06068206    0.00060783   -0.00438823
     atom   17 type  4   force =     0.01523315   -0.02179859   -0.00975538
     atom   18 type  4   force =    -0.00536282    0.00476268    0.02954966
     atom   19 type  4   force =     0.00210873    0.00096465    0.03067403
     atom   20 type  4   force =     0.00509258    0.00192604    0.00243301
     atom   21 type  4   force =     0.00057673   -0.01198671   -0.00004966
     atom   22 type  4   force =    -0.00091237    0.00381746    0.03265220
     atom   23 type  4   force =    -0.00611019    0.01461046    0.02755596
     atom   24 type  4   force =     0.00865008    0.00323528   -0.00433905
     atom   25 type  4   force =     0.00644540   -0.00335893    0.00151384
     atom   26 type  4   force =     0.03109988   -0.17824351    0.00724954
     atom   27 type  4   force =     0.00297047    0.00098334    0.00166401
     atom   28 type  4   force =    -0.01693284    0.00168521    0.00475054
     atom   29 type  4   force =     0.09121026    0.00315878    0.00805530
     atom   30 type  4   force =     0.01313329   -0.02503716   -0.00089458
     atom   31 type  4   force =    -0.03843859    0.13330565   -0.00021052
     atom   32 type  4   force =    -0.00559525   -0.01186333    0.00648686
     atom   33 type  3   force =     0.04156087   -0.11927531    0.00969490
     atom   34 type  3   force =    -0.10168346    0.04258804   -0.07573576
     atom   35 type  3   force =    -0.01352430    0.16598959   -0.08809953
     atom   36 type  3   force =    -0.00359864    0.00261535   -0.01043325
     atom   37 type  4   force =     0.00826794   -0.01463372   -0.00235352
     atom   38 type  4   force =    -0.00581637   -0.00177361    0.02731940
     atom   39 type  4   force =    -0.00472100    0.00719779    0.03209069
     atom   40 type  4   force =     0.00126434    0.00009140    0.00254325
     atom   41 type  4   force =    -0.00147513   -0.00958102   -0.00164622
     atom   42 type  4   force =     0.00545231   -0.00059615    0.02949853
     atom   43 type  4   force =    -0.01048314    0.01344888    0.02719649
     atom   44 type  4   force =     0.00442552    0.00349293   -0.00453744
     atom   45 type  4   force =    -0.00035261   -0.00075045    0.00195690
     atom   46 type  4   force =     0.02809029   -0.17045897    0.00541995
     atom   47 type  4   force =    -0.06541680   -0.00074381   -0.00313973
     atom   48 type  4   force =    -0.01975152    0.00391950    0.00530542
     atom   49 type  4   force =     0.01393362    0.00085167    0.00205170
     atom   50 type  4   force =     0.00800411   -0.02426090   -0.00014298
     atom   51 type  4   force =    -0.03972243    0.13330684   -0.00140152
     atom   52 type  4   force =    -0.00785660   -0.01065172    0.00871278
     atom   53 type  2   force =     0.00649423   -0.00750059    0.00524484
     atom   54 type  1   force =    -0.00004199   -0.00563166    0.01019030
     atom   55 type  1   force =     0.00487341   -0.00624989    0.00623863
     atom   56 type  1   force =    -0.00027962    0.00728659   -0.00107693
     atom   57 type  1   force =     0.00044648    0.02213010   -0.01450134
     atom   58 type  1   force =     0.00167427   -0.00331318    0.00203344
     atom   59 type  1   force =     0.00245594   -0.01003465    0.00356637
     atom   60 type  1   force =    -0.00683847   -0.00357848    0.00378250
     atom   61 type  1   force =    -0.00469123   -0.00494239    0.00626579
     atom   62 type  1   force =    -0.00338866    0.00653821   -0.00196446
     atom   63 type  1   force =    -0.01082303    0.02502050   -0.01787746
     atom   64 type  1   force =    -0.00247782    0.00125492   -0.00097323
     atom   65 type  3   force =     0.04619660   -0.12078789    0.01816467
     atom   66 type  3   force =     0.00166907   -0.00422135    0.00096049
     atom   67 type  3   force =    -0.04064308    0.12356176   -0.00698905
     atom   68 type  3   force =     0.06283846   -0.00132191    0.00744655
     atom   69 type  4   force =     0.01259466   -0.01724868   -0.00264816
     atom   70 type  4   force =    -0.00189167    0.00342556   -0.00076896
     atom   71 type  4   force =    -0.00190816    0.00351398    0.00534082
     atom   72 type  4   force =     0.00469084    0.00130791    0.00119695
     atom   73 type  4   force =     0.00762960   -0.01765691    0.01314175
     atom   74 type  4   force =    -0.00444131   -0.00333758    0.00921731
     atom   75 type  4   force =     0.00351859    0.00863701    0.00459592
     atom   76 type  4   force =     0.00633725    0.00073508    0.00004059
     atom   77 type  4   force =     0.00639744   -0.00179537   -0.00077865
     atom   78 type  4   force =     0.04529005   -0.14081958    0.00569808
     atom   79 type  4   force =     0.00001391    0.00013329   -0.00034304
     atom   80 type  4   force =     0.00150785    0.00190774    0.00220322
     atom   81 type  4   force =     0.06745747    0.00009391    0.00648164
     atom   82 type  4   force =     0.00015561    0.00226732    0.00124140
     atom   83 type  4   force =    -0.03934157    0.13828612   -0.00229654
     atom   84 type  4   force =    -0.00173658   -0.01027171    0.00352347
     atom   85 type  3   force =     0.03856448   -0.12490526    0.02467948
     atom   86 type  3   force =    -0.06336389   -0.00162941   -0.00381809
     atom   87 type  3   force =    -0.04619798    0.12068945   -0.01050925
     atom   88 type  3   force =    -0.00012380    0.00107273    0.00304903
     atom   89 type  4   force =     0.00911412   -0.01467192   -0.00559046
     atom   90 type  4   force =    -0.00447851    0.00105632   -0.00082112
     atom   91 type  4   force =    -0.00946937    0.00843076    0.00551987
     atom   92 type  4   force =     0.00042446   -0.00039773    0.00014582
     atom   93 type  4   force =     0.00171944   -0.01124085   -0.00103865
     atom   94 type  4   force =    -0.00893873   -0.00306859    0.00828445
     atom   95 type  4   force =    -0.00032068    0.00776590    0.00302800
     atom   96 type  4   force =    -0.00118563    0.00124739    0.00001250
     atom   97 type  4   force =    -0.00121463    0.00119498   -0.00033072
     atom   98 type  4   force =     0.04065229   -0.13906778    0.00479658
     atom   99 type  4   force =    -0.06718303   -0.00077403   -0.00565652
     atom  100 type  4   force =    -0.00043871    0.00287986    0.00284734
     atom  101 type  4   force =    -0.00128357    0.00001984    0.00129153
     atom  102 type  4   force =    -0.00678852    0.00544166    0.00150490
     atom  103 type  4   force =    -0.04009649    0.13597032   -0.00439248
     atom  104 type  4   force =    -0.00540788   -0.00998956    0.00488809
     atom  105 type  2   force =    -0.00040300    0.00033803    0.00035055
     atom  106 type  1   force =     0.00046848   -0.00049924    0.00040981
     atom  107 type  1   force =    -0.00000164   -0.00033046    0.00034573
     atom  108 type  1   force =     0.00023072    0.00047876    0.00007733
     atom  109 type  1   force =    -0.00053161   -0.00001922    0.00044721
     atom  110 type  1   force =    -0.00005275   -0.00011163    0.00051735
     atom  111 type  1   force =    -0.00007058    0.00024905    0.00038002
     atom  112 type  1   force =     0.00026211    0.00002308    0.00056343
     atom  113 type  1   force =     0.00004277   -0.00023037    0.00008508
     atom  114 type  1   force =    -0.00049412    0.00028364    0.00004798
     atom  115 type  1   force =     0.00023604   -0.00008252    0.00046362
     atom  116 type  1   force =    -0.00036874   -0.00042068    0.00051320
     atom  117 type  3   force =    -0.00043402   -0.00091524    0.00077022
     atom  118 type  3   force =     0.00019158   -0.00020870    0.00006864
     atom  119 type  3   force =    -0.00002776   -0.00005556   -0.00008861
     atom  120 type  3   force =    -0.00004143   -0.00017482    0.00006116
     atom  121 type  4   force =     0.00016555    0.00000434   -0.00059614
     atom  122 type  4   force =    -0.00016551    0.00016809    0.00013004
     atom  123 type  4   force =     0.00021506   -0.00024052    0.00011881
     atom  124 type  4   force =    -0.00020063   -0.00036794    0.00006873
     atom  125 type  4   force =     0.00000686    0.00060992   -0.00071469
     atom  126 type  4   force =    -0.00013094   -0.00025875   -0.00009270
     atom  127 type  4   force =     0.00047124   -0.00006691   -0.00021273
     atom  128 type  4   force =    -0.00020373   -0.00039335    0.00004830
     atom  129 type  4   force =     0.00007876   -0.00031045   -0.00012802
     atom  130 type  4   force =    -0.00001872   -0.00006163   -0.00007656
     atom  131 type  4   force =    -0.00050359   -0.00020814    0.00010322
     atom  132 type  4   force =    -0.00004187   -0.00025822    0.00027362
     atom  133 type  4   force =    -0.00002723   -0.00029888    0.00010703
     atom  134 type  4   force =    -0.00036367   -0.00036644   -0.00003370
     atom  135 type  4   force =    -0.00060204   -0.00003611   -0.00049691
     atom  136 type  4   force =     0.00093009   -0.00010913   -0.00021143
     atom  137 type  3   force =     0.00029731   -0.00010612   -0.00019269
     atom  138 type  3   force =    -0.00021795   -0.00021311   -0.00003963
     atom  139 type  3   force =    -0.00008482    0.00001453    0.00011482
     atom  140 type  3   force =    -0.00059247   -0.00025808   -0.00038371
     atom  141 type  4   force =     0.00041967   -0.00041181    0.00008163
     atom  142 type  4   force =     0.00007857    0.00007823    0.00001273
     atom  143 type  4   force =     0.00004465   -0.00010616    0.00036990
     atom  144 type  4   force =     0.00076777    0.00026441    0.00088847
     atom  145 type  4   force =    -0.00044446   -0.00020759   -0.00048708
     atom  146 type  4   force =    -0.00010394   -0.00015946   -0.00028444
     atom  147 type  4   force =     0.00051293    0.00007454   -0.00015472
     atom  148 type  4   force =    -0.00001639    0.00050427   -0.00011286
     atom  149 type  4   force =     0.00065910   -0.00026954   -0.00006136
     atom  150 type  4   force =     0.00030179    0.00003078    0.00013338
     atom  151 type  4   force =    -0.00005777   -0.00004328    0.00006428
     atom  152 type  4   force =     0.00022490   -0.00005668    0.00012077
     atom  153 type  4   force =     0.00007827    0.00000967   -0.00029203
     atom  154 type  4   force =    -0.00026516   -0.00037945   -0.00003379
     atom  155 type  4   force =     0.00014186    0.00004334   -0.00007454
     atom  156 type  4   force =     0.00005488    0.00031211   -0.00041367
     atom  157 type  4   force =     0.01056909   -0.00718212   -0.00233349
     atom  158 type  5   force =    -0.01044334    0.00739311    0.00367677

     Total force =     0.665567     Total SCF correction =     0.004790
 
     init_run     :      8.97s CPU      9.71s WALL (       1 calls)
     electrons    :    923.99s CPU    968.02s WALL (       1 calls)
     forces       :      3.92s CPU      4.37s WALL (       1 calls)
     force_london :      0.09s CPU      0.09s WALL (       1 calls)

     Called by init_run:
     wfcinit      :      5.80s CPU      5.94s WALL (       1 calls)
     potinit      :      0.75s CPU      0.94s WALL (       1 calls)
     hinit0       :      1.17s CPU      1.31s WALL (       1 calls)

     Called by electrons:
     c_bands      :    735.57s CPU    758.35s WALL (      68 calls)
     sum_band     :    120.28s CPU    132.00s WALL (      68 calls)
     v_of_rho     :     13.74s CPU     14.77s WALL (      69 calls)
     newd         :     34.98s CPU     43.65s WALL (      69 calls)
     mix_rho      :     18.86s CPU     18.96s WALL (      68 calls)
     energy_londo :      0.09s CPU      0.09s WALL (       1 calls)

     Called by c_bands:
     init_us_2    :      2.42s CPU      2.46s WALL (     276 calls)
     init_us_2:cp :      2.42s CPU      2.46s WALL (     276 calls)
     regterg      :    720.29s CPU    742.84s WALL (     137 calls)

     Called by *egterg:
     rdiaghg      :    204.16s CPU    214.49s WALL (     502 calls)
     h_psi        :    283.64s CPU    289.29s WALL (     504 calls)
     s_psi        :     54.75s CPU     54.78s WALL (     504 calls)
     g_psi        :      0.37s CPU      0.37s WALL (     365 calls)

     Called by h_psi:
     h_psi:calbec :     73.08s CPU     77.89s WALL (     504 calls)
     vloc_psi     :    154.49s CPU    155.20s WALL (     504 calls)
     add_vuspsi   :     55.29s CPU     55.40s WALL (     504 calls)

     General routines
     calbec       :    107.21s CPU    114.34s WALL (     648 calls)
     fft          :     14.15s CPU     15.46s WALL (    1255 calls)
     ffts         :     10.94s CPU     10.97s WALL (    8447 calls)
     fftw         :    174.60s CPU    175.30s WALL (  229264 calls)
     interpolate  :      1.13s CPU      1.20s WALL (     138 calls)
 
     Parallel routines
 
     PWSCF        :  15m39.27s CPU  16m24.80s WALL

 
   This run was terminated on:  21:32:38  19Nov2025            

=------------------------------------------------------------------------------=
   JOB DONE.
=------------------------------------------------------------------------------=
