
     Program PWSCF v.7.2 starts on 19Nov2025 at 22:25:13 

     This program is part of the open-source Quantum ESPRESSO suite
     for quantum simulation of materials; please cite
         "P. Giannozzi et al., J. Phys.:Condens. Matter 21 395502 (2009);
         "P. Giannozzi et al., J. Phys.:Condens. Matter 29 465901 (2017);
         "P. Giannozzi et al., J. Chem. Phys. 152 154105 (2020);
          URL http://www.quantum-espresso.org", 
     in publications or presentations arising from this work. More details at
     http://www.quantum-espresso.org/quote

     Parallel version (MPI), running on    64 processors

     MPI processes distributed on     4 nodes
     470297 MiB available memory on the printing compute node when the environment starts
 
     Reading input from PWINPUT_atm158_zp

     Current dimensions of program PWSCF are:
     Max number of different atomic species (ntypx) = 10
     Max number of k-points (npk) =  40000
     Max angular momentum in pseudopotentials (lmaxx) =  4
     Presently no symmetry can be used with electric field

     file Ni.pbe-n-rrkjus_psl.1.0.0.UPF: wavefunction(s)  3D renormalized
     file Mn.pbe-spn-rrkjus_psl.0.3.1.UPF: wavefunction(s)  3D renormalized
     file O.pbe-rrkjus.UPF: wavefunction(s)  2S renormalized
     file H.pbe-rrkjus.UPF: wavefunction(s)  1S renormalized

     gamma-point specific algorithms are used
 
     R & G space division:  proc/nbgrp/npool/nimage =      64
     Subspace diagonalization in iterative solution of the eigenvalue problem:
     one sub-group per band group will be used
     custom distributed-memory algorithm (size of sub-group:  6*  6 procs)

 
     Parallelization info
     --------------------
     sticks:   dense  smooth     PW     G-vecs:    dense   smooth      PW
     Min         208      82     20                59912    15118    1876
     Max         210      84     22                59974    15196    1926
     Sum       13399    5355   1345              3836275   970529  121367
 
     Using Slab Decomposition
 


     bravais-lattice index     =            0
     lattice parameter (alat)  =      17.7004  a.u.
     unit-cell volume          =   20319.7251 (a.u.)^3
     number of atoms/cell      =          158
     number of atomic types    =            5
     number of electrons       =      1078.00
     number of Kohn-Sham states=          647
     kinetic-energy cutoff     =      50.0000  Ry
     charge density cutoff     =     500.0000  Ry
     scf convergence threshold =      1.0E-06
     mixing beta               =       0.1000
     number of iterations used =            8  local-TF  mixing
     Exchange-correlation=  SLA  PW   PBE  PBE
                           (   1   4   3   4   0   0   0)

     celldm(1)=  17.700384  celldm(2)=   0.000000  celldm(3)=   0.000000
     celldm(4)=   0.000000  celldm(5)=   0.000000  celldm(6)=   0.000000

     crystal axes: (cart. coord. in units of alat)
               a(1) = (   1.000000   0.000000   0.000000 )  
               a(2) = (   0.000000   1.075730   0.000000 )  
               a(3) = (   0.000000   0.000000   3.406172 )  

     reciprocal axes: (cart. coord. in units 2 pi/alat)
               b(1) = (  1.000000  0.000000  0.000000 )  
               b(2) = (  0.000000  0.929602  0.000000 )  
               b(3) = (  0.000000  0.000000  0.293585 )  


     PseudoPot. # 1 for Ni read from file:
     ~/PSEUDO/Ni.pbe-n-rrkjus_psl.1.0.0.UPF
     MD5 check sum: Not computed, couldn't open file
     Pseudo is Ultrasoft + core correction, Zval = 10.0
     Generated using "atomic" code by A. Dal Corso  v.5.1.2
     Using radial grid of 1195 points,  6 beta functions with: 
                l(1) =   0
                l(2) =   0
                l(3) =   1
                l(4) =   1
                l(5) =   2
                l(6) =   2
     Q(r) pseudized with 0 coefficients 


     PseudoPot. # 2 for Mn read from file:
     ~/PSEUDO/Mn.pbe-spn-rrkjus_psl.0.3.1.UPF
     MD5 check sum: Not computed, couldn't open file
     Pseudo is Ultrasoft + core correction, Zval = 15.0
     Generated using &quot;atomic&quot; code by A. Dal Corso  v.6.2.2
     Using radial grid of 1187 points,  6 beta functions with: 
                l(1) =   0
                l(2) =   0
                l(3) =   1
                l(4) =   1
                l(5) =   2
                l(6) =   2
     Q(r) pseudized with 0 coefficients 


     PseudoPot. # 3 for P  read from file:
     ~/PSEUDO/P.pbe-n-rrkjus_psl.1.0.0.UPF
     MD5 check sum: Not computed, couldn't open file
     Pseudo is Ultrasoft + core correction, Zval =  5.0
     Generated using "atomic" code by A. Dal Corso  v.5.1
     Using radial grid of 1147 points,  6 beta functions with: 
                l(1) =   0
                l(2) =   0
                l(3) =   1
                l(4) =   1
                l(5) =   2
                l(6) =   2
     Q(r) pseudized with 0 coefficients 


     PseudoPot. # 4 for O  read from file:
     ~/PSEUDO/O.pbe-rrkjus.UPF
     MD5 check sum: Not computed, couldn't open file
     Pseudo is Ultrasoft, Zval =  6.0
     Generated by new atomic code, or converted to UPF format
     Using radial grid of 1269 points,  4 beta functions with: 
                l(1) =   0
                l(2) =   0
                l(3) =   1
                l(4) =   1
     Q(r) pseudized with 0 coefficients 


     PseudoPot. # 5 for H  read from file:
     ~/PSEUDO/H.pbe-rrkjus.UPF
     MD5 check sum: Not computed, couldn't open file
     Pseudo is Ultrasoft, Zval =  1.0
     Generated by new atomic code, or converted to UPF format
     Using radial grid of 1061 points,  2 beta functions with: 
                l(1) =   0
                l(2) =   0
     Q(r) pseudized with 0 coefficients 


     atomic species   valence    mass     pseudopotential
     Ni               10.00    58.69300     Ni( 1.00)
     Mn               15.00    54.93800     Mn( 1.00)
     P                 5.00    30.97300     P ( 1.00)
     O                 6.00    15.99900     O ( 1.00)
     H                 1.00     1.00790     H ( 1.00)

     Starting magnetic structure 
     atomic species   magnetization
     Ni              1.000
     Mn              1.000
     P               1.000
     O               1.000
     H               0.000

     No symmetry found



   Cartesian axes

     site n.     atom                  positions (alat units)
         1        Mn     tau(   1) = (   0.2404744   0.8371250   0.1168501  )
         2        Ni     tau(   2) = (   0.4968126   0.7726670   0.4415546  )
         3        Ni     tau(   3) = (   0.0066150   0.2936743   0.1241053  )
         4        Ni     tau(   4) = (   0.2585722   0.2355858   0.4448848  )
         5        Ni     tau(   5) = (   0.9987350   1.0696411   0.2854926  )
         6        Ni     tau(   6) = (   0.2517397   0.5330511   0.2829322  )
         7        Ni     tau(   7) = (   0.7451645   0.8337543   0.1221751  )
         8        Ni     tau(   8) = (   0.9939181   0.7738804   0.4407595  )
         9        Ni     tau(   9) = (   0.5111533   0.2924088   0.1251865  )
        10        Ni     tau(  10) = (   0.7606326   0.2319267   0.4451372  )
        11        Ni     tau(  11) = (   0.5024065   1.0688133   0.2870502  )
        12        Ni     tau(  12) = (   0.7529977   0.5317900   0.2845227  )
        13        P      tau(  13) = (   0.2092944   0.9731097   0.4345035  )
        14        P      tau(  14) = (   0.4655727   0.6359535   0.1274635  )
        15        P      tau(  15) = (   0.2910699   0.1027363   0.1296098  )
        16        P      tau(  16) = (   0.0396216   0.4288395   0.4398838  )
        17        O      tau(  17) = (   0.1294378   0.9013260   0.3010618  )
        18        O      tau(  18) = (   0.3874505   0.7054774   0.2637003  )
        19        O      tau(  19) = (   0.3702540   0.1714799   0.2660028  )
        20        O      tau(  20) = (   0.1184398   0.3582958   0.3038353  )
        21        O      tau(  21) = (   0.1451572   0.8850881   0.5587578  )
        22        O      tau(  22) = (   0.4048762   0.7245585   0.0017492  )
        23        O      tau(  23) = (   0.3523506   0.1900579   0.0035744  )
        24        O      tau(  24) = (   0.1017610   0.3410484   0.5656572  )
        25        O      tau(  25) = (   0.0975396   0.5849288   0.4357922  )
        26        O      tau(  26) = (   0.3483552   1.0314945   0.1270322  )
        27        O      tau(  27) = (   0.3784305   0.4225118   0.4308928  )
        28        O      tau(  28) = (   0.1268237   0.1067944   0.1392744  )
        29        O      tau(  29) = (   0.1212267   0.6424170   0.1362896  )
        30        O      tau(  30) = (   0.4053315   0.4809387   0.1300622  )
        31        O      tau(  31) = (   0.1536621   0.0446918   0.4373386  )
        32        O      tau(  32) = (   0.3732349   0.9631717   0.4256642  )
        33        P      tau(  33) = (   0.7119823   0.9695974   0.4373010  )
        34        P      tau(  34) = (   0.9615208   0.6363392   0.1262932  )
        35        P      tau(  35) = (   0.7927710   0.0970060   0.1292164  )
        36        P      tau(  36) = (   0.5426404   0.4269675   0.4410738  )
        37        O      tau(  37) = (   0.6326879   0.8991182   0.3013240  )
        38        O      tau(  38) = (   0.8842163   0.7083206   0.2625155  )
        39        O      tau(  39) = (   0.8716178   0.1677751   0.2653504  )
        40        O      tau(  40) = (   0.6212010   0.3558666   0.3051085  )
        41        O      tau(  41) = (   0.6507714   0.8812342   0.5631722  )
        42        O      tau(  42) = (   0.9014054   0.7264458   0.0010676  )
        43        O      tau(  43) = (   0.8548963   0.1847909   0.0035471  )
        44        O      tau(  44) = (   0.6044469   0.3378706   0.5660366  )
        45        O      tau(  45) = (   0.6024424   0.5823140   0.4379016  )
        46        O      tau(  46) = (   0.8498940   1.0254482   0.1275156  )
        47        O      tau(  47) = (   0.8798395   0.4205825   0.4305771  )
        48        O      tau(  48) = (   0.6286921   0.1034636   0.1397346  )
        49        O      tau(  49) = (   0.6294973   0.6427753   0.1372553  )
        50        O      tau(  50) = (   0.9024339   0.4810312   0.1296418  )
        51        O      tau(  51) = (   0.6547812   0.0410987   0.4396636  )
        52        O      tau(  52) = (   0.8760507   0.9632605   0.4264507  )
        53        Mn     tau(  53) = (   0.2404744   0.8246335   0.7367378  )
        54        Ni     tau(  54) = (   0.4968126   0.7601755   1.0614423  )
        55        Ni     tau(  55) = (   0.0066150   0.2811828   0.7439929  )
        56        Ni     tau(  56) = (   0.2585722   0.2230943   1.0647725  )
        57        Ni     tau(  57) = (   0.9987350   1.0571496   0.9053803  )
        58        Ni     tau(  58) = (   0.2517397   0.5205596   0.9028199  )
        59        Ni     tau(  59) = (   0.7451645   0.8212628   0.7420628  )
        60        Ni     tau(  60) = (   0.9939181   0.7613889   1.0606471  )
        61        Ni     tau(  61) = (   0.5111533   0.2799173   0.7450742  )
        62        Ni     tau(  62) = (   0.7606326   0.2194352   1.0650249  )
        63        Ni     tau(  63) = (   0.5024065   1.0563218   0.9069379  )
        64        Ni     tau(  64) = (   0.7529977   0.5192985   0.9044104  )
        65        P      tau(  65) = (   0.2092944   0.9606182   1.0543912  )
        66        P      tau(  66) = (   0.4655727   0.6234620   0.7473512  )
        67        P      tau(  67) = (   0.2910699   0.0902448   0.7494974  )
        68        P      tau(  68) = (   0.0396216   0.4163480   1.0597715  )
        69        O      tau(  69) = (   0.1294378   0.8888345   0.9209495  )
        70        O      tau(  70) = (   0.3874505   0.6929859   0.8835880  )
        71        O      tau(  71) = (   0.3702540   0.1589885   0.8858904  )
        72        O      tau(  72) = (   0.1184398   0.3458043   0.9237230  )
        73        O      tau(  73) = (   0.1451572   0.8725966   1.1786454  )
        74        O      tau(  74) = (   0.4048762   0.7120670   0.6216369  )
        75        O      tau(  75) = (   0.3523506   0.1775664   0.6234620  )
        76        O      tau(  76) = (   0.1017610   0.3285569   1.1855448  )
        77        O      tau(  77) = (   0.0975396   0.5724373   1.0556799  )
        78        O      tau(  78) = (   0.3483552   1.0190030   0.7469198  )
        79        O      tau(  79) = (   0.3784305   0.4100203   1.0507804  )
        80        O      tau(  80) = (   0.1268237   0.0943029   0.7591620  )
        81        O      tau(  81) = (   0.1212267   0.6299255   0.7561772  )
        82        O      tau(  82) = (   0.4053315   0.4684472   0.7499499  )
        83        O      tau(  83) = (   0.1536621   0.0322003   1.0572263  )
        84        O      tau(  84) = (   0.3732349   0.9506802   1.0455518  )
        85        P      tau(  85) = (   0.7119823   0.9571059   1.0571887  )
        86        P      tau(  86) = (   0.9615208   0.6238477   0.7461808  )
        87        P      tau(  87) = (   0.7927710   0.0845145   0.7491041  )
        88        P      tau(  88) = (   0.5426404   0.4144760   1.0609615  )
        89        O      tau(  89) = (   0.6326879   0.8866267   0.9212117  )
        90        O      tau(  90) = (   0.8842163   0.6958291   0.8824032  )
        91        O      tau(  91) = (   0.8716178   0.1552836   0.8852381  )
        92        O      tau(  92) = (   0.6212010   0.3433751   0.9249961  )
        93        O      tau(  93) = (   0.6507714   0.8687427   1.1830599  )
        94        O      tau(  94) = (   0.9014054   0.7139543   0.6209553  )
        95        O      tau(  95) = (   0.8548963   0.1722994   0.6234348  )
        96        O      tau(  96) = (   0.6044469   0.3253792   1.1859242  )
        97        O      tau(  97) = (   0.6024424   0.5698225   1.0577892  )
        98        O      tau(  98) = (   0.8498940   1.0129567   0.7474033  )
        99        O      tau(  99) = (   0.8798395   0.4080910   1.0504647  )
       100        O      tau( 100) = (   0.6286921   0.0909721   0.7596222  )
       101        O      tau( 101) = (   0.6294973   0.6302838   0.7571429  )
       102        O      tau( 102) = (   0.9024339   0.4685397   0.7495295  )
       103        O      tau( 103) = (   0.6547812   0.0286072   1.0595512  )
       104        O      tau( 104) = (   0.8760507   0.9507690   1.0463383  )
       105        Mn     tau( 105) = (   0.2364458   0.8094794   1.3653459  )
       106        Ni     tau( 106) = (   0.4907942   0.7363522   1.7049996  )
       107        Ni     tau( 107) = (   0.0093952   0.2680398   1.3698569  )
       108        Ni     tau( 108) = (   0.2497295   0.2108424   1.6761145  )
       109        Ni     tau( 109) = (   1.0036298   1.0443547   1.5337867  )
       110        Ni     tau( 110) = (   0.2508731   0.5072093   1.5337250  )
       111        Ni     tau( 111) = (   0.7430527   0.8053936   1.3670713  )
       112        Ni     tau( 112) = (   1.0004343   0.7470669   1.6781949  )
       113        Ni     tau( 113) = (   0.5111923   0.2663270   1.3700523  )
       114        Ni     tau( 114) = (   0.7492854   0.2057646   1.6748146  )
       115        Ni     tau( 115) = (   0.5041086   1.0410710   1.5344479  )
       116        Ni     tau( 116) = (   0.7475733   0.5047540   1.5316464  )
       117        P      tau( 117) = (   0.2133552   0.9392292   1.6984504  )
       118        P      tau( 118) = (   0.4634655   0.6097679   1.3737019  )
       119        P      tau( 119) = (   0.2926447   0.0743533   1.3725526  )
       120        P      tau( 120) = (   0.0367365   0.3974952   1.6921475  )
       121        O      tau( 121) = (   0.1371062   0.8722393   1.5551977  )
       122        O      tau( 122) = (   0.3876369   0.6802541   1.5098871  )
       123        O      tau( 123) = (   0.3711295   0.1420780   1.5089708  )
       124        O      tau( 124) = (   0.1160403   0.3372838   1.5462681  )
       125        O      tau( 125) = (   0.1492652   0.8455602   1.8156300  )
       126        O      tau( 126) = (   0.4032581   0.6987394   1.2472428  )
       127        O      tau( 127) = (   0.3539738   0.1604313   1.2459115  )
       128        O      tau( 128) = (   0.0992937   0.3009536   1.8068009  )
       129        O      tau( 129) = (   0.0909237   0.5559234   1.6906175  )
       130        O      tau( 130) = (   0.3495909   0.9934160   1.3761257  )
       131        O      tau( 131) = (   0.3736946   0.3887924   1.6741111  )
       132        O      tau( 132) = (   0.1287801   0.0799213   1.3839567  )
       133        O      tau( 133) = (   0.1223930   0.6189353   1.3829709  )
       134        O      tau( 134) = (   0.4027999   0.4547621   1.3753464  )
       135        O      tau( 135) = (   0.1562549   0.0204997   1.6913958  )
       136        O      tau( 136) = (   0.3777647   0.9340275   1.6841911  )
       137        P      tau( 137) = (   0.7135711   0.9304873   1.6870697  )
       138        P      tau( 138) = (   0.9579050   0.6098693   1.3704654  )
       139        P      tau( 139) = (   0.7935730   0.0700637   1.3709798  )
       140        P      tau( 140) = (   0.5382788   0.3921678   1.6921168  )
       141        O      tau( 141) = (   0.6368445   0.8715343   1.5433244  )
       142        O      tau( 142) = (   0.8818270   0.6814858   1.5066133  )
       143        O      tau( 143) = (   0.8713193   0.1417772   1.5072868  )
       144        O      tau( 144) = (   0.6174579   0.3303663   1.5458240  )
       145        O      tau( 145) = (   0.6552232   0.8337369   1.8043110  )
       146        O      tau( 146) = (   0.8989657   0.6978510   1.2434901  )
       147        O      tau( 147) = (   0.8552504   0.1586671   1.2456065  )
       148        O      tau( 148) = (   0.5963858   0.2917729   1.8058571  )
       149        O      tau( 149) = (   0.5989840   0.5475310   1.6881864  )
       150        O      tau( 150) = (   0.8545284   0.9913153   1.3740611  )
       151        O      tau( 151) = (   0.8720431   0.3904281   1.6773436  )
       152        O      tau( 152) = (   0.6296650   0.0761030   1.3824892  )
       153        O      tau( 153) = (   0.6276372   0.6149600   1.3818254  )
       154        O      tau( 154) = (   0.9002664   0.4546242   1.3744661  )
       155        O      tau( 155) = (   0.6584351   0.0133671   1.6886222  )
       156        O      tau( 156) = (   0.8793773   0.9284013   1.6770673  )
       157        O      tau( 157) = (   0.3761800   0.6543040   1.8384848  )
       158        H      tau( 158) = (   0.2924595   0.7142463   1.8643722  )

     -------------------------------------------------
     Parameters for Dispersion (Grimme-D2) Correction:
     -------------------------------------------------
       atom      VdW radius       C_6     

        Ni         2.952        374.666
        Mn         2.952        374.666
        P          3.222        271.980
        O          2.536         24.284
        H          1.892          4.857

     number of k points=     1  Gaussian smearing, width (Ry)=  0.0100
                       cart. coord. in units 2pi/alat
        k(    1) = (   0.0000000   0.0000000   0.0000000), wk =   1.0000000

     Dense  grid:  1918138 G-vectors     FFT dimensions: ( 125, 135, 432)

     Smooth grid:   485265 G-vectors     FFT dimensions: (  80,  90, 288)

     Estimated max dynamical RAM per process >     320.12 MB

     Estimated total dynamical RAM >      20.01 GB
     Generating pointlists ...
     new r_m :   0.0801 (alat units)  1.4174 (a.u.) for type    1
     new r_m :   0.0869 (alat units)  1.5388 (a.u.) for type    2
     new r_m :   0.0650 (alat units)  1.1499 (a.u.) for type    3
     new r_m :   0.0438 (alat units)  0.7752 (a.u.) for type    4
     new r_m :   0.0438 (alat units)  0.7752 (a.u.) for type    5

     Initial potential from superposition of free atoms

     starting charge    1077.8900, renormalised to    1078.0000

     negative rho (up, down):  1.235E-03 4.579E-04
 
     Adding external electric field

     Computed dipole along edir(3) : 
        Dipole                1.6239 Ry au,          4.1275 Debye
        Dipole field          0.0010 Ry au, 
 
        Potential amp.       -0.1090 Ry
        Total length         54.2615 bohr
 
 
     Adding external electric field

     Computed dipole along edir(3) : 
        Dipole                1.6239 Ry au,          4.1275 Debye
        Dipole field          0.0010 Ry au, 
 
        Potential amp.       -0.1090 Ry
        Total length         54.2615 bohr
 
     Starting wfcs are  812 randomized atomic wfcs

     total cpu time spent up to now is        9.4 secs

     Self-consistent Calculation

     iteration #  1     ecut=    50.00 Ry     beta= 0.10
     Davidson diagonalization with overlap
     ethr =  1.00E-02,  avg # of iterations =  6.0

     negative rho (up, down):  3.373E-01 1.757E-06
 
     Adding external electric field

     Computed dipole along edir(3) : 
        Dipole               -3.6076 Ry au,         -9.1695 Debye
        Dipole field         -0.0022 Ry au, 
 
        Potential amp.        0.2421 Ry
        Total length         54.2615 bohr
 
 
     Adding external electric field

     Computed dipole along edir(3) : 
        Dipole               -3.6076 Ry au,         -9.1695 Debye
        Dipole field         -0.0022 Ry au, 
 
        Potential amp.        0.2421 Ry
        Total length         54.2615 bohr
 

     total cpu time spent up to now is       34.6 secs

     total energy              =   -7178.31886532 Ry
     estimated scf accuracy    <     753.78783704 Ry

     total magnetization       =   216.00 Bohr mag/cell
     absolute magnetization    =   297.35 Bohr mag/cell

     iteration #  2     ecut=    50.00 Ry     beta= 0.10
     Davidson diagonalization with overlap
     ethr =  1.00E-02,  avg # of iterations =  2.0

     negative rho (up, down):  3.200E-01 9.960E-07
 
     Adding external electric field

     Computed dipole along edir(3) : 
        Dipole               -2.3891 Ry au,         -6.0726 Debye
        Dipole field         -0.0015 Ry au, 
 
        Potential amp.        0.1603 Ry
        Total length         54.2615 bohr
 
 
     Adding external electric field

     Computed dipole along edir(3) : 
        Dipole               -2.3891 Ry au,         -6.0726 Debye
        Dipole field         -0.0015 Ry au, 
 
        Potential amp.        0.1603 Ry
        Total length         54.2615 bohr
 

     total cpu time spent up to now is       48.0 secs

     total energy              =   -7262.08665935 Ry
     estimated scf accuracy    <     210.38737940 Ry

     total magnetization       =   150.02 Bohr mag/cell
     absolute magnetization    =   199.88 Bohr mag/cell

     iteration #  3     ecut=    50.00 Ry     beta= 0.10
     Davidson diagonalization with overlap
     ethr =  1.00E-02,  avg # of iterations =  1.5

     negative rho (up, down):  2.821E-01 9.104E-07
 
     Adding external electric field

     Computed dipole along edir(3) : 
        Dipole               -2.0430 Ry au,         -5.1927 Debye
        Dipole field         -0.0013 Ry au, 
 
        Potential amp.        0.1371 Ry
        Total length         54.2615 bohr
 
 
     Adding external electric field

     Computed dipole along edir(3) : 
        Dipole               -2.0430 Ry au,         -5.1927 Debye
        Dipole field         -0.0013 Ry au, 
 
        Potential amp.        0.1371 Ry
        Total length         54.2615 bohr
 

     total cpu time spent up to now is       58.9 secs

     total energy              =   -7292.69605375 Ry
     estimated scf accuracy    <      98.25190697 Ry

     total magnetization       =   125.55 Bohr mag/cell
     absolute magnetization    =   179.39 Bohr mag/cell

     iteration #  4     ecut=    50.00 Ry     beta= 0.10
     Davidson diagonalization with overlap
     ethr =  9.11E-03,  avg # of iterations =  1.5

     negative rho (up, down):  2.117E-01 2.068E-07
 
     Adding external electric field

     Computed dipole along edir(3) : 
        Dipole               -1.9794 Ry au,         -5.0311 Debye
        Dipole field         -0.0012 Ry au, 
 
        Potential amp.        0.1328 Ry
        Total length         54.2615 bohr
 
 
     Adding external electric field

     Computed dipole along edir(3) : 
        Dipole               -1.9794 Ry au,         -5.0311 Debye
        Dipole field         -0.0012 Ry au, 
 
        Potential amp.        0.1328 Ry
        Total length         54.2615 bohr
 

     total cpu time spent up to now is       69.9 secs

     total energy              =   -7326.74373031 Ry
     estimated scf accuracy    <      78.35205724 Ry

     total magnetization       =   110.51 Bohr mag/cell
     absolute magnetization    =   165.02 Bohr mag/cell

     iteration #  5     ecut=    50.00 Ry     beta= 0.10
     Davidson diagonalization with overlap
     ethr =  7.27E-03,  avg # of iterations =  1.5

     negative rho (up, down):  1.205E-02 4.848E-07
 
     Adding external electric field

     Computed dipole along edir(3) : 
        Dipole               -1.5330 Ry au,         -3.8964 Debye
        Dipole field         -0.0009 Ry au, 
 
        Potential amp.        0.1029 Ry
        Total length         54.2615 bohr
 
 
     Adding external electric field

     Computed dipole along edir(3) : 
        Dipole               -1.5330 Ry au,         -3.8964 Debye
        Dipole field         -0.0009 Ry au, 
 
        Potential amp.        0.1029 Ry
        Total length         54.2615 bohr
 

     total cpu time spent up to now is       80.6 secs

     total energy              =   -7385.41877291 Ry
     estimated scf accuracy    <      61.09822743 Ry

     total magnetization       =    88.02 Bohr mag/cell
     absolute magnetization    =   146.09 Bohr mag/cell

     iteration #  6     ecut=    50.00 Ry     beta= 0.10
     Davidson diagonalization with overlap
     ethr =  5.67E-03,  avg # of iterations =  1.5

     negative rho (up, down):  5.225E-04 7.191E-04
 
     Adding external electric field

     Computed dipole along edir(3) : 
        Dipole               -1.2115 Ry au,         -3.0794 Debye
        Dipole field         -0.0007 Ry au, 
 
        Potential amp.        0.0813 Ry
        Total length         54.2615 bohr
 
 
     Adding external electric field

     Computed dipole along edir(3) : 
        Dipole               -1.2115 Ry au,         -3.0794 Debye
        Dipole field         -0.0007 Ry au, 
 
        Potential amp.        0.0813 Ry
        Total length         54.2615 bohr
 

     total cpu time spent up to now is       91.6 secs

     total energy              =   -7395.39470937 Ry
     estimated scf accuracy    <      10.43099744 Ry

     total magnetization       =    82.00 Bohr mag/cell
     absolute magnetization    =   116.28 Bohr mag/cell

     iteration #  7     ecut=    50.00 Ry     beta= 0.10
     Davidson diagonalization with overlap
     ethr =  9.68E-04,  avg # of iterations =  4.5

     negative rho (up, down):  5.034E-04 7.093E-04
 
     Adding external electric field

     Computed dipole along edir(3) : 
        Dipole               -1.2059 Ry au,         -3.0650 Debye
        Dipole field         -0.0007 Ry au, 
 
        Potential amp.        0.0809 Ry
        Total length         54.2615 bohr
 
 
     Adding external electric field

     Computed dipole along edir(3) : 
        Dipole               -1.2059 Ry au,         -3.0650 Debye
        Dipole field         -0.0007 Ry au, 
 
        Potential amp.        0.0809 Ry
        Total length         54.2615 bohr
 

     total cpu time spent up to now is      109.2 secs

     total energy              =   -7397.61028871 Ry
     estimated scf accuracy    <      10.54720695 Ry

     total magnetization       =    71.60 Bohr mag/cell
     absolute magnetization    =    89.02 Bohr mag/cell

     iteration #  8     ecut=    50.00 Ry     beta= 0.10
     Davidson diagonalization with overlap
     ethr =  9.68E-04,  avg # of iterations =  1.0

     negative rho (up, down):  4.321E-04 6.269E-04
 
     Adding external electric field

     Computed dipole along edir(3) : 
        Dipole               -1.1669 Ry au,         -2.9658 Debye
        Dipole field         -0.0007 Ry au, 
 
        Potential amp.        0.0783 Ry
        Total length         54.2615 bohr
 
 
     Adding external electric field

     Computed dipole along edir(3) : 
        Dipole               -1.1669 Ry au,         -2.9658 Debye
        Dipole field         -0.0007 Ry au, 
 
        Potential amp.        0.0783 Ry
        Total length         54.2615 bohr
 

     total cpu time spent up to now is      119.1 secs

     total energy              =   -7397.58595022 Ry
     estimated scf accuracy    <      10.12725531 Ry

     total magnetization       =    71.79 Bohr mag/cell
     absolute magnetization    =    88.82 Bohr mag/cell

     iteration #  9     ecut=    50.00 Ry     beta= 0.10
     Davidson diagonalization with overlap
     ethr =  9.39E-04,  avg # of iterations =  1.0

     negative rho (up, down):  1.587E-04 3.785E-04
 
     Adding external electric field

     Computed dipole along edir(3) : 
        Dipole               -0.9919 Ry au,         -2.5212 Debye
        Dipole field         -0.0006 Ry au, 
 
        Potential amp.        0.0666 Ry
        Total length         54.2615 bohr
 
 
     Adding external electric field

     Computed dipole along edir(3) : 
        Dipole               -0.9919 Ry au,         -2.5212 Debye
        Dipole field         -0.0006 Ry au, 
 
        Potential amp.        0.0666 Ry
        Total length         54.2615 bohr
 

     total cpu time spent up to now is      129.7 secs

     total energy              =   -7397.38694957 Ry
     estimated scf accuracy    <       9.00470633 Ry

     total magnetization       =    72.00 Bohr mag/cell
     absolute magnetization    =    88.32 Bohr mag/cell

     iteration # 10     ecut=    50.00 Ry     beta= 0.10
     Davidson diagonalization with overlap
     ethr =  8.35E-04,  avg # of iterations =  1.5

     negative rho (up, down):  1.427E-04 4.481E-04
 
     Adding external electric field

     Computed dipole along edir(3) : 
        Dipole               -1.0783 Ry au,         -2.7409 Debye
        Dipole field         -0.0007 Ry au, 
 
        Potential amp.        0.0724 Ry
        Total length         54.2615 bohr
 
 
     Adding external electric field

     Computed dipole along edir(3) : 
        Dipole               -1.0783 Ry au,         -2.7409 Debye
        Dipole field         -0.0007 Ry au, 
 
        Potential amp.        0.0724 Ry
        Total length         54.2615 bohr
 

     total cpu time spent up to now is      143.5 secs

     total energy              =   -7397.57573329 Ry
     estimated scf accuracy    <       2.46631803 Ry

     total magnetization       =    77.64 Bohr mag/cell
     absolute magnetization    =    90.17 Bohr mag/cell

     iteration # 11     ecut=    50.00 Ry     beta= 0.10
     Davidson diagonalization with overlap
     ethr =  2.29E-04,  avg # of iterations =  5.5

     negative rho (up, down):  1.430E-04 6.059E-04
 
     Adding external electric field

     Computed dipole along edir(3) : 
        Dipole               -1.2262 Ry au,         -3.1167 Debye
        Dipole field         -0.0008 Ry au, 
 
        Potential amp.        0.0823 Ry
        Total length         54.2615 bohr
 
 
     Adding external electric field

     Computed dipole along edir(3) : 
        Dipole               -1.2262 Ry au,         -3.1167 Debye
        Dipole field         -0.0008 Ry au, 
 
        Potential amp.        0.0823 Ry
        Total length         54.2615 bohr
 

     total cpu time spent up to now is      156.5 secs

     total energy              =   -7397.66883800 Ry
     estimated scf accuracy    <       2.18738827 Ry

     total magnetization       =    76.54 Bohr mag/cell
     absolute magnetization    =    88.46 Bohr mag/cell

     iteration # 12     ecut=    50.00 Ry     beta= 0.10
     Davidson diagonalization with overlap
     c_bands:  1 eigenvalues not converged
     ethr =  2.03E-04,  avg # of iterations = 12.0

     negative rho (up, down):  2.700E-04 1.069E-03
 
     Adding external electric field

     Computed dipole along edir(3) : 
        Dipole               -1.2294 Ry au,         -3.1248 Debye
        Dipole field         -0.0008 Ry au, 
 
        Potential amp.        0.0825 Ry
        Total length         54.2615 bohr
 
 
     Adding external electric field

     Computed dipole along edir(3) : 
        Dipole               -1.2294 Ry au,         -3.1248 Debye
        Dipole field         -0.0008 Ry au, 
 
        Potential amp.        0.0825 Ry
        Total length         54.2615 bohr
 

     total cpu time spent up to now is      172.4 secs

     total energy              =   -7397.98532056 Ry
     estimated scf accuracy    <       0.79858009 Ry

     total magnetization       =    81.84 Bohr mag/cell
     absolute magnetization    =    89.14 Bohr mag/cell

     iteration # 13     ecut=    50.00 Ry     beta= 0.10
     Davidson diagonalization with overlap
     ethr =  7.41E-05,  avg # of iterations = 17.0

     negative rho (up, down):  1.384E-04 7.354E-04
 
     Adding external electric field

     Computed dipole along edir(3) : 
        Dipole               -1.1437 Ry au,         -2.9069 Debye
        Dipole field         -0.0007 Ry au, 
 
        Potential amp.        0.0768 Ry
        Total length         54.2615 bohr
 
 
     Adding external electric field

     Computed dipole along edir(3) : 
        Dipole               -1.1437 Ry au,         -2.9069 Debye
        Dipole field         -0.0007 Ry au, 
 
        Potential amp.        0.0768 Ry
        Total length         54.2615 bohr
 

     total cpu time spent up to now is      198.0 secs

     total energy              =   -7398.03503784 Ry
     estimated scf accuracy    <       0.94137900 Ry

     total magnetization       =    81.88 Bohr mag/cell
     absolute magnetization    =    86.55 Bohr mag/cell

     iteration # 14     ecut=    50.00 Ry     beta= 0.10
     Davidson diagonalization with overlap
     ethr =  7.41E-05,  avg # of iterations =  1.0

     negative rho (up, down):  3.034E-06 1.125E-04
 
     Adding external electric field

     Computed dipole along edir(3) : 
        Dipole               -0.9979 Ry au,         -2.5365 Debye
        Dipole field         -0.0006 Ry au, 
 
        Potential amp.        0.0670 Ry
        Total length         54.2615 bohr
 
 
     Adding external electric field

     Computed dipole along edir(3) : 
        Dipole               -0.9979 Ry au,         -2.5365 Debye
        Dipole field         -0.0006 Ry au, 
 
        Potential amp.        0.0670 Ry
        Total length         54.2615 bohr
 

     total cpu time spent up to now is      207.3 secs

     total energy              =   -7398.01922746 Ry
     estimated scf accuracy    <       0.75642646 Ry

     total magnetization       =    81.88 Bohr mag/cell
     absolute magnetization    =    85.68 Bohr mag/cell

     iteration # 15     ecut=    50.00 Ry     beta= 0.10
     Davidson diagonalization with overlap
     ethr =  7.02E-05,  avg # of iterations =  1.5

     negative rho (up, down):  1.590E-06 1.136E-04
 
     Adding external electric field

     Computed dipole along edir(3) : 
        Dipole               -1.0113 Ry au,         -2.5704 Debye
        Dipole field         -0.0006 Ry au, 
 
        Potential amp.        0.0679 Ry
        Total length         54.2615 bohr
 
 
     Adding external electric field

     Computed dipole along edir(3) : 
        Dipole               -1.0113 Ry au,         -2.5704 Debye
        Dipole field         -0.0006 Ry au, 
 
        Potential amp.        0.0679 Ry
        Total length         54.2615 bohr
 

     total cpu time spent up to now is      217.6 secs

     total energy              =   -7398.02113090 Ry
     estimated scf accuracy    <       0.57592933 Ry

     total magnetization       =    81.06 Bohr mag/cell
     absolute magnetization    =    84.15 Bohr mag/cell

     iteration # 16     ecut=    50.00 Ry     beta= 0.10
     Davidson diagonalization with overlap
     ethr =  5.34E-05,  avg # of iterations =  1.0

     negative rho (up, down):  5.908E-07 7.958E-05
 
     Adding external electric field

     Computed dipole along edir(3) : 
        Dipole               -0.9870 Ry au,         -2.5088 Debye
        Dipole field         -0.0006 Ry au, 
 
        Potential amp.        0.0662 Ry
        Total length         54.2615 bohr
 
 
     Adding external electric field

     Computed dipole along edir(3) : 
        Dipole               -0.9870 Ry au,         -2.5088 Debye
        Dipole field         -0.0006 Ry au, 
 
        Potential amp.        0.0662 Ry
        Total length         54.2615 bohr
 

     total cpu time spent up to now is      227.7 secs

     total energy              =   -7398.02931151 Ry
     estimated scf accuracy    <       0.29498942 Ry

     total magnetization       =    81.06 Bohr mag/cell
     absolute magnetization    =    84.08 Bohr mag/cell

     iteration # 17     ecut=    50.00 Ry     beta= 0.10
     Davidson diagonalization with overlap
     ethr =  2.74E-05,  avg # of iterations =  1.0

     negative rho (up, down):  2.391E-07 1.745E-05
 
     Adding external electric field

     Computed dipole along edir(3) : 
        Dipole               -0.9314 Ry au,         -2.3674 Debye
        Dipole field         -0.0006 Ry au, 
 
        Potential amp.        0.0625 Ry
        Total length         54.2615 bohr
 
 
     Adding external electric field

     Computed dipole along edir(3) : 
        Dipole               -0.9314 Ry au,         -2.3674 Debye
        Dipole field         -0.0006 Ry au, 
 
        Potential amp.        0.0625 Ry
        Total length         54.2615 bohr
 

     total cpu time spent up to now is      238.3 secs

     total energy              =   -7398.03836028 Ry
     estimated scf accuracy    <       0.17889798 Ry

     total magnetization       =    81.02 Bohr mag/cell
     absolute magnetization    =    83.57 Bohr mag/cell

     iteration # 18     ecut=    50.00 Ry     beta= 0.10
     Davidson diagonalization with overlap
     ethr =  1.66E-05,  avg # of iterations =  1.5

     negative rho (up, down):  2.938E-07 4.755E-06
 
     Adding external electric field

     Computed dipole along edir(3) : 
        Dipole               -0.8972 Ry au,         -2.2804 Debye
        Dipole field         -0.0006 Ry au, 
 
        Potential amp.        0.0602 Ry
        Total length         54.2615 bohr
 
 
     Adding external electric field

     Computed dipole along edir(3) : 
        Dipole               -0.8972 Ry au,         -2.2804 Debye
        Dipole field         -0.0006 Ry au, 
 
        Potential amp.        0.0602 Ry
        Total length         54.2615 bohr
 

     total cpu time spent up to now is      248.4 secs

     total energy              =   -7398.04055526 Ry
     estimated scf accuracy    <       0.13546896 Ry

     total magnetization       =    80.69 Bohr mag/cell
     absolute magnetization    =    82.66 Bohr mag/cell

     iteration # 19     ecut=    50.00 Ry     beta= 0.10
     Davidson diagonalization with overlap
     ethr =  1.26E-05,  avg # of iterations =  1.5

     negative rho (up, down):  7.261E-08 2.038E-06
 
     Adding external electric field

     Computed dipole along edir(3) : 
        Dipole               -0.8716 Ry au,         -2.2153 Debye
        Dipole field         -0.0005 Ry au, 
 
        Potential amp.        0.0585 Ry
        Total length         54.2615 bohr
 
 
     Adding external electric field

     Computed dipole along edir(3) : 
        Dipole               -0.8716 Ry au,         -2.2153 Debye
        Dipole field         -0.0005 Ry au, 
 
        Potential amp.        0.0585 Ry
        Total length         54.2615 bohr
 

     total cpu time spent up to now is      258.6 secs

     total energy              =   -7398.03888867 Ry
     estimated scf accuracy    <       0.08521887 Ry

     total magnetization       =    80.85 Bohr mag/cell
     absolute magnetization    =    82.53 Bohr mag/cell

     iteration # 20     ecut=    50.00 Ry     beta= 0.10
     Davidson diagonalization with overlap
     ethr =  7.91E-06,  avg # of iterations =  2.0

     negative rho (up, down):  3.906E-08 1.197E-06
 
     Adding external electric field

     Computed dipole along edir(3) : 
        Dipole               -0.8665 Ry au,         -2.2024 Debye
        Dipole field         -0.0005 Ry au, 
 
        Potential amp.        0.0582 Ry
        Total length         54.2615 bohr
 
 
     Adding external electric field

     Computed dipole along edir(3) : 
        Dipole               -0.8665 Ry au,         -2.2024 Debye
        Dipole field         -0.0005 Ry au, 
 
        Potential amp.        0.0582 Ry
        Total length         54.2615 bohr
 

     total cpu time spent up to now is      269.5 secs

     total energy              =   -7398.04127605 Ry
     estimated scf accuracy    <       0.06924703 Ry

     total magnetization       =    80.11 Bohr mag/cell
     absolute magnetization    =    81.73 Bohr mag/cell

     iteration # 21     ecut=    50.00 Ry     beta= 0.10
     Davidson diagonalization with overlap
     ethr =  6.42E-06,  avg # of iterations =  2.0

     negative rho (up, down):  8.282E-08 1.656E-06
 
     Adding external electric field

     Computed dipole along edir(3) : 
        Dipole               -0.8590 Ry au,         -2.1834 Debye
        Dipole field         -0.0005 Ry au, 
 
        Potential amp.        0.0577 Ry
        Total length         54.2615 bohr
 
 
     Adding external electric field

     Computed dipole along edir(3) : 
        Dipole               -0.8590 Ry au,         -2.1834 Debye
        Dipole field         -0.0005 Ry au, 
 
        Potential amp.        0.0577 Ry
        Total length         54.2615 bohr
 

     total cpu time spent up to now is      281.0 secs

     total energy              =   -7398.04082268 Ry
     estimated scf accuracy    <       0.07997774 Ry

     total magnetization       =    80.10 Bohr mag/cell
     absolute magnetization    =    81.72 Bohr mag/cell

     iteration # 22     ecut=    50.00 Ry     beta= 0.10
     Davidson diagonalization with overlap
     ethr =  6.42E-06,  avg # of iterations =  2.0

     negative rho (up, down):  7.761E-07 1.358E-05
 
     Adding external electric field

     Computed dipole along edir(3) : 
        Dipole               -0.8056 Ry au,         -2.0476 Debye
        Dipole field         -0.0005 Ry au, 
 
        Potential amp.        0.0541 Ry
        Total length         54.2615 bohr
 
 
     Adding external electric field

     Computed dipole along edir(3) : 
        Dipole               -0.8056 Ry au,         -2.0476 Debye
        Dipole field         -0.0005 Ry au, 
 
        Potential amp.        0.0541 Ry
        Total length         54.2615 bohr
 

     total cpu time spent up to now is      291.6 secs

     total energy              =   -7398.03798461 Ry
     estimated scf accuracy    <       0.05810004 Ry

     total magnetization       =    80.25 Bohr mag/cell
     absolute magnetization    =    81.84 Bohr mag/cell

     iteration # 23     ecut=    50.00 Ry     beta= 0.10
     Davidson diagonalization with overlap
     ethr =  5.39E-06,  avg # of iterations =  2.0

     negative rho (up, down):  3.378E-07 1.040E-05
 
     Adding external electric field

     Computed dipole along edir(3) : 
        Dipole               -0.7578 Ry au,         -1.9262 Debye
        Dipole field         -0.0005 Ry au, 
 
        Potential amp.        0.0509 Ry
        Total length         54.2615 bohr
 
 
     Adding external electric field

     Computed dipole along edir(3) : 
        Dipole               -0.7578 Ry au,         -1.9262 Debye
        Dipole field         -0.0005 Ry au, 
 
        Potential amp.        0.0509 Ry
        Total length         54.2615 bohr
 

     total cpu time spent up to now is      302.8 secs

     total energy              =   -7398.03845032 Ry
     estimated scf accuracy    <       0.03135830 Ry

     total magnetization       =    80.72 Bohr mag/cell
     absolute magnetization    =    82.22 Bohr mag/cell

     iteration # 24     ecut=    50.00 Ry     beta= 0.10
     Davidson diagonalization with overlap
     c_bands:  3 eigenvalues not converged
     ethr =  2.91E-06,  avg # of iterations = 11.0

     negative rho (up, down):  4.255E-07 1.492E-05
 
     Adding external electric field

     Computed dipole along edir(3) : 
        Dipole               -0.7295 Ry au,         -1.8542 Debye
        Dipole field         -0.0005 Ry au, 
 
        Potential amp.        0.0490 Ry
        Total length         54.2615 bohr
 
 
     Adding external electric field

     Computed dipole along edir(3) : 
        Dipole               -0.7295 Ry au,         -1.8542 Debye
        Dipole field         -0.0005 Ry au, 
 
        Potential amp.        0.0490 Ry
        Total length         54.2615 bohr
 

     total cpu time spent up to now is      317.5 secs

     total energy              =   -7398.03816198 Ry
     estimated scf accuracy    <       0.03713475 Ry

     total magnetization       =    80.49 Bohr mag/cell
     absolute magnetization    =    82.00 Bohr mag/cell

     iteration # 25     ecut=    50.00 Ry     beta= 0.10
     Davidson diagonalization with overlap
     ethr =  2.91E-06,  avg # of iterations = 22.0

     negative rho (up, down):  4.476E-07 8.362E-06
 
     Adding external electric field

     Computed dipole along edir(3) : 
        Dipole               -0.7358 Ry au,         -1.8703 Debye
        Dipole field         -0.0005 Ry au, 
 
        Potential amp.        0.0494 Ry
        Total length         54.2615 bohr
 
 
     Adding external electric field

     Computed dipole along edir(3) : 
        Dipole               -0.7358 Ry au,         -1.8703 Debye
        Dipole field         -0.0005 Ry au, 
 
        Potential amp.        0.0494 Ry
        Total length         54.2615 bohr
 

     total cpu time spent up to now is      345.0 secs

     total energy              =   -7398.03862731 Ry
     estimated scf accuracy    <       0.04078468 Ry

     total magnetization       =    80.49 Bohr mag/cell
     absolute magnetization    =    81.96 Bohr mag/cell

     iteration # 26     ecut=    50.00 Ry     beta= 0.10
     Davidson diagonalization with overlap
     c_bands:  1 eigenvalues not converged
     ethr =  2.91E-06,  avg # of iterations = 11.0

     negative rho (up, down):  3.795E-07 7.369E-06
 
     Adding external electric field

     Computed dipole along edir(3) : 
        Dipole               -0.7299 Ry au,         -1.8552 Debye
        Dipole field         -0.0005 Ry au, 
 
        Potential amp.        0.0490 Ry
        Total length         54.2615 bohr
 
 
     Adding external electric field

     Computed dipole along edir(3) : 
        Dipole               -0.7299 Ry au,         -1.8552 Debye
        Dipole field         -0.0005 Ry au, 
 
        Potential amp.        0.0490 Ry
        Total length         54.2615 bohr
 

     total cpu time spent up to now is      359.2 secs

     total energy              =   -7398.03805544 Ry
     estimated scf accuracy    <       0.03335385 Ry

     total magnetization       =    80.35 Bohr mag/cell
     absolute magnetization    =    81.84 Bohr mag/cell

     iteration # 27     ecut=    50.00 Ry     beta= 0.10
     Davidson diagonalization with overlap
     ethr =  2.91E-06,  avg # of iterations =  5.5

     negative rho (up, down):  5.866E-07 5.056E-06
 
     Adding external electric field

     Computed dipole along edir(3) : 
        Dipole               -0.7398 Ry au,         -1.8804 Debye
        Dipole field         -0.0005 Ry au, 
 
        Potential amp.        0.0497 Ry
        Total length         54.2615 bohr
 
 
     Adding external electric field

     Computed dipole along edir(3) : 
        Dipole               -0.7398 Ry au,         -1.8804 Debye
        Dipole field         -0.0005 Ry au, 
 
        Potential amp.        0.0497 Ry
        Total length         54.2615 bohr
 

     total cpu time spent up to now is      371.1 secs

     total energy              =   -7398.03899595 Ry
     estimated scf accuracy    <       0.03563902 Ry

     total magnetization       =    80.47 Bohr mag/cell
     absolute magnetization    =    82.14 Bohr mag/cell

     iteration # 28     ecut=    50.00 Ry     beta= 0.10
     Davidson diagonalization with overlap
     ethr =  2.91E-06,  avg # of iterations =  1.5

     negative rho (up, down):  5.859E-07 7.193E-06
 
     Adding external electric field

     Computed dipole along edir(3) : 
        Dipole               -0.7343 Ry au,         -1.8664 Debye
        Dipole field         -0.0005 Ry au, 
 
        Potential amp.        0.0493 Ry
        Total length         54.2615 bohr
 
 
     Adding external electric field

     Computed dipole along edir(3) : 
        Dipole               -0.7343 Ry au,         -1.8664 Debye
        Dipole field         -0.0005 Ry au, 
 
        Potential amp.        0.0493 Ry
        Total length         54.2615 bohr
 

     total cpu time spent up to now is      380.9 secs

     total energy              =   -7398.03874991 Ry
     estimated scf accuracy    <       0.03000130 Ry

     total magnetization       =    80.39 Bohr mag/cell
     absolute magnetization    =    82.03 Bohr mag/cell

     iteration # 29     ecut=    50.00 Ry     beta= 0.10
     Davidson diagonalization with overlap
     ethr =  2.78E-06,  avg # of iterations =  1.5

     negative rho (up, down):  7.825E-07 7.203E-06
 
     Adding external electric field

     Computed dipole along edir(3) : 
        Dipole               -0.7454 Ry au,         -1.8947 Debye
        Dipole field         -0.0005 Ry au, 
 
        Potential amp.        0.0500 Ry
        Total length         54.2615 bohr
 
 
     Adding external electric field

     Computed dipole along edir(3) : 
        Dipole               -0.7454 Ry au,         -1.8947 Debye
        Dipole field         -0.0005 Ry au, 
 
        Potential amp.        0.0500 Ry
        Total length         54.2615 bohr
 

     total cpu time spent up to now is      390.7 secs

     total energy              =   -7398.03859330 Ry
     estimated scf accuracy    <       0.02687411 Ry

     total magnetization       =    80.33 Bohr mag/cell
     absolute magnetization    =    81.99 Bohr mag/cell

     iteration # 30     ecut=    50.00 Ry     beta= 0.10
     Davidson diagonalization with overlap
     ethr =  2.49E-06,  avg # of iterations =  2.0

     negative rho (up, down):  2.044E-06 3.790E-06
 
     Adding external electric field

     Computed dipole along edir(3) : 
        Dipole               -0.7491 Ry au,         -1.9040 Debye
        Dipole field         -0.0005 Ry au, 
 
        Potential amp.        0.0503 Ry
        Total length         54.2615 bohr
 
 
     Adding external electric field

     Computed dipole along edir(3) : 
        Dipole               -0.7491 Ry au,         -1.9040 Debye
        Dipole field         -0.0005 Ry au, 
 
        Potential amp.        0.0503 Ry
        Total length         54.2615 bohr
 

     total cpu time spent up to now is      400.8 secs

     total energy              =   -7398.03928488 Ry
     estimated scf accuracy    <       0.02215336 Ry

     total magnetization       =    80.33 Bohr mag/cell
     absolute magnetization    =    82.03 Bohr mag/cell

     iteration # 31     ecut=    50.00 Ry     beta= 0.10
     Davidson diagonalization with overlap
     ethr =  2.06E-06,  avg # of iterations =  2.0

     negative rho (up, down):  2.603E-06 4.447E-06
 
     Adding external electric field

     Computed dipole along edir(3) : 
        Dipole               -0.7605 Ry au,         -1.9330 Debye
        Dipole field         -0.0005 Ry au, 
 
        Potential amp.        0.0510 Ry
        Total length         54.2615 bohr
 
 
     Adding external electric field

     Computed dipole along edir(3) : 
        Dipole               -0.7605 Ry au,         -1.9330 Debye
        Dipole field         -0.0005 Ry au, 
 
        Potential amp.        0.0510 Ry
        Total length         54.2615 bohr
 

     total cpu time spent up to now is      411.0 secs

     total energy              =   -7398.03926499 Ry
     estimated scf accuracy    <       0.02238092 Ry

     total magnetization       =    80.39 Bohr mag/cell
     absolute magnetization    =    82.00 Bohr mag/cell

     iteration # 32     ecut=    50.00 Ry     beta= 0.10
     Davidson diagonalization with overlap
     ethr =  2.06E-06,  avg # of iterations =  1.5

     negative rho (up, down):  3.052E-06 5.268E-06
 
     Adding external electric field

     Computed dipole along edir(3) : 
        Dipole               -0.7563 Ry au,         -1.9224 Debye
        Dipole field         -0.0005 Ry au, 
 
        Potential amp.        0.0508 Ry
        Total length         54.2615 bohr
 
 
     Adding external electric field

     Computed dipole along edir(3) : 
        Dipole               -0.7563 Ry au,         -1.9224 Debye
        Dipole field         -0.0005 Ry au, 
 
        Potential amp.        0.0508 Ry
        Total length         54.2615 bohr
 

     total cpu time spent up to now is      420.3 secs

     total energy              =   -7398.03927636 Ry
     estimated scf accuracy    <       0.02155513 Ry

     total magnetization       =    80.48 Bohr mag/cell
     absolute magnetization    =    82.10 Bohr mag/cell

     iteration # 33     ecut=    50.00 Ry     beta= 0.10
     Davidson diagonalization with overlap
     ethr =  2.00E-06,  avg # of iterations =  2.0

     negative rho (up, down):  4.147E-06 6.924E-06
 
     Adding external electric field

     Computed dipole along edir(3) : 
        Dipole               -0.7353 Ry au,         -1.8690 Debye
        Dipole field         -0.0005 Ry au, 
 
        Potential amp.        0.0494 Ry
        Total length         54.2615 bohr
 
 
     Adding external electric field

     Computed dipole along edir(3) : 
        Dipole               -0.7353 Ry au,         -1.8690 Debye
        Dipole field         -0.0005 Ry au, 
 
        Potential amp.        0.0494 Ry
        Total length         54.2615 bohr
 

     total cpu time spent up to now is      430.7 secs

     total energy              =   -7398.03912367 Ry
     estimated scf accuracy    <       0.02165981 Ry

     total magnetization       =    80.47 Bohr mag/cell
     absolute magnetization    =    82.09 Bohr mag/cell

     iteration # 34     ecut=    50.00 Ry     beta= 0.10
     Davidson diagonalization with overlap
     ethr =  2.00E-06,  avg # of iterations =  2.0

     negative rho (up, down):  6.497E-06 7.459E-06
 
     Adding external electric field

     Computed dipole along edir(3) : 
        Dipole               -0.7272 Ry au,         -1.8485 Debye
        Dipole field         -0.0004 Ry au, 
 
        Potential amp.        0.0488 Ry
        Total length         54.2615 bohr
 
 
     Adding external electric field

     Computed dipole along edir(3) : 
        Dipole               -0.7272 Ry au,         -1.8485 Debye
        Dipole field         -0.0004 Ry au, 
 
        Potential amp.        0.0488 Ry
        Total length         54.2615 bohr
 

     total cpu time spent up to now is      441.1 secs

     total energy              =   -7398.03895968 Ry
     estimated scf accuracy    <       0.02187008 Ry

     total magnetization       =    80.47 Bohr mag/cell
     absolute magnetization    =    82.07 Bohr mag/cell

     iteration # 35     ecut=    50.00 Ry     beta= 0.10
     Davidson diagonalization with overlap
     ethr =  2.00E-06,  avg # of iterations =  1.5

     negative rho (up, down):  4.970E-06 7.374E-06
 
     Adding external electric field

     Computed dipole along edir(3) : 
        Dipole               -0.7324 Ry au,         -1.8615 Debye
        Dipole field         -0.0005 Ry au, 
 
        Potential amp.        0.0492 Ry
        Total length         54.2615 bohr
 
 
     Adding external electric field

     Computed dipole along edir(3) : 
        Dipole               -0.7324 Ry au,         -1.8615 Debye
        Dipole field         -0.0005 Ry au, 
 
        Potential amp.        0.0492 Ry
        Total length         54.2615 bohr
 

     total cpu time spent up to now is      450.7 secs

     total energy              =   -7398.03910077 Ry
     estimated scf accuracy    <       0.02112721 Ry

     total magnetization       =    80.43 Bohr mag/cell
     absolute magnetization    =    82.04 Bohr mag/cell

     iteration # 36     ecut=    50.00 Ry     beta= 0.10
     Davidson diagonalization with overlap
     ethr =  1.96E-06,  avg # of iterations =  1.5

     negative rho (up, down):  9.305E-06 1.106E-05
 
     Adding external electric field

     Computed dipole along edir(3) : 
        Dipole               -0.6970 Ry au,         -1.7715 Debye
        Dipole field         -0.0004 Ry au, 
 
        Potential amp.        0.0468 Ry
        Total length         54.2615 bohr
 
 
     Adding external electric field

     Computed dipole along edir(3) : 
        Dipole               -0.6970 Ry au,         -1.7715 Debye
        Dipole field         -0.0004 Ry au, 
 
        Potential amp.        0.0468 Ry
        Total length         54.2615 bohr
 

     total cpu time spent up to now is      460.7 secs

     total energy              =   -7398.03855119 Ry
     estimated scf accuracy    <       0.02073685 Ry

     total magnetization       =    80.44 Bohr mag/cell
     absolute magnetization    =    82.04 Bohr mag/cell

     iteration # 37     ecut=    50.00 Ry     beta= 0.10
     Davidson diagonalization with overlap
     ethr =  1.92E-06,  avg # of iterations =  2.0

     negative rho (up, down):  6.736E-06 5.320E-06
 
     Adding external electric field

     Computed dipole along edir(3) : 
        Dipole               -0.7159 Ry au,         -1.8196 Debye
        Dipole field         -0.0004 Ry au, 
 
        Potential amp.        0.0480 Ry
        Total length         54.2615 bohr
 
 
     Adding external electric field

     Computed dipole along edir(3) : 
        Dipole               -0.7159 Ry au,         -1.8196 Debye
        Dipole field         -0.0004 Ry au, 
 
        Potential amp.        0.0480 Ry
        Total length         54.2615 bohr
 

     total cpu time spent up to now is      471.3 secs

     total energy              =   -7398.03875460 Ry
     estimated scf accuracy    <       0.02200751 Ry

     total magnetization       =    80.44 Bohr mag/cell
     absolute magnetization    =    82.10 Bohr mag/cell

     iteration # 38     ecut=    50.00 Ry     beta= 0.10
     Davidson diagonalization with overlap
     ethr =  1.92E-06,  avg # of iterations =  1.5

     negative rho (up, down):  4.790E-06 8.924E-06
 
     Adding external electric field

     Computed dipole along edir(3) : 
        Dipole               -0.7374 Ry au,         -1.8742 Debye
        Dipole field         -0.0005 Ry au, 
 
        Potential amp.        0.0495 Ry
        Total length         54.2615 bohr
 
 
     Adding external electric field

     Computed dipole along edir(3) : 
        Dipole               -0.7374 Ry au,         -1.8742 Debye
        Dipole field         -0.0005 Ry au, 
 
        Potential amp.        0.0495 Ry
        Total length         54.2615 bohr
 

     total cpu time spent up to now is      481.1 secs

     total energy              =   -7398.03906650 Ry
     estimated scf accuracy    <       0.02376291 Ry

     total magnetization       =    80.48 Bohr mag/cell
     absolute magnetization    =    82.11 Bohr mag/cell

     iteration # 39     ecut=    50.00 Ry     beta= 0.10
     Davidson diagonalization with overlap
     ethr =  1.92E-06,  avg # of iterations =  2.0

     negative rho (up, down):  1.328E-05 3.099E-05
 
     Adding external electric field

     Computed dipole along edir(3) : 
        Dipole               -0.6468 Ry au,         -1.6440 Debye
        Dipole field         -0.0004 Ry au, 
 
        Potential amp.        0.0434 Ry
        Total length         54.2615 bohr
 
 
     Adding external electric field

     Computed dipole along edir(3) : 
        Dipole               -0.6468 Ry au,         -1.6440 Debye
        Dipole field         -0.0004 Ry au, 
 
        Potential amp.        0.0434 Ry
        Total length         54.2615 bohr
 

     total cpu time spent up to now is      491.6 secs

     total energy              =   -7398.03773784 Ry
     estimated scf accuracy    <       0.02078177 Ry

     total magnetization       =    80.42 Bohr mag/cell
     absolute magnetization    =    82.04 Bohr mag/cell

     iteration # 40     ecut=    50.00 Ry     beta= 0.10
     Davidson diagonalization with overlap
     c_bands:  5 eigenvalues not converged
     ethr =  1.92E-06,  avg # of iterations = 11.0

     negative rho (up, down):  6.870E-06 1.585E-05
 
     Adding external electric field

     Computed dipole along edir(3) : 
        Dipole               -0.6771 Ry au,         -1.7211 Debye
        Dipole field         -0.0004 Ry au, 
 
        Potential amp.        0.0454 Ry
        Total length         54.2615 bohr
 
 
     Adding external electric field

     Computed dipole along edir(3) : 
        Dipole               -0.6771 Ry au,         -1.7211 Debye
        Dipole field         -0.0004 Ry au, 
 
        Potential amp.        0.0454 Ry
        Total length         54.2615 bohr
 

     total cpu time spent up to now is      506.9 secs

     total energy              =   -7398.03857490 Ry
     estimated scf accuracy    <       0.02269534 Ry

     total magnetization       =    80.40 Bohr mag/cell
     absolute magnetization    =    82.05 Bohr mag/cell

     iteration # 41     ecut=    50.00 Ry     beta= 0.10
     Davidson diagonalization with overlap
     c_bands:  3 eigenvalues not converged
     ethr =  1.92E-06,  avg # of iterations = 10.5

     negative rho (up, down):  1.073E-05 2.573E-05
 
     Adding external electric field

     Computed dipole along edir(3) : 
        Dipole               -0.6797 Ry au,         -1.7275 Debye
        Dipole field         -0.0004 Ry au, 
 
        Potential amp.        0.0456 Ry
        Total length         54.2615 bohr
 
 
     Adding external electric field

     Computed dipole along edir(3) : 
        Dipole               -0.6797 Ry au,         -1.7275 Debye
        Dipole field         -0.0004 Ry au, 
 
        Potential amp.        0.0456 Ry
        Total length         54.2615 bohr
 

     total cpu time spent up to now is      521.8 secs

     total energy              =   -7398.03727942 Ry
     estimated scf accuracy    <       0.02264650 Ry

     total magnetization       =    80.37 Bohr mag/cell
     absolute magnetization    =    81.99 Bohr mag/cell

     iteration # 42     ecut=    50.00 Ry     beta= 0.10
     Davidson diagonalization with overlap
     ethr =  1.92E-06,  avg # of iterations =  8.5

     negative rho (up, down):  4.175E-05 6.071E-05
 
     Adding external electric field

     Computed dipole along edir(3) : 
        Dipole               -0.6141 Ry au,         -1.5608 Debye
        Dipole field         -0.0004 Ry au, 
 
        Potential amp.        0.0412 Ry
        Total length         54.2615 bohr
 
 
     Adding external electric field

     Computed dipole along edir(3) : 
        Dipole               -0.6141 Ry au,         -1.5608 Debye
        Dipole field         -0.0004 Ry au, 
 
        Potential amp.        0.0412 Ry
        Total length         54.2615 bohr
 

     total cpu time spent up to now is      537.0 secs

     total energy              =   -7398.03780907 Ry
     estimated scf accuracy    <       0.02037778 Ry

     total magnetization       =    80.41 Bohr mag/cell
     absolute magnetization    =    82.10 Bohr mag/cell

     iteration # 43     ecut=    50.00 Ry     beta= 0.10
     Davidson diagonalization with overlap
     ethr =  1.89E-06,  avg # of iterations =  2.0

     negative rho (up, down):  3.774E-05 5.462E-05
 
     Adding external electric field

     Computed dipole along edir(3) : 
        Dipole               -0.6357 Ry au,         -1.6157 Debye
        Dipole field         -0.0004 Ry au, 
 
        Potential amp.        0.0427 Ry
        Total length         54.2615 bohr
 
 
     Adding external electric field

     Computed dipole along edir(3) : 
        Dipole               -0.6357 Ry au,         -1.6157 Debye
        Dipole field         -0.0004 Ry au, 
 
        Potential amp.        0.0427 Ry
        Total length         54.2615 bohr
 

     total cpu time spent up to now is      547.4 secs

     total energy              =   -7398.03812681 Ry
     estimated scf accuracy    <       0.01962510 Ry

     total magnetization       =    80.43 Bohr mag/cell
     absolute magnetization    =    82.02 Bohr mag/cell

     iteration # 44     ecut=    50.00 Ry     beta= 0.10
     Davidson diagonalization with overlap
     ethr =  1.82E-06,  avg # of iterations =  1.5

     negative rho (up, down):  1.247E-04 1.584E-04
 
     Adding external electric field

     Computed dipole along edir(3) : 
        Dipole               -0.5764 Ry au,         -1.4650 Debye
        Dipole field         -0.0004 Ry au, 
 
        Potential amp.        0.0387 Ry
        Total length         54.2615 bohr
 
 
     Adding external electric field

     Computed dipole along edir(3) : 
        Dipole               -0.5764 Ry au,         -1.4650 Debye
        Dipole field         -0.0004 Ry au, 
 
        Potential amp.        0.0387 Ry
        Total length         54.2615 bohr
 

     total cpu time spent up to now is      557.2 secs

     total energy              =   -7398.03781316 Ry
     estimated scf accuracy    <       0.01946970 Ry

     total magnetization       =    80.43 Bohr mag/cell
     absolute magnetization    =    81.97 Bohr mag/cell

     iteration # 45     ecut=    50.00 Ry     beta= 0.10
     Davidson diagonalization with overlap
     ethr =  1.81E-06,  avg # of iterations =  2.0

     negative rho (up, down):  1.686E-04 2.897E-04
 
     Adding external electric field

     Computed dipole along edir(3) : 
        Dipole               -0.5892 Ry au,         -1.4975 Debye
        Dipole field         -0.0004 Ry au, 
 
        Potential amp.        0.0395 Ry
        Total length         54.2615 bohr
 
 
     Adding external electric field

     Computed dipole along edir(3) : 
        Dipole               -0.5892 Ry au,         -1.4975 Debye
        Dipole field         -0.0004 Ry au, 
 
        Potential amp.        0.0395 Ry
        Total length         54.2615 bohr
 

     total cpu time spent up to now is      567.9 secs

     total energy              =   -7398.03762139 Ry
     estimated scf accuracy    <       0.02006675 Ry

     total magnetization       =    80.41 Bohr mag/cell
     absolute magnetization    =    81.99 Bohr mag/cell

     iteration # 46     ecut=    50.00 Ry     beta= 0.10
     Davidson diagonalization with overlap
     ethr =  1.81E-06,  avg # of iterations =  1.5

     negative rho (up, down):  1.046E-04 1.078E-04
 
     Adding external electric field

     Computed dipole along edir(3) : 
        Dipole               -0.5820 Ry au,         -1.4794 Debye
        Dipole field         -0.0004 Ry au, 
 
        Potential amp.        0.0391 Ry
        Total length         54.2615 bohr
 
 
     Adding external electric field

     Computed dipole along edir(3) : 
        Dipole               -0.5820 Ry au,         -1.4794 Debye
        Dipole field         -0.0004 Ry au, 
 
        Potential amp.        0.0391 Ry
        Total length         54.2615 bohr
 

     total cpu time spent up to now is      577.9 secs

     total energy              =   -7398.03784717 Ry
     estimated scf accuracy    <       0.02118157 Ry

     total magnetization       =    80.40 Bohr mag/cell
     absolute magnetization    =    81.98 Bohr mag/cell

     iteration # 47     ecut=    50.00 Ry     beta= 0.10
     Davidson diagonalization with overlap
     ethr =  1.81E-06,  avg # of iterations =  2.0

     negative rho (up, down):  6.717E-05 4.315E-05
 
     Adding external electric field

     Computed dipole along edir(3) : 
        Dipole               -0.6262 Ry au,         -1.5916 Debye
        Dipole field         -0.0004 Ry au, 
 
        Potential amp.        0.0420 Ry
        Total length         54.2615 bohr
 
 
     Adding external electric field

     Computed dipole along edir(3) : 
        Dipole               -0.6262 Ry au,         -1.5916 Debye
        Dipole field         -0.0004 Ry au, 
 
        Potential amp.        0.0420 Ry
        Total length         54.2615 bohr
 

     total cpu time spent up to now is      588.6 secs

     total energy              =   -7398.03765774 Ry
     estimated scf accuracy    <       0.02000731 Ry

     total magnetization       =    80.42 Bohr mag/cell
     absolute magnetization    =    82.01 Bohr mag/cell

     iteration # 48     ecut=    50.00 Ry     beta= 0.10
     Davidson diagonalization with overlap
     ethr =  1.81E-06,  avg # of iterations =  1.5

     negative rho (up, down):  1.566E-04 1.528E-04
 
     Adding external electric field

     Computed dipole along edir(3) : 
        Dipole               -0.5637 Ry au,         -1.4327 Debye
        Dipole field         -0.0003 Ry au, 
 
        Potential amp.        0.0378 Ry
        Total length         54.2615 bohr
 
 
     Adding external electric field

     Computed dipole along edir(3) : 
        Dipole               -0.5637 Ry au,         -1.4327 Debye
        Dipole field         -0.0003 Ry au, 
 
        Potential amp.        0.0378 Ry
        Total length         54.2615 bohr
 

     total cpu time spent up to now is      598.6 secs

     total energy              =   -7398.03776261 Ry
     estimated scf accuracy    <       0.02107639 Ry

     total magnetization       =    80.49 Bohr mag/cell
     absolute magnetization    =    82.06 Bohr mag/cell

     iteration # 49     ecut=    50.00 Ry     beta= 0.10
     Davidson diagonalization with overlap
     ethr =  1.81E-06,  avg # of iterations =  1.0

     negative rho (up, down):  4.855E-05 6.100E-05
 
     Adding external electric field

     Computed dipole along edir(3) : 
        Dipole               -0.5869 Ry au,         -1.4918 Debye
        Dipole field         -0.0004 Ry au, 
 
        Potential amp.        0.0394 Ry
        Total length         54.2615 bohr
 
 
     Adding external electric field

     Computed dipole along edir(3) : 
        Dipole               -0.5869 Ry au,         -1.4918 Debye
        Dipole field         -0.0004 Ry au, 
 
        Potential amp.        0.0394 Ry
        Total length         54.2615 bohr
 

     total cpu time spent up to now is      607.9 secs

     total energy              =   -7398.03775803 Ry
     estimated scf accuracy    <       0.02037456 Ry

     total magnetization       =    80.42 Bohr mag/cell
     absolute magnetization    =    82.01 Bohr mag/cell

     iteration # 50     ecut=    50.00 Ry     beta= 0.10
     Davidson diagonalization with overlap
     ethr =  1.81E-06,  avg # of iterations =  1.5

     negative rho (up, down):  1.878E-05 2.305E-05
 
     Adding external electric field

     Computed dipole along edir(3) : 
        Dipole               -0.6820 Ry au,         -1.7334 Debye
        Dipole field         -0.0004 Ry au, 
 
        Potential amp.        0.0458 Ry
        Total length         54.2615 bohr
 
 
     Adding external electric field

     Computed dipole along edir(3) : 
        Dipole               -0.6820 Ry au,         -1.7334 Debye
        Dipole field         -0.0004 Ry au, 
 
        Potential amp.        0.0458 Ry
        Total length         54.2615 bohr
 

     total cpu time spent up to now is      618.6 secs

     total energy              =   -7398.03858084 Ry
     estimated scf accuracy    <       0.02417435 Ry

     total magnetization       =    80.47 Bohr mag/cell
     absolute magnetization    =    82.07 Bohr mag/cell

     iteration # 51     ecut=    50.00 Ry     beta= 0.10
     Davidson diagonalization with overlap
     ethr =  1.81E-06,  avg # of iterations =  2.0

     negative rho (up, down):  2.056E-04 1.817E-04
 
     Adding external electric field

     Computed dipole along edir(3) : 
        Dipole               -0.5446 Ry au,         -1.3841 Debye
        Dipole field         -0.0003 Ry au, 
 
        Potential amp.        0.0365 Ry
        Total length         54.2615 bohr
 
 
     Adding external electric field

     Computed dipole along edir(3) : 
        Dipole               -0.5446 Ry au,         -1.3841 Debye
        Dipole field         -0.0003 Ry au, 
 
        Potential amp.        0.0365 Ry
        Total length         54.2615 bohr
 

     total cpu time spent up to now is      629.2 secs

     total energy              =   -7398.03750116 Ry
     estimated scf accuracy    <       0.02414449 Ry

     total magnetization       =    80.37 Bohr mag/cell
     absolute magnetization    =    81.91 Bohr mag/cell

     iteration # 52     ecut=    50.00 Ry     beta= 0.10
     Davidson diagonalization with overlap
     ethr =  1.81E-06,  avg # of iterations =  2.0

     negative rho (up, down):  6.048E-04 5.666E-04
 
     Adding external electric field

     Computed dipole along edir(3) : 
        Dipole               -0.5280 Ry au,         -1.3421 Debye
        Dipole field         -0.0003 Ry au, 
 
        Potential amp.        0.0354 Ry
        Total length         54.2615 bohr
 
 
     Adding external electric field

     Computed dipole along edir(3) : 
        Dipole               -0.5280 Ry au,         -1.3421 Debye
        Dipole field         -0.0003 Ry au, 
 
        Potential amp.        0.0354 Ry
        Total length         54.2615 bohr
 

     total cpu time spent up to now is      639.9 secs

     total energy              =   -7398.03728034 Ry
     estimated scf accuracy    <       0.02024226 Ry

     total magnetization       =    80.45 Bohr mag/cell
     absolute magnetization    =    82.00 Bohr mag/cell

     iteration # 53     ecut=    50.00 Ry     beta= 0.10
     Davidson diagonalization with overlap
     ethr =  1.81E-06,  avg # of iterations =  2.0

     negative rho (up, down):  1.186E-03 1.183E-03
 
     Adding external electric field

     Computed dipole along edir(3) : 
        Dipole               -0.4610 Ry au,         -1.1717 Debye
        Dipole field         -0.0003 Ry au, 
 
        Potential amp.        0.0309 Ry
        Total length         54.2615 bohr
 
 
     Adding external electric field

     Computed dipole along edir(3) : 
        Dipole               -0.4610 Ry au,         -1.1717 Debye
        Dipole field         -0.0003 Ry au, 
 
        Potential amp.        0.0309 Ry
        Total length         54.2615 bohr
 

     total cpu time spent up to now is      650.6 secs

     total energy              =   -7398.03679720 Ry
     estimated scf accuracy    <       0.01988040 Ry

     total magnetization       =    80.45 Bohr mag/cell
     absolute magnetization    =    81.95 Bohr mag/cell

     iteration # 54     ecut=    50.00 Ry     beta= 0.10
     Davidson diagonalization with overlap
     ethr =  1.81E-06,  avg # of iterations =  2.0

     negative rho (up, down):  2.120E-04 1.820E-04
 
     Adding external electric field

     Computed dipole along edir(3) : 
        Dipole               -0.5754 Ry au,         -1.4626 Debye
        Dipole field         -0.0004 Ry au, 
 
        Potential amp.        0.0386 Ry
        Total length         54.2615 bohr
 
 
     Adding external electric field

     Computed dipole along edir(3) : 
        Dipole               -0.5754 Ry au,         -1.4626 Debye
        Dipole field         -0.0004 Ry au, 
 
        Potential amp.        0.0386 Ry
        Total length         54.2615 bohr
 

     total cpu time spent up to now is      661.5 secs

     total energy              =   -7398.03755587 Ry
     estimated scf accuracy    <       0.02339406 Ry

     total magnetization       =    80.42 Bohr mag/cell
     absolute magnetization    =    82.04 Bohr mag/cell

     iteration # 55     ecut=    50.00 Ry     beta= 0.10
     Davidson diagonalization with overlap
     ethr =  1.81E-06,  avg # of iterations =  2.0

     negative rho (up, down):  3.351E-04 3.714E-04
 
     Adding external electric field

     Computed dipole along edir(3) : 
        Dipole               -0.5248 Ry au,         -1.3338 Debye
        Dipole field         -0.0003 Ry au, 
 
        Potential amp.        0.0352 Ry
        Total length         54.2615 bohr
 
 
     Adding external electric field

     Computed dipole along edir(3) : 
        Dipole               -0.5248 Ry au,         -1.3338 Debye
        Dipole field         -0.0003 Ry au, 
 
        Potential amp.        0.0352 Ry
        Total length         54.2615 bohr
 

     total cpu time spent up to now is      671.9 secs

     total energy              =   -7398.03755930 Ry
     estimated scf accuracy    <       0.02045425 Ry

     total magnetization       =    80.45 Bohr mag/cell
     absolute magnetization    =    81.97 Bohr mag/cell

     iteration # 56     ecut=    50.00 Ry     beta= 0.10
     Davidson diagonalization with overlap
     ethr =  1.81E-06,  avg # of iterations =  1.5

     negative rho (up, down):  5.869E-04 4.485E-04
 
     Adding external electric field

     Computed dipole along edir(3) : 
        Dipole               -0.4748 Ry au,         -1.2069 Debye
        Dipole field         -0.0003 Ry au, 
 
        Potential amp.        0.0319 Ry
        Total length         54.2615 bohr
 
 
     Adding external electric field

     Computed dipole along edir(3) : 
        Dipole               -0.4748 Ry au,         -1.2069 Debye
        Dipole field         -0.0003 Ry au, 
 
        Potential amp.        0.0319 Ry
        Total length         54.2615 bohr
 

     total cpu time spent up to now is      681.8 secs

     total energy              =   -7398.03671771 Ry
     estimated scf accuracy    <       0.01982631 Ry

     total magnetization       =    80.45 Bohr mag/cell
     absolute magnetization    =    81.95 Bohr mag/cell

     iteration # 57     ecut=    50.00 Ry     beta= 0.10
     Davidson diagonalization with overlap
     ethr =  1.81E-06,  avg # of iterations =  2.0

     negative rho (up, down):  3.901E-04 3.932E-04
 
     Adding external electric field

     Computed dipole along edir(3) : 
        Dipole               -0.5694 Ry au,         -1.4473 Debye
        Dipole field         -0.0004 Ry au, 
 
        Potential amp.        0.0382 Ry
        Total length         54.2615 bohr
 
 
     Adding external electric field

     Computed dipole along edir(3) : 
        Dipole               -0.5694 Ry au,         -1.4473 Debye
        Dipole field         -0.0004 Ry au, 
 
        Potential amp.        0.0382 Ry
        Total length         54.2615 bohr
 

     total cpu time spent up to now is      692.8 secs

     total energy              =   -7398.03778391 Ry
     estimated scf accuracy    <       0.02089551 Ry

     total magnetization       =    80.47 Bohr mag/cell
     absolute magnetization    =    81.93 Bohr mag/cell

     iteration # 58     ecut=    50.00 Ry     beta= 0.10
     Davidson diagonalization with overlap
     ethr =  1.81E-06,  avg # of iterations =  1.5

     negative rho (up, down):  1.150E-03 1.151E-03
 
     Adding external electric field

     Computed dipole along edir(3) : 
        Dipole               -0.3209 Ry au,         -0.8157 Debye
[...]
    -5.9988  -5.9819  -5.9511  -5.9333  -5.9075  -5.8867  -5.8492  -5.8444
    -5.8136  -5.7927  -5.7572  -5.7378  -5.7283  -5.7195  -5.6948  -5.6762
    -5.6721  -5.6675  -5.6398  -5.6194  -5.6094  -5.5882  -5.5340  -5.5053
    -5.4577  -5.4419  -5.4116  -5.3967  -5.3841  -5.3473  -5.3018  -5.2850
    -5.2388  -5.2105  -5.1911  -5.1709  -5.1673  -5.0758  -5.0727  -5.0526
    -5.0014  -4.9688  -4.9486  -4.9156  -4.8946  -4.8732  -4.8487  -4.7952
    -4.7721  -4.7656  -4.7432  -4.7302  -4.6430  -4.6371  -4.5850  -4.5485
    -4.5323  -4.5176  -4.4841  -4.4503  -4.4232  -4.4014  -4.3795  -4.3647
    -4.3455  -4.2973  -4.2890  -4.2156  -4.1716  -4.1489  -4.1254  -4.0785
    -4.0723  -4.0426  -4.0346  -3.9963  -3.9589  -3.9496  -3.9217  -3.8954
    -3.8877  -3.8377  -3.8295  -3.8194  -3.7936  -3.7675  -3.7446  -3.7303
    -3.7158  -3.6927  -3.6583  -3.6429  -3.6400  -3.6249  -3.6028  -3.5866
    -3.5414  -3.5255  -3.5193  -3.5161  -3.4885  -3.4720  -3.4469  -3.4336
    -3.4208  -3.4019  -3.3889  -3.3431  -3.3423  -3.2964  -3.2881  -3.2545
    -3.2346  -3.2160  -3.2054  -3.1912  -3.1707  -3.1636  -3.1532  -3.1376
    -3.1129  -3.0704  -3.0362  -3.0264  -3.0244  -2.9925  -2.9691  -2.9533
    -2.9279  -2.9079  -2.8966  -2.8714  -2.8579  -2.8458  -2.8185  -2.8115
    -2.7914  -2.7875  -2.7812  -2.7702  -2.7467  -2.7413  -2.7229  -2.6986
    -2.6890  -2.6743  -2.6589  -2.6425  -2.6232  -2.6191  -2.5957  -2.5732
    -2.5589  -2.5382  -2.5245  -2.4909  -2.4887  -2.4770  -2.4632  -2.4356
    -2.4290  -2.3970  -2.3868  -2.3720  -2.3519  -2.3159  -2.2963  -2.2877
    -2.2609  -2.2516  -2.2276  -2.1982  -2.1734  -2.1596  -2.1296  -2.1204
    -2.1026  -2.0891  -2.0800  -2.0675  -2.0647  -2.0472  -2.0035  -1.9896
    -1.9750  -1.9664  -1.9568  -1.9313  -1.9222  -1.9140  -1.8836  -1.8704
    -1.8336  -1.8159  -1.7866  -1.7614  -1.7439  -1.7324  -1.7126  -1.6945
    -1.6624  -1.6519  -1.6391  -1.6258  -1.6079  -1.5971  -1.5759  -1.5440
    -1.5395  -1.5151  -1.4915  -1.4621  -1.4398  -1.4327  -1.4294  -1.4182
    -1.4056  -1.3748  -1.3341  -1.3056  -1.2939  -1.2346  -1.2176  -1.2048
    -1.1469  -1.0962  -1.0635  -1.0492  -1.0105  -0.9234  -0.8950  -0.8732
    -0.7772  -0.6611  -0.6105  -0.6065  -0.4601  -0.3636  -0.3188  -0.2559
     0.1086   0.1269   0.1620   0.1948   0.2349   0.2456   0.2642   0.2727
     0.2866   0.2890   0.3037   0.3052   0.3133   0.3302   0.3428   0.3492
     0.3535   0.3586   0.3724   0.3827   0.3874   0.3890   0.3990   0.4048
     0.4132   0.4205   0.4278   0.4389   0.4499   0.4525   0.4605   0.4615
     0.4675   0.4744   0.4796   0.4917   0.4973   0.5021   0.5046   0.5107
     0.5183   0.5359   0.5382   0.5455   0.5541   0.5627   0.5671   0.5816
     0.5850   0.5879   0.5945   0.5998   0.6121   0.6174   0.6241   0.6348
     0.6396   0.6489   0.6622   0.6637   0.6769   0.6801   0.6851   0.6895
     0.7019   0.7094   0.7154   0.7185   0.7236   0.7294   0.7419   0.7455
     0.7507   0.7542   0.7689   0.7752   0.7881   0.7903   0.7989   0.8118
     0.8257   0.8312   0.8475   0.8553   0.8645   0.8674   0.8823   0.8850
     0.8993   0.9150   0.9192   0.9290   0.9370   0.9894   0.9928   1.0184
     1.0747   1.1385   1.6153   1.6610   1.7035   1.7068   1.7163   1.7195
     1.7601   1.8496   1.8688   1.8794   1.8958   1.9333   1.9388   1.9672
     1.9746   1.9964   2.0206   2.0342   2.0435   2.0709   2.0869   2.1255
     2.1535   2.1642   2.1657   2.1967   2.2038   2.2111   2.2243   2.2319
     2.2461   2.2564   2.2664   2.2838   2.2912   2.3031   2.3080   2.3203
     2.3419   2.3534   2.3613   2.3770   2.4116   2.4151   2.4194   2.4491
     2.4632   2.4887   2.5016   2.5026   2.5182   2.5259   2.5503   2.5584
     2.5747   2.5858   2.5979   2.6324   2.6742   2.7094   2.7289   2.7509
     2.7844   2.8376   2.8852   2.8918   2.9097   3.5839   3.5929   3.6673
     3.7508   3.8262   3.8386   3.8472   3.8633   4.0012   4.0659   4.5879
     4.6431   4.7117   4.7768   4.9242   4.9509   5.0220   5.4152   6.2972
     6.3638   6.5459   6.5860   6.7443   6.8414   6.8543   6.8856   6.9318
     6.9969   7.0642   7.1148   7.1543   7.2996   7.3268   7.3719   7.4681
     7.5049   7.5621   7.6326   7.6706   7.6941   7.7540   7.7925   7.8128
     7.8666   7.9261   7.9321   7.9771   8.0194   8.0326   8.0597   8.0793
     8.1076   8.1227   8.1656   8.1902   8.2364   8.2665   8.2756   8.3316
     8.3790   8.4005   8.4263   8.4551   8.4699   8.4833   8.4987   8.5158
     8.5463   8.5691   8.5772   8.6103   8.6174   8.6455   8.6681   8.6935
     8.7224   8.7681   8.7810   8.8065   8.8280   8.8492   8.8721

     the Fermi energy is     1.5680 ev

!    total energy              =   -7398.03598200 Ry
     estimated scf accuracy    <       0.00000056 Ry
     smearing contrib. (-TS)   =      -0.01433897 Ry
     internal energy E=F+TS    =   -7398.02164304 Ry

     The total energy is F=E-TS. E is the sum of the following terms:
     one-electron contribution =  -91743.04184356 Ry
     hartree contribution      =   46519.49768460 Ry
     xc contribution           =   -2260.27563337 Ry
     ewald contribution        =   40087.63211029 Ry
     Dispersion Correction     =      -1.83397283 Ry
     electric field correction =       0.00001182 Ry

     total magnetization       =    80.44 Bohr mag/cell
     absolute magnetization    =    81.98 Bohr mag/cell

     convergence has been achieved in  90 iterations

     negative rho (up, down):  9.304E-04 5.475E-04

     Forces acting on atoms (cartesian axes, Ry/au):

     atom    1 type  2   force =     0.03099932   -0.01974252   -0.01636532
     atom    2 type  1   force =     0.00217767   -0.00399936   -0.01079797
     atom    3 type  1   force =    -0.02159235   -0.02066846    0.01805307
     atom    4 type  1   force =     0.00136721    0.01031625   -0.01276948
     atom    5 type  1   force =    -0.00481753    0.02903319   -0.01862419
     atom    6 type  1   force =     0.00584682    0.00051973   -0.00057804
     atom    7 type  1   force =     0.02690917   -0.02101321    0.01729349
     atom    8 type  1   force =    -0.00960904   -0.00311572   -0.01110575
     atom    9 type  1   force =    -0.02978225   -0.01819966    0.01602553
     atom   10 type  1   force =    -0.00114837    0.00810601   -0.01303483
     atom   11 type  1   force =    -0.01310566    0.03038268   -0.02079736
     atom   12 type  1   force =     0.00126211    0.00657133   -0.00421784
     atom   13 type  3   force =     0.05103299   -0.11003634    0.00917250
     atom   14 type  3   force =    -0.02903447    0.03593240   -0.06514807
     atom   15 type  3   force =    -0.00921450    0.17549816   -0.08316188
     atom   16 type  3   force =     0.06068171    0.00060528   -0.00438200
     atom   17 type  4   force =     0.01521449   -0.02180744   -0.00975279
     atom   18 type  4   force =    -0.00536764    0.00476386    0.02958733
     atom   19 type  4   force =     0.00211942    0.00097638    0.03071302
     atom   20 type  4   force =     0.00510111    0.00192090    0.00244280
     atom   21 type  4   force =     0.00059111   -0.01199120    0.00001436
     atom   22 type  4   force =    -0.00091264    0.00382355    0.03262423
     atom   23 type  4   force =    -0.00610906    0.01461132    0.02755110
     atom   24 type  4   force =     0.00865484    0.00322838   -0.00428141
     atom   25 type  4   force =     0.00646306   -0.00333824    0.00154729
     atom   26 type  4   force =     0.03112072   -0.17824749    0.00725382
     atom   27 type  4   force =     0.00293178    0.00099300    0.00169409
     atom   28 type  4   force =    -0.01694070    0.00168466    0.00475670
     atom   29 type  4   force =     0.09122917    0.00314524    0.00806489
     atom   30 type  4   force =     0.01311870   -0.02504010   -0.00088003
     atom   31 type  4   force =    -0.03844800    0.13332828   -0.00017337
     atom   32 type  4   force =    -0.00557410   -0.01186434    0.00652207
     atom   33 type  3   force =     0.04155461   -0.11927370    0.00970218
     atom   34 type  3   force =    -0.10168410    0.04258912   -0.07573270
     atom   35 type  3   force =    -0.01352472    0.16599460   -0.08809605
     atom   36 type  3   force =    -0.00359715    0.00261405   -0.01042662
     atom   37 type  4   force =     0.00826250   -0.01463364   -0.00234281
     atom   38 type  4   force =    -0.00584420   -0.00174708    0.02734828
     atom   39 type  4   force =    -0.00471473    0.00720458    0.03212429
     atom   40 type  4   force =     0.00127435    0.00008045    0.00254927
     atom   41 type  4   force =    -0.00148954   -0.00958065   -0.00159555
     atom   42 type  4   force =     0.00544175   -0.00059088    0.02949676
     atom   43 type  4   force =    -0.01048250    0.01344451    0.02719559
     atom   44 type  4   force =     0.00443717    0.00347944   -0.00447207
     atom   45 type  4   force =    -0.00034760   -0.00071337    0.00199228
     atom   46 type  4   force =     0.02808424   -0.17044260    0.00542708
     atom   47 type  4   force =    -0.06545604   -0.00074721   -0.00310650
     atom   48 type  4   force =    -0.01975042    0.00391533    0.00531300
     atom   49 type  4   force =     0.01394138    0.00085726    0.00206170
     atom   50 type  4   force =     0.00798785   -0.02427106   -0.00013665
     atom   51 type  4   force =    -0.03973107    0.13332720   -0.00136737
     atom   52 type  4   force =    -0.00783599   -0.01064010    0.00874349
     atom   53 type  2   force =     0.00655769   -0.00749208    0.00568352
     atom   54 type  1   force =    -0.00003098   -0.00553235    0.01033480
     atom   55 type  1   force =     0.00488595   -0.00630223    0.00659379
     atom   56 type  1   force =    -0.00036634    0.00725112   -0.00092224
     atom   57 type  1   force =     0.00049314    0.02204873   -0.01412919
     atom   58 type  1   force =     0.00160574   -0.00325404    0.00234002
     atom   59 type  1   force =     0.00244416   -0.00995157    0.00391724
     atom   60 type  1   force =    -0.00677467   -0.00343154    0.00391873
     atom   61 type  1   force =    -0.00468696   -0.00501477    0.00660183
     atom   62 type  1   force =    -0.00334469    0.00648612   -0.00174901
     atom   63 type  1   force =    -0.01083480    0.02497327   -0.01755995
     atom   64 type  1   force =    -0.00243711    0.00121277   -0.00057597
     atom   65 type  3   force =     0.04621218   -0.12078955    0.01816772
     atom   66 type  3   force =     0.00166189   -0.00421857    0.00097611
     atom   67 type  3   force =    -0.04064415    0.12356727   -0.00697362
     atom   68 type  3   force =     0.06283847   -0.00131860    0.00745418
     atom   69 type  4   force =     0.01266092   -0.01718165   -0.00251945
     atom   70 type  4   force =    -0.00185857    0.00338537   -0.00080189
     atom   71 type  4   force =    -0.00194635    0.00346578    0.00532023
     atom   72 type  4   force =     0.00465380    0.00135533    0.00131174
     atom   73 type  4   force =     0.00772202   -0.01759097    0.01302902
     atom   74 type  4   force =    -0.00444562   -0.00333438    0.00927926
     atom   75 type  4   force =     0.00352040    0.00863664    0.00463111
     atom   76 type  4   force =     0.00626124    0.00079839   -0.00007813
     atom   77 type  4   force =     0.00633535   -0.00191495   -0.00077903
     atom   78 type  4   force =     0.04522991   -0.14076928    0.00576401
     atom   79 type  4   force =     0.00012703    0.00012859   -0.00033008
     atom   80 type  4   force =     0.00155849    0.00190535    0.00226036
     atom   81 type  4   force =     0.06739987    0.00012582    0.00653587
     atom   82 type  4   force =     0.00016190    0.00229345    0.00129029
     atom   83 type  4   force =    -0.03926924    0.13810639   -0.00230706
     atom   84 type  4   force =    -0.00189532   -0.01027762    0.00352770
     atom   85 type  3   force =     0.03857528   -0.12490795    0.02468591
     atom   86 type  3   force =    -0.06336972   -0.00162831   -0.00380250
     atom   87 type  3   force =    -0.04619750    0.12069408   -0.01049217
     atom   88 type  3   force =    -0.00012718    0.00107516    0.00305684
     atom   89 type  4   force =     0.00914139   -0.01461636   -0.00546724
     atom   90 type  4   force =    -0.00443826    0.00101954   -0.00083339
     atom   91 type  4   force =    -0.00951028    0.00837540    0.00549799
     atom   92 type  4   force =     0.00039536   -0.00035823    0.00025448
     atom   93 type  4   force =     0.00178888   -0.01116680   -0.00116008
     atom   94 type  4   force =    -0.00894702   -0.00305861    0.00831613
     atom   95 type  4   force =    -0.00032152    0.00776408    0.00306384
     atom   96 type  4   force =    -0.00124648    0.00131179   -0.00009939
     atom   97 type  4   force =    -0.00127493    0.00108432   -0.00032430
     atom   98 type  4   force =     0.04062724   -0.13901744    0.00485884
     atom   99 type  4   force =    -0.06703782   -0.00078246   -0.00564450
     atom  100 type  4   force =    -0.00039776    0.00287711    0.00290142
     atom  101 type  4   force =    -0.00131116    0.00002500    0.00134294
     atom  102 type  4   force =    -0.00677527    0.00546415    0.00155959
     atom  103 type  4   force =    -0.04001373    0.13580425   -0.00440348
     atom  104 type  4   force =    -0.00556038   -0.00999081    0.00489829
     atom  105 type  2   force =    -0.00037304    0.00033319    0.00000630
     atom  106 type  1   force =    -0.00024748   -0.00032929    0.00037001
     atom  107 type  1   force =    -0.00009500   -0.00044922   -0.00006681
     atom  108 type  1   force =     0.00036507    0.00044013   -0.00035831
     atom  109 type  1   force =    -0.00059820   -0.00005638   -0.00014477
     atom  110 type  1   force =    -0.00002162    0.00003044    0.00011785
     atom  111 type  1   force =    -0.00001412    0.00036630    0.00004308
     atom  112 type  1   force =     0.00008489   -0.00003698    0.00007368
     atom  113 type  1   force =     0.00010894   -0.00037516   -0.00026563
     atom  114 type  1   force =    -0.00039989    0.00015194   -0.00044760
     atom  115 type  1   force =     0.00025265   -0.00005698   -0.00006788
     atom  116 type  1   force =    -0.00035080   -0.00035593    0.00005958
     atom  117 type  3   force =    -0.00010401   -0.00082157    0.00040461
     atom  118 type  3   force =     0.00019200   -0.00019973    0.00004277
     atom  119 type  3   force =    -0.00002575   -0.00005456   -0.00009112
     atom  120 type  3   force =    -0.00005037   -0.00023055   -0.00001524
     atom  121 type  4   force =     0.00023974    0.00006513   -0.00042130
     atom  122 type  4   force =    -0.00013934    0.00015691    0.00009042
     atom  123 type  4   force =     0.00019506   -0.00025884    0.00007117
     atom  124 type  4   force =    -0.00023745   -0.00032556    0.00008546
     atom  125 type  4   force =    -0.00013427    0.00031392   -0.00014881
     atom  126 type  4   force =    -0.00006236   -0.00032999    0.00004911
     atom  127 type  4   force =     0.00039965   -0.00013624   -0.00010596
     atom  128 type  4   force =    -0.00016879   -0.00044166    0.00024527
     atom  129 type  4   force =     0.00010898   -0.00022890   -0.00006947
     atom  130 type  4   force =    -0.00009706    0.00003327   -0.00007748
     atom  131 type  4   force =    -0.00053445   -0.00017380    0.00011004
     atom  132 type  4   force =     0.00005130   -0.00026540    0.00026987
     atom  133 type  4   force =    -0.00011571   -0.00026012    0.00011091
     atom  134 type  4   force =    -0.00032819   -0.00027115   -0.00002379
     atom  135 type  4   force =    -0.00064138   -0.00013748   -0.00042061
     atom  136 type  4   force =     0.00088135   -0.00011762   -0.00020101
     atom  137 type  3   force =     0.00027408   -0.00008930   -0.00023376
     atom  138 type  3   force =    -0.00022067   -0.00021556   -0.00005225
     atom  139 type  3   force =    -0.00009009    0.00002421    0.00010587
     atom  140 type  3   force =    -0.00057727   -0.00030516   -0.00043314
     atom  141 type  4   force =     0.00046383   -0.00040144    0.00009150
     atom  142 type  4   force =     0.00011094    0.00007348   -0.00002193
     atom  143 type  4   force =     0.00002137   -0.00014263    0.00030858
     atom  144 type  4   force =     0.00073320    0.00030032    0.00090452
     atom  145 type  4   force =    -0.00046238   -0.00027849   -0.00036187
     atom  146 type  4   force =    -0.00003069   -0.00021734   -0.00016445
     atom  147 type  4   force =     0.00042233   -0.00001708   -0.00001992
     atom  148 type  4   force =    -0.00000847    0.00044414    0.00006206
     atom  149 type  4   force =     0.00062171   -0.00018421   -0.00002109
     atom  150 type  4   force =     0.00024794    0.00015307    0.00014156
     atom  151 type  4   force =    -0.00010251   -0.00002357    0.00006846
     atom  152 type  4   force =     0.00033767   -0.00005896    0.00011649
     atom  153 type  4   force =    -0.00002003    0.00001973   -0.00028703
     atom  154 type  4   force =    -0.00022610   -0.00029207   -0.00004020
     atom  155 type  4   force =     0.00012602    0.00006294   -0.00006662
     atom  156 type  4   force =     0.00009536    0.00029620   -0.00041582
     atom  157 type  4   force =    -0.00311281    0.00195352    0.00243215
     atom  158 type  5   force =     0.00377082   -0.00165682   -0.00168215

     Total force =     0.665220     Total SCF correction =     0.003600
 
     init_run     :      6.64s CPU      7.35s WALL (       1 calls)
     electrons    :   1038.54s CPU   1094.84s WALL (       1 calls)
     forces       :      3.37s CPU      3.71s WALL (       1 calls)
     force_london :      0.09s CPU      0.09s WALL (       1 calls)

     Called by init_run:
     wfcinit      :      3.70s CPU      3.93s WALL (       1 calls)
     potinit      :      0.64s CPU      0.84s WALL (       1 calls)
     hinit0       :      1.13s CPU      1.22s WALL (       1 calls)

     Called by electrons:
     c_bands      :    824.08s CPU    854.17s WALL (      90 calls)
     sum_band     :    138.95s CPU    153.44s WALL (      90 calls)
     v_of_rho     :     14.74s CPU     15.80s WALL (      91 calls)
     newd         :     39.63s CPU     50.30s WALL (      91 calls)
     mix_rho      :     20.45s CPU     20.64s WALL (      90 calls)
     energy_londo :      0.07s CPU      0.07s WALL (       1 calls)

     Called by c_bands:
     init_us_2    :      2.67s CPU      2.73s WALL (     364 calls)
     init_us_2:cp :      2.67s CPU      2.73s WALL (     364 calls)
     regterg      :    806.62s CPU    836.45s WALL (     183 calls)

     Called by *egterg:
     rdiaghg      :    235.43s CPU    249.80s WALL (     781 calls)
     h_psi        :    312.10s CPU    319.15s WALL (     783 calls)
     s_psi        :     62.17s CPU     62.23s WALL (     783 calls)
     g_psi        :      0.42s CPU      0.43s WALL (     598 calls)

     Called by h_psi:
     h_psi:calbec :     84.46s CPU     90.73s WALL (     783 calls)
     vloc_psi     :    162.08s CPU    162.74s WALL (     783 calls)
     add_vuspsi   :     64.76s CPU     64.86s WALL (     783 calls)

     General routines
     calbec       :    124.56s CPU    133.92s WALL (     971 calls)
     fft          :     13.41s CPU     14.70s WALL (    1651 calls)
     ffts         :     12.87s CPU     12.92s WALL (   11219 calls)
     fftw         :    184.10s CPU    184.83s WALL (  303482 calls)
     interpolate  :      1.28s CPU      1.38s WALL (     182 calls)
 
     Parallel routines
 
     PWSCF        :  17m30.44s CPU  18m28.13s WALL

 
   This run was terminated on:  22:43:42  19Nov2025            

=------------------------------------------------------------------------------=
   JOB DONE.
=------------------------------------------------------------------------------=
