
     Program PWSCF v.7.2 starts on 19Nov2025 at 22: 8:20 

     This program is part of the open-source Quantum ESPRESSO suite
     for quantum simulation of materials; please cite
         "P. Giannozzi et al., J. Phys.:Condens. Matter 21 395502 (2009);
         "P. Giannozzi et al., J. Phys.:Condens. Matter 29 465901 (2017);
         "P. Giannozzi et al., J. Chem. Phys. 152 154105 (2020);
          URL http://www.quantum-espresso.org", 
     in publications or presentations arising from this work. More details at
     http://www.quantum-espresso.org/quote

     Parallel version (MPI), running on    64 processors

     MPI processes distributed on     4 nodes
     455821 MiB available memory on the printing compute node when the environment starts
 
     Reading input from PWINPUT_atm158_ym

     Current dimensions of program PWSCF are:
     Max number of different atomic species (ntypx) = 10
     Max number of k-points (npk) =  40000
     Max angular momentum in pseudopotentials (lmaxx) =  4
     Presently no symmetry can be used with electric field

     file Ni.pbe-n-rrkjus_psl.1.0.0.UPF: wavefunction(s)  3D renormalized
     file Mn.pbe-spn-rrkjus_psl.0.3.1.UPF: wavefunction(s)  3D renormalized
     file O.pbe-rrkjus.UPF: wavefunction(s)  2S renormalized
     file H.pbe-rrkjus.UPF: wavefunction(s)  1S renormalized

     gamma-point specific algorithms are used
 
     R & G space division:  proc/nbgrp/npool/nimage =      64
     Subspace diagonalization in iterative solution of the eigenvalue problem:
     one sub-group per band group will be used
     custom distributed-memory algorithm (size of sub-group:  6*  6 procs)

 
     Parallelization info
     --------------------
     sticks:   dense  smooth     PW     G-vecs:    dense   smooth      PW
     Min         208      82     20                59912    15118    1876
     Max         210      84     22                59974    15196    1926
     Sum       13399    5355   1345              3836275   970529  121367
 
     Using Slab Decomposition
 


     bravais-lattice index     =            0
     lattice parameter (alat)  =      17.7004  a.u.
     unit-cell volume          =   20319.7251 (a.u.)^3
     number of atoms/cell      =          158
     number of atomic types    =            5
     number of electrons       =      1078.00
     number of Kohn-Sham states=          647
     kinetic-energy cutoff     =      50.0000  Ry
     charge density cutoff     =     500.0000  Ry
     scf convergence threshold =      1.0E-06
     mixing beta               =       0.1000
     number of iterations used =            8  local-TF  mixing
     Exchange-correlation=  SLA  PW   PBE  PBE
                           (   1   4   3   4   0   0   0)

     celldm(1)=  17.700384  celldm(2)=   0.000000  celldm(3)=   0.000000
     celldm(4)=   0.000000  celldm(5)=   0.000000  celldm(6)=   0.000000

     crystal axes: (cart. coord. in units of alat)
               a(1) = (   1.000000   0.000000   0.000000 )  
               a(2) = (   0.000000   1.075730   0.000000 )  
               a(3) = (   0.000000   0.000000   3.406172 )  

     reciprocal axes: (cart. coord. in units 2 pi/alat)
               b(1) = (  1.000000  0.000000  0.000000 )  
               b(2) = (  0.000000  0.929602  0.000000 )  
               b(3) = (  0.000000  0.000000  0.293585 )  


     PseudoPot. # 1 for Ni read from file:
     ~/PSEUDO/Ni.pbe-n-rrkjus_psl.1.0.0.UPF
     MD5 check sum: Not computed, couldn't open file
     Pseudo is Ultrasoft + core correction, Zval = 10.0
     Generated using "atomic" code by A. Dal Corso  v.5.1.2
     Using radial grid of 1195 points,  6 beta functions with: 
                l(1) =   0
                l(2) =   0
                l(3) =   1
                l(4) =   1
                l(5) =   2
                l(6) =   2
     Q(r) pseudized with 0 coefficients 


     PseudoPot. # 2 for Mn read from file:
     ~/PSEUDO/Mn.pbe-spn-rrkjus_psl.0.3.1.UPF
     MD5 check sum: Not computed, couldn't open file
     Pseudo is Ultrasoft + core correction, Zval = 15.0
     Generated using &quot;atomic&quot; code by A. Dal Corso  v.6.2.2
     Using radial grid of 1187 points,  6 beta functions with: 
                l(1) =   0
                l(2) =   0
                l(3) =   1
                l(4) =   1
                l(5) =   2
                l(6) =   2
     Q(r) pseudized with 0 coefficients 


     PseudoPot. # 3 for P  read from file:
     ~/PSEUDO/P.pbe-n-rrkjus_psl.1.0.0.UPF
     MD5 check sum: Not computed, couldn't open file
     Pseudo is Ultrasoft + core correction, Zval =  5.0
     Generated using "atomic" code by A. Dal Corso  v.5.1
     Using radial grid of 1147 points,  6 beta functions with: 
                l(1) =   0
                l(2) =   0
                l(3) =   1
                l(4) =   1
                l(5) =   2
                l(6) =   2
     Q(r) pseudized with 0 coefficients 


     PseudoPot. # 4 for O  read from file:
     ~/PSEUDO/O.pbe-rrkjus.UPF
     MD5 check sum: Not computed, couldn't open file
     Pseudo is Ultrasoft, Zval =  6.0
     Generated by new atomic code, or converted to UPF format
     Using radial grid of 1269 points,  4 beta functions with: 
                l(1) =   0
                l(2) =   0
                l(3) =   1
                l(4) =   1
     Q(r) pseudized with 0 coefficients 


     PseudoPot. # 5 for H  read from file:
     ~/PSEUDO/H.pbe-rrkjus.UPF
     MD5 check sum: Not computed, couldn't open file
     Pseudo is Ultrasoft, Zval =  1.0
     Generated by new atomic code, or converted to UPF format
     Using radial grid of 1061 points,  2 beta functions with: 
                l(1) =   0
                l(2) =   0
     Q(r) pseudized with 0 coefficients 


     atomic species   valence    mass     pseudopotential
     Ni               10.00    58.69300     Ni( 1.00)
     Mn               15.00    54.93800     Mn( 1.00)
     P                 5.00    30.97300     P ( 1.00)
     O                 6.00    15.99900     O ( 1.00)
     H                 1.00     1.00790     H ( 1.00)

     Starting magnetic structure 
     atomic species   magnetization
     Ni              1.000
     Mn              1.000
     P               1.000
     O               1.000
     H               0.000

     No symmetry found



   Cartesian axes

     site n.     atom                  positions (alat units)
         1        Mn     tau(   1) = (   0.2404744   0.8371250   0.1168501  )
         2        Ni     tau(   2) = (   0.4968126   0.7726670   0.4415546  )
         3        Ni     tau(   3) = (   0.0066150   0.2936743   0.1241053  )
         4        Ni     tau(   4) = (   0.2585722   0.2355858   0.4448848  )
         5        Ni     tau(   5) = (   0.9987350   1.0696411   0.2854926  )
         6        Ni     tau(   6) = (   0.2517397   0.5330511   0.2829322  )
         7        Ni     tau(   7) = (   0.7451645   0.8337543   0.1221751  )
         8        Ni     tau(   8) = (   0.9939181   0.7738804   0.4407595  )
         9        Ni     tau(   9) = (   0.5111533   0.2924088   0.1251865  )
        10        Ni     tau(  10) = (   0.7606326   0.2319267   0.4451372  )
        11        Ni     tau(  11) = (   0.5024065   1.0688133   0.2870502  )
        12        Ni     tau(  12) = (   0.7529977   0.5317900   0.2845227  )
        13        P      tau(  13) = (   0.2092944   0.9731097   0.4345035  )
        14        P      tau(  14) = (   0.4655727   0.6359535   0.1274635  )
        15        P      tau(  15) = (   0.2910699   0.1027363   0.1296098  )
        16        P      tau(  16) = (   0.0396216   0.4288395   0.4398838  )
        17        O      tau(  17) = (   0.1294378   0.9013260   0.3010618  )
        18        O      tau(  18) = (   0.3874505   0.7054774   0.2637003  )
        19        O      tau(  19) = (   0.3702540   0.1714799   0.2660028  )
        20        O      tau(  20) = (   0.1184398   0.3582958   0.3038353  )
        21        O      tau(  21) = (   0.1451572   0.8850881   0.5587578  )
        22        O      tau(  22) = (   0.4048762   0.7245585   0.0017492  )
        23        O      tau(  23) = (   0.3523506   0.1900579   0.0035744  )
        24        O      tau(  24) = (   0.1017610   0.3410484   0.5656572  )
        25        O      tau(  25) = (   0.0975396   0.5849288   0.4357922  )
        26        O      tau(  26) = (   0.3483552   1.0314945   0.1270322  )
        27        O      tau(  27) = (   0.3784305   0.4225118   0.4308928  )
        28        O      tau(  28) = (   0.1268237   0.1067944   0.1392744  )
        29        O      tau(  29) = (   0.1212267   0.6424170   0.1362896  )
        30        O      tau(  30) = (   0.4053315   0.4809387   0.1300622  )
        31        O      tau(  31) = (   0.1536621   0.0446918   0.4373386  )
        32        O      tau(  32) = (   0.3732349   0.9631717   0.4256642  )
        33        P      tau(  33) = (   0.7119823   0.9695974   0.4373010  )
        34        P      tau(  34) = (   0.9615208   0.6363392   0.1262932  )
        35        P      tau(  35) = (   0.7927710   0.0970060   0.1292164  )
        36        P      tau(  36) = (   0.5426404   0.4269675   0.4410738  )
        37        O      tau(  37) = (   0.6326879   0.8991182   0.3013240  )
        38        O      tau(  38) = (   0.8842163   0.7083206   0.2625155  )
        39        O      tau(  39) = (   0.8716178   0.1677751   0.2653504  )
        40        O      tau(  40) = (   0.6212010   0.3558666   0.3051085  )
        41        O      tau(  41) = (   0.6507714   0.8812342   0.5631722  )
        42        O      tau(  42) = (   0.9014054   0.7264458   0.0010676  )
        43        O      tau(  43) = (   0.8548963   0.1847909   0.0035471  )
        44        O      tau(  44) = (   0.6044469   0.3378706   0.5660366  )
        45        O      tau(  45) = (   0.6024424   0.5823140   0.4379016  )
        46        O      tau(  46) = (   0.8498940   1.0254482   0.1275156  )
        47        O      tau(  47) = (   0.8798395   0.4205825   0.4305771  )
        48        O      tau(  48) = (   0.6286921   0.1034636   0.1397346  )
        49        O      tau(  49) = (   0.6294973   0.6427753   0.1372553  )
        50        O      tau(  50) = (   0.9024339   0.4810312   0.1296418  )
        51        O      tau(  51) = (   0.6547812   0.0410987   0.4396636  )
        52        O      tau(  52) = (   0.8760507   0.9632605   0.4264507  )
        53        Mn     tau(  53) = (   0.2404744   0.8246335   0.7367378  )
        54        Ni     tau(  54) = (   0.4968126   0.7601755   1.0614423  )
        55        Ni     tau(  55) = (   0.0066150   0.2811828   0.7439929  )
        56        Ni     tau(  56) = (   0.2585722   0.2230943   1.0647725  )
        57        Ni     tau(  57) = (   0.9987350   1.0571496   0.9053803  )
        58        Ni     tau(  58) = (   0.2517397   0.5205596   0.9028199  )
        59        Ni     tau(  59) = (   0.7451645   0.8212628   0.7420628  )
        60        Ni     tau(  60) = (   0.9939181   0.7613889   1.0606471  )
        61        Ni     tau(  61) = (   0.5111533   0.2799173   0.7450742  )
        62        Ni     tau(  62) = (   0.7606326   0.2194352   1.0650249  )
        63        Ni     tau(  63) = (   0.5024065   1.0563218   0.9069379  )
        64        Ni     tau(  64) = (   0.7529977   0.5192985   0.9044104  )
        65        P      tau(  65) = (   0.2092944   0.9606182   1.0543912  )
        66        P      tau(  66) = (   0.4655727   0.6234620   0.7473512  )
        67        P      tau(  67) = (   0.2910699   0.0902448   0.7494974  )
        68        P      tau(  68) = (   0.0396216   0.4163480   1.0597715  )
        69        O      tau(  69) = (   0.1294378   0.8888345   0.9209495  )
        70        O      tau(  70) = (   0.3874505   0.6929859   0.8835880  )
        71        O      tau(  71) = (   0.3702540   0.1589885   0.8858904  )
        72        O      tau(  72) = (   0.1184398   0.3458043   0.9237230  )
        73        O      tau(  73) = (   0.1451572   0.8725966   1.1786454  )
        74        O      tau(  74) = (   0.4048762   0.7120670   0.6216369  )
        75        O      tau(  75) = (   0.3523506   0.1775664   0.6234620  )
        76        O      tau(  76) = (   0.1017610   0.3285569   1.1855448  )
        77        O      tau(  77) = (   0.0975396   0.5724373   1.0556799  )
        78        O      tau(  78) = (   0.3483552   1.0190030   0.7469198  )
        79        O      tau(  79) = (   0.3784305   0.4100203   1.0507804  )
        80        O      tau(  80) = (   0.1268237   0.0943029   0.7591620  )
        81        O      tau(  81) = (   0.1212267   0.6299255   0.7561772  )
        82        O      tau(  82) = (   0.4053315   0.4684472   0.7499499  )
        83        O      tau(  83) = (   0.1536621   0.0322003   1.0572263  )
        84        O      tau(  84) = (   0.3732349   0.9506802   1.0455518  )
        85        P      tau(  85) = (   0.7119823   0.9571059   1.0571887  )
        86        P      tau(  86) = (   0.9615208   0.6238477   0.7461808  )
        87        P      tau(  87) = (   0.7927710   0.0845145   0.7491041  )
        88        P      tau(  88) = (   0.5426404   0.4144760   1.0609615  )
        89        O      tau(  89) = (   0.6326879   0.8866267   0.9212117  )
        90        O      tau(  90) = (   0.8842163   0.6958291   0.8824032  )
        91        O      tau(  91) = (   0.8716178   0.1552836   0.8852381  )
        92        O      tau(  92) = (   0.6212010   0.3433751   0.9249961  )
        93        O      tau(  93) = (   0.6507714   0.8687427   1.1830599  )
        94        O      tau(  94) = (   0.9014054   0.7139543   0.6209553  )
        95        O      tau(  95) = (   0.8548963   0.1722994   0.6234348  )
        96        O      tau(  96) = (   0.6044469   0.3253792   1.1859242  )
        97        O      tau(  97) = (   0.6024424   0.5698225   1.0577892  )
        98        O      tau(  98) = (   0.8498940   1.0129567   0.7474033  )
        99        O      tau(  99) = (   0.8798395   0.4080910   1.0504647  )
       100        O      tau( 100) = (   0.6286921   0.0909721   0.7596222  )
       101        O      tau( 101) = (   0.6294973   0.6302838   0.7571429  )
       102        O      tau( 102) = (   0.9024339   0.4685397   0.7495295  )
       103        O      tau( 103) = (   0.6547812   0.0286072   1.0595512  )
       104        O      tau( 104) = (   0.8760507   0.9507690   1.0463383  )
       105        Mn     tau( 105) = (   0.2364458   0.8094794   1.3653459  )
       106        Ni     tau( 106) = (   0.4907942   0.7363522   1.7049996  )
       107        Ni     tau( 107) = (   0.0093952   0.2680398   1.3698569  )
       108        Ni     tau( 108) = (   0.2497295   0.2108424   1.6761145  )
       109        Ni     tau( 109) = (   1.0036298   1.0443547   1.5337867  )
       110        Ni     tau( 110) = (   0.2508731   0.5072093   1.5337250  )
       111        Ni     tau( 111) = (   0.7430527   0.8053936   1.3670713  )
       112        Ni     tau( 112) = (   1.0004343   0.7470669   1.6781949  )
       113        Ni     tau( 113) = (   0.5111923   0.2663270   1.3700523  )
       114        Ni     tau( 114) = (   0.7492854   0.2057646   1.6748146  )
       115        Ni     tau( 115) = (   0.5041086   1.0410710   1.5344479  )
       116        Ni     tau( 116) = (   0.7475733   0.5047540   1.5316464  )
       117        P      tau( 117) = (   0.2133552   0.9392292   1.6984504  )
       118        P      tau( 118) = (   0.4634655   0.6097679   1.3737019  )
       119        P      tau( 119) = (   0.2926447   0.0743533   1.3725526  )
       120        P      tau( 120) = (   0.0367365   0.3974952   1.6921475  )
       121        O      tau( 121) = (   0.1371062   0.8722393   1.5551977  )
       122        O      tau( 122) = (   0.3876369   0.6802541   1.5098871  )
       123        O      tau( 123) = (   0.3711295   0.1420780   1.5089708  )
       124        O      tau( 124) = (   0.1160403   0.3372838   1.5462681  )
       125        O      tau( 125) = (   0.1492652   0.8455602   1.8156300  )
       126        O      tau( 126) = (   0.4032581   0.6987394   1.2472428  )
       127        O      tau( 127) = (   0.3539738   0.1604313   1.2459115  )
       128        O      tau( 128) = (   0.0992937   0.3009536   1.8068009  )
       129        O      tau( 129) = (   0.0909237   0.5559234   1.6906175  )
       130        O      tau( 130) = (   0.3495909   0.9934160   1.3761257  )
       131        O      tau( 131) = (   0.3736946   0.3887924   1.6741111  )
       132        O      tau( 132) = (   0.1287801   0.0799213   1.3839567  )
       133        O      tau( 133) = (   0.1223930   0.6189353   1.3829709  )
       134        O      tau( 134) = (   0.4027999   0.4547621   1.3753464  )
       135        O      tau( 135) = (   0.1562549   0.0204997   1.6913958  )
       136        O      tau( 136) = (   0.3777647   0.9340275   1.6841911  )
       137        P      tau( 137) = (   0.7135711   0.9304873   1.6870697  )
       138        P      tau( 138) = (   0.9579050   0.6098693   1.3704654  )
       139        P      tau( 139) = (   0.7935730   0.0700637   1.3709798  )
       140        P      tau( 140) = (   0.5382788   0.3921678   1.6921168  )
       141        O      tau( 141) = (   0.6368445   0.8715343   1.5433244  )
       142        O      tau( 142) = (   0.8818270   0.6814858   1.5066133  )
       143        O      tau( 143) = (   0.8713193   0.1417772   1.5072868  )
       144        O      tau( 144) = (   0.6174579   0.3303663   1.5458240  )
       145        O      tau( 145) = (   0.6552232   0.8337369   1.8043110  )
       146        O      tau( 146) = (   0.8989657   0.6978510   1.2434901  )
       147        O      tau( 147) = (   0.8552504   0.1586671   1.2456065  )
       148        O      tau( 148) = (   0.5963858   0.2917729   1.8058571  )
       149        O      tau( 149) = (   0.5989840   0.5475310   1.6881864  )
       150        O      tau( 150) = (   0.8545284   0.9913153   1.3740611  )
       151        O      tau( 151) = (   0.8720431   0.3904281   1.6773436  )
       152        O      tau( 152) = (   0.6296650   0.0761030   1.3824892  )
       153        O      tau( 153) = (   0.6276372   0.6149600   1.3818254  )
       154        O      tau( 154) = (   0.9002664   0.4546242   1.3744661  )
       155        O      tau( 155) = (   0.6584351   0.0133671   1.6886222  )
       156        O      tau( 156) = (   0.8793773   0.9284013   1.6770673  )
       157        O      tau( 157) = (   0.3761800   0.6543040   1.8384848  )
       158        H      tau( 158) = (   0.2924595   0.7131787   1.8633046  )

     -------------------------------------------------
     Parameters for Dispersion (Grimme-D2) Correction:
     -------------------------------------------------
       atom      VdW radius       C_6     

        Ni         2.952        374.666
        Mn         2.952        374.666
        P          3.222        271.980
        O          2.536         24.284
        H          1.892          4.857

     number of k points=     1  Gaussian smearing, width (Ry)=  0.0100
                       cart. coord. in units 2pi/alat
        k(    1) = (   0.0000000   0.0000000   0.0000000), wk =   1.0000000

     Dense  grid:  1918138 G-vectors     FFT dimensions: ( 125, 135, 432)

     Smooth grid:   485265 G-vectors     FFT dimensions: (  80,  90, 288)

     Estimated max dynamical RAM per process >     320.12 MB

     Estimated total dynamical RAM >      20.01 GB
     Generating pointlists ...
     new r_m :   0.0801 (alat units)  1.4174 (a.u.) for type    1
     new r_m :   0.0869 (alat units)  1.5388 (a.u.) for type    2
     new r_m :   0.0650 (alat units)  1.1499 (a.u.) for type    3
     new r_m :   0.0434 (alat units)  0.7690 (a.u.) for type    4
     new r_m :   0.0434 (alat units)  0.7690 (a.u.) for type    5

     Initial potential from superposition of free atoms

     starting charge    1077.8900, renormalised to    1078.0000

     negative rho (up, down):  1.237E-03 4.587E-04
 
     Adding external electric field

     Computed dipole along edir(3) : 
        Dipole                1.6221 Ry au,          4.1229 Debye
        Dipole field          0.0010 Ry au, 
 
        Potential amp.       -0.1089 Ry
        Total length         54.2615 bohr
 
 
     Adding external electric field

     Computed dipole along edir(3) : 
        Dipole                1.6221 Ry au,          4.1229 Debye
        Dipole field          0.0010 Ry au, 
 
        Potential amp.       -0.1089 Ry
        Total length         54.2615 bohr
 
     Starting wfcs are  812 randomized atomic wfcs

     total cpu time spent up to now is       10.0 secs

     Self-consistent Calculation

     iteration #  1     ecut=    50.00 Ry     beta= 0.10
     Davidson diagonalization with overlap
     ethr =  1.00E-02,  avg # of iterations =  6.0

     negative rho (up, down):  3.518E-01 5.166E-06
 
     Adding external electric field

     Computed dipole along edir(3) : 
        Dipole               -3.2519 Ry au,         -8.2655 Debye
        Dipole field         -0.0020 Ry au, 
 
        Potential amp.        0.2182 Ry
        Total length         54.2615 bohr
 
 
     Adding external electric field

     Computed dipole along edir(3) : 
        Dipole               -3.2519 Ry au,         -8.2655 Debye
        Dipole field         -0.0020 Ry au, 
 
        Potential amp.        0.2182 Ry
        Total length         54.2615 bohr
 

     total cpu time spent up to now is       37.6 secs

     total energy              =   -7180.60459305 Ry
     estimated scf accuracy    <     753.65792902 Ry

     total magnetization       =   216.00 Bohr mag/cell
     absolute magnetization    =   297.25 Bohr mag/cell

     iteration #  2     ecut=    50.00 Ry     beta= 0.10
     Davidson diagonalization with overlap
     ethr =  1.00E-02,  avg # of iterations =  2.0

     negative rho (up, down):  3.226E-01 3.952E-06
 
     Adding external electric field

     Computed dipole along edir(3) : 
        Dipole               -2.3850 Ry au,         -6.0622 Debye
        Dipole field         -0.0015 Ry au, 
 
        Potential amp.        0.1601 Ry
        Total length         54.2615 bohr
 
 
     Adding external electric field

     Computed dipole along edir(3) : 
        Dipole               -2.3850 Ry au,         -6.0622 Debye
        Dipole field         -0.0015 Ry au, 
 
        Potential amp.        0.1601 Ry
        Total length         54.2615 bohr
 

     total cpu time spent up to now is       53.6 secs

     total energy              =   -7264.82976840 Ry
     estimated scf accuracy    <     157.85877761 Ry

     total magnetization       =   144.45 Bohr mag/cell
     absolute magnetization    =   196.56 Bohr mag/cell

     iteration #  3     ecut=    50.00 Ry     beta= 0.10
     Davidson diagonalization with overlap
     ethr =  1.00E-02,  avg # of iterations =  1.5

     negative rho (up, down):  2.788E-01 3.234E-06
 
     Adding external electric field

     Computed dipole along edir(3) : 
        Dipole               -1.9320 Ry au,         -4.9105 Debye
        Dipole field         -0.0012 Ry au, 
 
        Potential amp.        0.1297 Ry
        Total length         54.2615 bohr
 
 
     Adding external electric field

     Computed dipole along edir(3) : 
        Dipole               -1.9320 Ry au,         -4.9105 Debye
        Dipole field         -0.0012 Ry au, 
 
        Potential amp.        0.1297 Ry
        Total length         54.2615 bohr
 

     total cpu time spent up to now is       66.4 secs

     total energy              =   -7298.24318895 Ry
     estimated scf accuracy    <      98.01444677 Ry

     total magnetization       =   121.93 Bohr mag/cell
     absolute magnetization    =   176.56 Bohr mag/cell

     iteration #  4     ecut=    50.00 Ry     beta= 0.10
     Davidson diagonalization with overlap
     ethr =  9.09E-03,  avg # of iterations =  1.5

     negative rho (up, down):  2.050E-01 1.118E-06
 
     Adding external electric field

     Computed dipole along edir(3) : 
        Dipole               -1.9612 Ry au,         -4.9850 Debye
        Dipole field         -0.0012 Ry au, 
 
        Potential amp.        0.1316 Ry
        Total length         54.2615 bohr
 
 
     Adding external electric field

     Computed dipole along edir(3) : 
        Dipole               -1.9612 Ry au,         -4.9850 Debye
        Dipole field         -0.0012 Ry au, 
 
        Potential amp.        0.1316 Ry
        Total length         54.2615 bohr
 

     total cpu time spent up to now is       79.0 secs

     total energy              =   -7331.65765526 Ry
     estimated scf accuracy    <      76.14366368 Ry

     total magnetization       =   105.30 Bohr mag/cell
     absolute magnetization    =   161.39 Bohr mag/cell

     iteration #  5     ecut=    50.00 Ry     beta= 0.10
     Davidson diagonalization with overlap
     ethr =  7.06E-03,  avg # of iterations =  1.5

     negative rho (up, down):  3.588E-03 6.617E-07
 
     Adding external electric field

     Computed dipole along edir(3) : 
        Dipole               -1.3618 Ry au,         -3.4613 Debye
        Dipole field         -0.0008 Ry au, 
 
        Potential amp.        0.0914 Ry
        Total length         54.2615 bohr
 
 
     Adding external electric field

     Computed dipole along edir(3) : 
        Dipole               -1.3618 Ry au,         -3.4613 Debye
        Dipole field         -0.0008 Ry au, 
 
        Potential amp.        0.0914 Ry
        Total length         54.2615 bohr
 

     total cpu time spent up to now is       91.7 secs

     total energy              =   -7388.59834703 Ry
     estimated scf accuracy    <      58.10577230 Ry

     total magnetization       =    88.00 Bohr mag/cell
     absolute magnetization    =   144.06 Bohr mag/cell

     iteration #  6     ecut=    50.00 Ry     beta= 0.10
     Davidson diagonalization with overlap
     ethr =  5.39E-03,  avg # of iterations =  1.5

     negative rho (up, down):  3.594E-05 1.017E-04
 
     Adding external electric field

     Computed dipole along edir(3) : 
        Dipole               -1.0193 Ry au,         -2.5909 Debye
        Dipole field         -0.0006 Ry au, 
 
        Potential amp.        0.0684 Ry
        Total length         54.2615 bohr
 
 
     Adding external electric field

     Computed dipole along edir(3) : 
        Dipole               -1.0193 Ry au,         -2.5909 Debye
        Dipole field         -0.0006 Ry au, 
 
        Potential amp.        0.0684 Ry
        Total length         54.2615 bohr
 

     total cpu time spent up to now is      104.5 secs

     total energy              =   -7395.88303205 Ry
     estimated scf accuracy    <       8.47637027 Ry

     total magnetization       =    80.07 Bohr mag/cell
     absolute magnetization    =   111.35 Bohr mag/cell

     iteration #  7     ecut=    50.00 Ry     beta= 0.10
     Davidson diagonalization with overlap
     ethr =  7.86E-04,  avg # of iterations =  7.0

     negative rho (up, down):  3.821E-05 9.178E-05
 
     Adding external electric field

     Computed dipole along edir(3) : 
        Dipole               -1.0390 Ry au,         -2.6408 Debye
        Dipole field         -0.0006 Ry au, 
 
        Potential amp.        0.0697 Ry
        Total length         54.2615 bohr
 
 
     Adding external electric field

     Computed dipole along edir(3) : 
        Dipole               -1.0390 Ry au,         -2.6408 Debye
        Dipole field         -0.0006 Ry au, 
 
        Potential amp.        0.0697 Ry
        Total length         54.2615 bohr
 

     total cpu time spent up to now is      129.8 secs

     total energy              =   -7397.62157535 Ry
     estimated scf accuracy    <       9.53705714 Ry

     total magnetization       =    71.94 Bohr mag/cell
     absolute magnetization    =    89.19 Bohr mag/cell

     iteration #  8     ecut=    50.00 Ry     beta= 0.10
     Davidson diagonalization with overlap
     ethr =  7.86E-04,  avg # of iterations =  1.0

     negative rho (up, down):  3.211E-05 1.027E-04
 
     Adding external electric field

     Computed dipole along edir(3) : 
        Dipole               -0.8896 Ry au,         -2.2613 Debye
        Dipole field         -0.0006 Ry au, 
 
        Potential amp.        0.0597 Ry
        Total length         54.2615 bohr
 
 
     Adding external electric field

     Computed dipole along edir(3) : 
        Dipole               -0.8896 Ry au,         -2.2613 Debye
        Dipole field         -0.0006 Ry au, 
 
        Potential amp.        0.0597 Ry
        Total length         54.2615 bohr
 

     total cpu time spent up to now is      142.5 secs

     total energy              =   -7397.47521602 Ry
     estimated scf accuracy    <      10.78193171 Ry

     total magnetization       =    71.52 Bohr mag/cell
     absolute magnetization    =    88.66 Bohr mag/cell

     iteration #  9     ecut=    50.00 Ry     beta= 0.10
     Davidson diagonalization with overlap
     ethr =  7.86E-04,  avg # of iterations =  1.0

     negative rho (up, down):  2.189E-05 1.191E-04
 
     Adding external electric field

     Computed dipole along edir(3) : 
        Dipole               -0.8813 Ry au,         -2.2399 Debye
        Dipole field         -0.0005 Ry au, 
 
        Potential amp.        0.0591 Ry
        Total length         54.2615 bohr
 
 
     Adding external electric field

     Computed dipole along edir(3) : 
        Dipole               -0.8813 Ry au,         -2.2399 Debye
        Dipole field         -0.0005 Ry au, 
 
        Potential amp.        0.0591 Ry
        Total length         54.2615 bohr
 

     total cpu time spent up to now is      153.3 secs

     total energy              =   -7397.50631104 Ry
     estimated scf accuracy    <       5.71287350 Ry

     total magnetization       =    73.80 Bohr mag/cell
     absolute magnetization    =    89.07 Bohr mag/cell

     iteration # 10     ecut=    50.00 Ry     beta= 0.10
     Davidson diagonalization with overlap
     ethr =  5.30E-04,  avg # of iterations =  1.5

     negative rho (up, down):  1.211E-05 1.221E-04
 
     Adding external electric field

     Computed dipole along edir(3) : 
        Dipole               -0.9929 Ry au,         -2.5238 Debye
        Dipole field         -0.0006 Ry au, 
 
        Potential amp.        0.0666 Ry
        Total length         54.2615 bohr
 
 
     Adding external electric field

     Computed dipole along edir(3) : 
        Dipole               -0.9929 Ry au,         -2.5238 Debye
        Dipole field         -0.0006 Ry au, 
 
        Potential amp.        0.0666 Ry
        Total length         54.2615 bohr
 

     total cpu time spent up to now is      164.4 secs

     total energy              =   -7397.58297953 Ry
     estimated scf accuracy    <       3.73604535 Ry

     total magnetization       =    76.16 Bohr mag/cell
     absolute magnetization    =    89.28 Bohr mag/cell

     iteration # 11     ecut=    50.00 Ry     beta= 0.10
     Davidson diagonalization with overlap
     ethr =  3.47E-04,  avg # of iterations =  1.5

     negative rho (up, down):  6.927E-06 1.966E-04
 
     Adding external electric field

     Computed dipole along edir(3) : 
        Dipole               -1.0055 Ry au,         -2.5557 Debye
        Dipole field         -0.0006 Ry au, 
 
        Potential amp.        0.0675 Ry
        Total length         54.2615 bohr
 
 
     Adding external electric field

     Computed dipole along edir(3) : 
        Dipole               -1.0055 Ry au,         -2.5557 Debye
        Dipole field         -0.0006 Ry au, 
 
        Potential amp.        0.0675 Ry
        Total length         54.2615 bohr
 

     total cpu time spent up to now is      176.0 secs

     total energy              =   -7397.66865220 Ry
     estimated scf accuracy    <       0.88486044 Ry

     total magnetization       =    79.58 Bohr mag/cell
     absolute magnetization    =    90.88 Bohr mag/cell

     iteration # 12     ecut=    50.00 Ry     beta= 0.10
     Davidson diagonalization with overlap
     ethr =  8.21E-05,  avg # of iterations =  9.5

     negative rho (up, down):  4.412E-05 2.974E-04
 
     Adding external electric field

     Computed dipole along edir(3) : 
        Dipole               -1.0178 Ry au,         -2.5871 Debye
        Dipole field         -0.0006 Ry au, 
 
        Potential amp.        0.0683 Ry
        Total length         54.2615 bohr
 
 
     Adding external electric field

     Computed dipole along edir(3) : 
        Dipole               -1.0178 Ry au,         -2.5871 Debye
        Dipole field         -0.0006 Ry au, 
 
        Potential amp.        0.0683 Ry
        Total length         54.2615 bohr
 

     total cpu time spent up to now is      196.9 secs

     total energy              =   -7397.87076231 Ry
     estimated scf accuracy    <       0.62735818 Ry

     total magnetization       =    79.75 Bohr mag/cell
     absolute magnetization    =    89.44 Bohr mag/cell

     iteration # 13     ecut=    50.00 Ry     beta= 0.10
     Davidson diagonalization with overlap
     ethr =  5.82E-05,  avg # of iterations =  2.0

     negative rho (up, down):  2.189E-05 2.235E-04
 
     Adding external electric field

     Computed dipole along edir(3) : 
        Dipole               -0.9560 Ry au,         -2.4300 Debye
        Dipole field         -0.0006 Ry au, 
 
        Potential amp.        0.0642 Ry
        Total length         54.2615 bohr
 
 
     Adding external electric field

     Computed dipole along edir(3) : 
        Dipole               -0.9560 Ry au,         -2.4300 Debye
        Dipole field         -0.0006 Ry au, 
 
        Potential amp.        0.0642 Ry
        Total length         54.2615 bohr
 

     total cpu time spent up to now is      209.1 secs

     total energy              =   -7397.94961038 Ry
     estimated scf accuracy    <       0.62736486 Ry

     total magnetization       =    81.85 Bohr mag/cell
     absolute magnetization    =    88.04 Bohr mag/cell

     iteration # 14     ecut=    50.00 Ry     beta= 0.10
     Davidson diagonalization with overlap
     ethr =  5.82E-05,  avg # of iterations =  1.0

     negative rho (up, down):  2.258E-07 2.028E-05
 
     Adding external electric field

     Computed dipole along edir(3) : 
        Dipole               -0.7610 Ry au,         -1.9343 Debye
        Dipole field         -0.0005 Ry au, 
 
        Potential amp.        0.0511 Ry
        Total length         54.2615 bohr
 
 
     Adding external electric field

     Computed dipole along edir(3) : 
        Dipole               -0.7610 Ry au,         -1.9343 Debye
        Dipole field         -0.0005 Ry au, 
 
        Potential amp.        0.0511 Ry
        Total length         54.2615 bohr
 

     total cpu time spent up to now is      219.9 secs

     total energy              =   -7398.01659061 Ry
     estimated scf accuracy    <       0.57620120 Ry

     total magnetization       =    81.67 Bohr mag/cell
     absolute magnetization    =    87.31 Bohr mag/cell

     iteration # 15     ecut=    50.00 Ry     beta= 0.10
     Davidson diagonalization with overlap
     ethr =  5.35E-05,  avg # of iterations =  2.0

     negative rho (up, down):  6.312E-07 2.228E-05
 
     Adding external electric field

     Computed dipole along edir(3) : 
        Dipole               -0.8213 Ry au,         -2.0875 Debye
        Dipole field         -0.0005 Ry au, 
 
        Potential amp.        0.0551 Ry
        Total length         54.2615 bohr
 
 
     Adding external electric field

     Computed dipole along edir(3) : 
        Dipole               -0.8213 Ry au,         -2.0875 Debye
        Dipole field         -0.0005 Ry au, 
 
        Potential amp.        0.0551 Ry
        Total length         54.2615 bohr
 

     total cpu time spent up to now is      231.4 secs

     total energy              =   -7398.04606729 Ry
     estimated scf accuracy    <       1.97935374 Ry

     total magnetization       =    80.54 Bohr mag/cell
     absolute magnetization    =    83.92 Bohr mag/cell

     iteration # 16     ecut=    50.00 Ry     beta= 0.10
     Davidson diagonalization with overlap
     ethr =  5.35E-05,  avg # of iterations =  1.0

     negative rho (up, down):  1.563E-06 2.668E-05
 
     Adding external electric field

     Computed dipole along edir(3) : 
        Dipole               -0.8849 Ry au,         -2.2492 Debye
        Dipole field         -0.0005 Ry au, 
 
        Potential amp.        0.0594 Ry
        Total length         54.2615 bohr
 
 
     Adding external electric field

     Computed dipole along edir(3) : 
        Dipole               -0.8849 Ry au,         -2.2492 Debye
        Dipole field         -0.0005 Ry au, 
 
        Potential amp.        0.0594 Ry
        Total length         54.2615 bohr
 

     total cpu time spent up to now is      241.3 secs

     total energy              =   -7398.04004337 Ry
     estimated scf accuracy    <       0.92710744 Ry

     total magnetization       =    80.60 Bohr mag/cell
     absolute magnetization    =    83.50 Bohr mag/cell

     iteration # 17     ecut=    50.00 Ry     beta= 0.10
     Davidson diagonalization with overlap
     ethr =  5.35E-05,  avg # of iterations =  1.0

     negative rho (up, down):  3.493E-07 3.842E-06
 
     Adding external electric field

     Computed dipole along edir(3) : 
        Dipole               -0.9012 Ry au,         -2.2906 Debye
        Dipole field         -0.0006 Ry au, 
 
        Potential amp.        0.0605 Ry
        Total length         54.2615 bohr
 
 
     Adding external electric field

     Computed dipole along edir(3) : 
        Dipole               -0.9012 Ry au,         -2.2906 Debye
        Dipole field         -0.0006 Ry au, 
 
        Potential amp.        0.0605 Ry
        Total length         54.2615 bohr
 

     total cpu time spent up to now is      251.4 secs

     total energy              =   -7398.03741614 Ry
     estimated scf accuracy    <       0.36013789 Ry

     total magnetization       =    80.67 Bohr mag/cell
     absolute magnetization    =    83.15 Bohr mag/cell

     iteration # 18     ecut=    50.00 Ry     beta= 0.10
     Davidson diagonalization with overlap
     ethr =  3.34E-05,  avg # of iterations =  1.5

     negative rho (up, down):  1.095E-05 2.312E-06
 
     Adding external electric field

     Computed dipole along edir(3) : 
        Dipole               -0.9328 Ry au,         -2.3709 Debye
        Dipole field         -0.0006 Ry au, 
 
        Potential amp.        0.0626 Ry
        Total length         54.2615 bohr
 
 
     Adding external electric field

     Computed dipole along edir(3) : 
        Dipole               -0.9328 Ry au,         -2.3709 Debye
        Dipole field         -0.0006 Ry au, 
 
        Potential amp.        0.0626 Ry
        Total length         54.2615 bohr
 

     total cpu time spent up to now is      263.1 secs

     total energy              =   -7398.03742539 Ry
     estimated scf accuracy    <       0.27379343 Ry

     total magnetization       =    80.23 Bohr mag/cell
     absolute magnetization    =    82.46 Bohr mag/cell

     iteration # 19     ecut=    50.00 Ry     beta= 0.10
     Davidson diagonalization with overlap
     ethr =  2.54E-05,  avg # of iterations =  1.5

     negative rho (up, down):  1.328E-06 2.143E-07
 
     Adding external electric field

     Computed dipole along edir(3) : 
        Dipole               -0.8989 Ry au,         -2.2849 Debye
        Dipole field         -0.0006 Ry au, 
 
        Potential amp.        0.0603 Ry
        Total length         54.2615 bohr
 
 
     Adding external electric field

     Computed dipole along edir(3) : 
        Dipole               -0.8989 Ry au,         -2.2849 Debye
        Dipole field         -0.0006 Ry au, 
 
        Potential amp.        0.0603 Ry
        Total length         54.2615 bohr
 

     total cpu time spent up to now is      275.2 secs

     total energy              =   -7398.03867313 Ry
     estimated scf accuracy    <       0.06094075 Ry

     total magnetization       =    80.76 Bohr mag/cell
     absolute magnetization    =    82.63 Bohr mag/cell

     iteration # 20     ecut=    50.00 Ry     beta= 0.10
     Davidson diagonalization with overlap
     ethr =  5.65E-06,  avg # of iterations = 11.0

     negative rho (up, down):  3.327E-06 3.169E-07
 
     Adding external electric field

     Computed dipole along edir(3) : 
        Dipole               -0.8130 Ry au,         -2.0663 Debye
        Dipole field         -0.0005 Ry au, 
 
        Potential amp.        0.0546 Ry
        Total length         54.2615 bohr
 
 
     Adding external electric field

     Computed dipole along edir(3) : 
        Dipole               -0.8130 Ry au,         -2.0663 Debye
        Dipole field         -0.0005 Ry au, 
 
        Potential amp.        0.0546 Ry
        Total length         54.2615 bohr
 

     total cpu time spent up to now is      294.4 secs

     total energy              =   -7398.03771137 Ry
     estimated scf accuracy    <       0.10460674 Ry

     total magnetization       =    80.21 Bohr mag/cell
     absolute magnetization    =    82.03 Bohr mag/cell

     iteration # 21     ecut=    50.00 Ry     beta= 0.10
     Davidson diagonalization with overlap
     ethr =  5.65E-06,  avg # of iterations =  2.0

     negative rho (up, down):  2.283E-06 9.554E-08
 
     Adding external electric field

     Computed dipole along edir(3) : 
        Dipole               -0.8155 Ry au,         -2.0727 Debye
        Dipole field         -0.0005 Ry au, 
 
        Potential amp.        0.0547 Ry
        Total length         54.2615 bohr
 
 
     Adding external electric field

     Computed dipole along edir(3) : 
        Dipole               -0.8155 Ry au,         -2.0727 Debye
        Dipole field         -0.0005 Ry au, 
 
        Potential amp.        0.0547 Ry
        Total length         54.2615 bohr
 

     total cpu time spent up to now is      306.6 secs

     total energy              =   -7398.03676063 Ry
     estimated scf accuracy    <       0.14148542 Ry

     total magnetization       =    81.00 Bohr mag/cell
     absolute magnetization    =    82.56 Bohr mag/cell

     iteration # 22     ecut=    50.00 Ry     beta= 0.10
     Davidson diagonalization with overlap
     ethr =  5.65E-06,  avg # of iterations =  1.5

     negative rho (up, down):  5.514E-06 5.365E-07
 
     Adding external electric field

     Computed dipole along edir(3) : 
        Dipole               -0.8283 Ry au,         -2.1053 Debye
        Dipole field         -0.0005 Ry au, 
 
        Potential amp.        0.0556 Ry
        Total length         54.2615 bohr
 
 
     Adding external electric field

     Computed dipole along edir(3) : 
        Dipole               -0.8283 Ry au,         -2.1053 Debye
        Dipole field         -0.0005 Ry au, 
 
        Potential amp.        0.0556 Ry
        Total length         54.2615 bohr
 

     total cpu time spent up to now is      317.7 secs

     total energy              =   -7398.03704581 Ry
     estimated scf accuracy    <       0.09090862 Ry

     total magnetization       =    80.51 Bohr mag/cell
     absolute magnetization    =    82.03 Bohr mag/cell

     iteration # 23     ecut=    50.00 Ry     beta= 0.10
     Davidson diagonalization with overlap
     ethr =  5.65E-06,  avg # of iterations =  1.5

     negative rho (up, down):  2.733E-06 1.431E-06
 
     Adding external electric field

     Computed dipole along edir(3) : 
        Dipole               -0.7586 Ry au,         -1.9282 Debye
        Dipole field         -0.0005 Ry au, 
 
        Potential amp.        0.0509 Ry
        Total length         54.2615 bohr
 
 
     Adding external electric field

     Computed dipole along edir(3) : 
        Dipole               -0.7586 Ry au,         -1.9282 Debye
        Dipole field         -0.0005 Ry au, 
 
        Potential amp.        0.0509 Ry
        Total length         54.2615 bohr
 

     total cpu time spent up to now is      328.6 secs

     total energy              =   -7398.03890813 Ry
     estimated scf accuracy    <       0.03159789 Ry

     total magnetization       =    80.30 Bohr mag/cell
     absolute magnetization    =    81.85 Bohr mag/cell

     iteration # 24     ecut=    50.00 Ry     beta= 0.10
     Davidson diagonalization with overlap
     c_bands:  1 eigenvalues not converged
     ethr =  2.93E-06,  avg # of iterations = 10.5

     negative rho (up, down):  2.181E-06 1.284E-06
 
     Adding external electric field

     Computed dipole along edir(3) : 
        Dipole               -0.7908 Ry au,         -2.0099 Debye
        Dipole field         -0.0005 Ry au, 
 
        Potential amp.        0.0531 Ry
        Total length         54.2615 bohr
 
 
     Adding external electric field

     Computed dipole along edir(3) : 
        Dipole               -0.7908 Ry au,         -2.0099 Debye
        Dipole field         -0.0005 Ry au, 
 
        Potential amp.        0.0531 Ry
        Total length         54.2615 bohr
 

     total cpu time spent up to now is      343.8 secs

     total energy              =   -7398.03972329 Ry
     estimated scf accuracy    <       0.04599612 Ry

     total magnetization       =    80.47 Bohr mag/cell
     absolute magnetization    =    82.04 Bohr mag/cell

     iteration # 25     ecut=    50.00 Ry     beta= 0.10
     Davidson diagonalization with overlap
     ethr =  2.93E-06,  avg # of iterations =  1.5

     negative rho (up, down):  3.910E-06 1.403E-06
 
     Adding external electric field

     Computed dipole along edir(3) : 
        Dipole               -0.7698 Ry au,         -1.9567 Debye
        Dipole field         -0.0005 Ry au, 
 
        Potential amp.        0.0517 Ry
        Total length         54.2615 bohr
 
 
     Adding external electric field

     Computed dipole along edir(3) : 
        Dipole               -0.7698 Ry au,         -1.9567 Debye
        Dipole field         -0.0005 Ry au, 
 
        Potential amp.        0.0517 Ry
        Total length         54.2615 bohr
 

     total cpu time spent up to now is      354.8 secs

     total energy              =   -7398.03928806 Ry
     estimated scf accuracy    <       0.03928156 Ry

     total magnetization       =    80.24 Bohr mag/cell
     absolute magnetization    =    81.83 Bohr mag/cell

     iteration # 26     ecut=    50.00 Ry     beta= 0.10
     Davidson diagonalization with overlap
     ethr =  2.93E-06,  avg # of iterations =  1.5

     negative rho (up, down):  3.188E-06 1.224E-06
 
     Adding external electric field

     Computed dipole along edir(3) : 
        Dipole               -0.7997 Ry au,         -2.0326 Debye
        Dipole field         -0.0005 Ry au, 
 
        Potential amp.        0.0537 Ry
        Total length         54.2615 bohr
 
 
     Adding external electric field

     Computed dipole along edir(3) : 
        Dipole               -0.7997 Ry au,         -2.0326 Debye
        Dipole field         -0.0005 Ry au, 
 
        Potential amp.        0.0537 Ry
        Total length         54.2615 bohr
 

     total cpu time spent up to now is      365.1 secs

     total energy              =   -7398.03897226 Ry
     estimated scf accuracy    <       0.05340189 Ry

     total magnetization       =    80.08 Bohr mag/cell
     absolute magnetization    =    81.73 Bohr mag/cell

     iteration # 27     ecut=    50.00 Ry     beta= 0.10
     Davidson diagonalization with overlap
     ethr =  2.93E-06,  avg # of iterations =  1.5

     negative rho (up, down):  4.096E-06 1.549E-06
 
     Adding external electric field

     Computed dipole along edir(3) : 
        Dipole               -0.8182 Ry au,         -2.0795 Debye
        Dipole field         -0.0005 Ry au, 
 
        Potential amp.        0.0549 Ry
        Total length         54.2615 bohr
 
 
     Adding external electric field

     Computed dipole along edir(3) : 
        Dipole               -0.8182 Ry au,         -2.0795 Debye
        Dipole field         -0.0005 Ry au, 
 
        Potential amp.        0.0549 Ry
        Total length         54.2615 bohr
 

     total cpu time spent up to now is      375.7 secs

     total energy              =   -7398.03936480 Ry
     estimated scf accuracy    <       0.03342349 Ry

     total magnetization       =    80.35 Bohr mag/cell
     absolute magnetization    =    81.88 Bohr mag/cell

     iteration # 28     ecut=    50.00 Ry     beta= 0.10
     Davidson diagonalization with overlap
     ethr =  2.93E-06,  avg # of iterations =  1.5

     negative rho (up, down):  4.201E-06 1.126E-06
 
     Adding external electric field

     Computed dipole along edir(3) : 
        Dipole               -0.8152 Ry au,         -2.0721 Debye
        Dipole field         -0.0005 Ry au, 
 
        Potential amp.        0.0547 Ry
        Total length         54.2615 bohr
 
 
     Adding external electric field

     Computed dipole along edir(3) : 
        Dipole               -0.8152 Ry au,         -2.0721 Debye
        Dipole field         -0.0005 Ry au, 
 
        Potential amp.        0.0547 Ry
        Total length         54.2615 bohr
 

     total cpu time spent up to now is      386.9 secs

     total energy              =   -7398.03935773 Ry
     estimated scf accuracy    <       0.03877054 Ry

     total magnetization       =    80.51 Bohr mag/cell
     absolute magnetization    =    81.92 Bohr mag/cell

     iteration # 29     ecut=    50.00 Ry     beta= 0.10
     Davidson diagonalization with overlap
     ethr =  2.93E-06,  avg # of iterations =  1.5

     negative rho (up, down):  2.106E-06 7.148E-08
 
     Adding external electric field

     Computed dipole along edir(3) : 
        Dipole               -0.7554 Ry au,         -1.9200 Debye
        Dipole field         -0.0005 Ry au, 
 
        Potential amp.        0.0507 Ry
        Total length         54.2615 bohr
 
 
     Adding external electric field

     Computed dipole along edir(3) : 
        Dipole               -0.7554 Ry au,         -1.9200 Debye
        Dipole field         -0.0005 Ry au, 
 
        Potential amp.        0.0507 Ry
        Total length         54.2615 bohr
 

     total cpu time spent up to now is      397.3 secs

     total energy              =   -7398.03923624 Ry
     estimated scf accuracy    <       0.03607262 Ry

     total magnetization       =    80.50 Bohr mag/cell
     absolute magnetization    =    81.91 Bohr mag/cell

     iteration # 30     ecut=    50.00 Ry     beta= 0.10
     Davidson diagonalization with overlap
     ethr =  2.93E-06,  avg # of iterations =  1.5

     negative rho (up, down):  8.983E-06 2.028E-06
 
     Adding external electric field

     Computed dipole along edir(3) : 
        Dipole               -0.7673 Ry au,         -1.9504 Debye
        Dipole field         -0.0005 Ry au, 
 
        Potential amp.        0.0515 Ry
        Total length         54.2615 bohr
 
 
     Adding external electric field

     Computed dipole along edir(3) : 
        Dipole               -0.7673 Ry au,         -1.9504 Debye
        Dipole field         -0.0005 Ry au, 
 
        Potential amp.        0.0515 Ry
        Total length         54.2615 bohr
 

     total cpu time spent up to now is      407.7 secs

     total energy              =   -7398.03871072 Ry
     estimated scf accuracy    <       0.09410301 Ry

     total magnetization       =    80.75 Bohr mag/cell
     absolute magnetization    =    82.23 Bohr mag/cell

     iteration # 31     ecut=    50.00 Ry     beta= 0.10
     Davidson diagonalization with overlap
     ethr =  2.93E-06,  avg # of iterations =  1.0

     negative rho (up, down):  5.105E-06 1.614E-07
 
     Adding external electric field

     Computed dipole along edir(3) : 
        Dipole               -0.7718 Ry au,         -1.9618 Debye
        Dipole field         -0.0005 Ry au, 
 
        Potential amp.        0.0518 Ry
        Total length         54.2615 bohr
 
 
     Adding external electric field

     Computed dipole along edir(3) : 
        Dipole               -0.7718 Ry au,         -1.9618 Debye
        Dipole field         -0.0005 Ry au, 
 
        Potential amp.        0.0518 Ry
        Total length         54.2615 bohr
 

     total cpu time spent up to now is      417.8 secs

     total energy              =   -7398.03769316 Ry
     estimated scf accuracy    <       0.05316159 Ry

     total magnetization       =    80.55 Bohr mag/cell
     absolute magnetization    =    81.97 Bohr mag/cell

     iteration # 32     ecut=    50.00 Ry     beta= 0.10
     Davidson diagonalization with overlap
     ethr =  2.93E-06,  avg # of iterations =  1.5

     negative rho (up, down):  7.215E-06 1.657E-06
 
     Adding external electric field

     Computed dipole along edir(3) : 
        Dipole               -0.7598 Ry au,         -1.9312 Debye
        Dipole field         -0.0005 Ry au, 
 
        Potential amp.        0.0510 Ry
        Total length         54.2615 bohr
 
 
     Adding external electric field

     Computed dipole along edir(3) : 
        Dipole               -0.7598 Ry au,         -1.9312 Debye
        Dipole field         -0.0005 Ry au, 
 
        Potential amp.        0.0510 Ry
        Total length         54.2615 bohr
 

     total cpu time spent up to now is      429.2 secs

     total energy              =   -7398.03938388 Ry
     estimated scf accuracy    <       0.04024785 Ry

     total magnetization       =    80.53 Bohr mag/cell
     absolute magnetization    =    81.93 Bohr mag/cell

     iteration # 33     ecut=    50.00 Ry     beta= 0.10
     Davidson diagonalization with overlap
     ethr =  2.93E-06,  avg # of iterations =  1.0

     negative rho (up, down):  2.286E-06 9.805E-08
 
     Adding external electric field

     Computed dipole along edir(3) : 
        Dipole               -0.7277 Ry au,         -1.8497 Debye
        Dipole field         -0.0005 Ry au, 
 
        Potential amp.        0.0488 Ry
        Total length         54.2615 bohr
 
 
     Adding external electric field

     Computed dipole along edir(3) : 
        Dipole               -0.7277 Ry au,         -1.8497 Debye
        Dipole field         -0.0005 Ry au, 
 
        Potential amp.        0.0488 Ry
        Total length         54.2615 bohr
 

     total cpu time spent up to now is      439.8 secs

     total energy              =   -7398.03916034 Ry
     estimated scf accuracy    <       0.06696350 Ry

     total magnetization       =    80.62 Bohr mag/cell
     absolute magnetization    =    82.10 Bohr mag/cell

     iteration # 34     ecut=    50.00 Ry     beta= 0.10
     Davidson diagonalization with overlap
     ethr =  2.93E-06,  avg # of iterations =  1.5

     negative rho (up, down):  3.699E-06 7.135E-07
 
     Adding external electric field

     Computed dipole along edir(3) : 
        Dipole               -0.7963 Ry au,         -2.0239 Debye
        Dipole field         -0.0005 Ry au, 
 
        Potential amp.        0.0534 Ry
        Total length         54.2615 bohr
 
 
     Adding external electric field

     Computed dipole along edir(3) : 
        Dipole               -0.7963 Ry au,         -2.0239 Debye
        Dipole field         -0.0005 Ry au, 
 
        Potential amp.        0.0534 Ry
        Total length         54.2615 bohr
 

     total cpu time spent up to now is      451.0 secs

     total energy              =   -7398.03959677 Ry
     estimated scf accuracy    <       0.07631368 Ry

     total magnetization       =    80.69 Bohr mag/cell
     absolute magnetization    =    82.17 Bohr mag/cell

     iteration # 35     ecut=    50.00 Ry     beta= 0.10
     Davidson diagonalization with overlap
     ethr =  2.93E-06,  avg # of iterations =  1.0

     negative rho (up, down):  5.614E-06 6.384E-07
 
     Adding external electric field

     Computed dipole along edir(3) : 
        Dipole               -0.7185 Ry au,         -1.8262 Debye
        Dipole field         -0.0004 Ry au, 
 
        Potential amp.        0.0482 Ry
        Total length         54.2615 bohr
 
 
     Adding external electric field

     Computed dipole along edir(3) : 
        Dipole               -0.7185 Ry au,         -1.8262 Debye
        Dipole field         -0.0004 Ry au, 
 
        Potential amp.        0.0482 Ry
        Total length         54.2615 bohr
 

     total cpu time spent up to now is      462.1 secs

     total energy              =   -7398.03650157 Ry
     estimated scf accuracy    <       0.04824297 Ry

     total magnetization       =    80.57 Bohr mag/cell
     absolute magnetization    =    82.00 Bohr mag/cell

     iteration # 36     ecut=    50.00 Ry     beta= 0.10
     Davidson diagonalization with overlap
     ethr =  2.93E-06,  avg # of iterations =  1.5

     negative rho (up, down):  6.341E-06 1.452E-06
 
     Adding external electric field

     Computed dipole along edir(3) : 
        Dipole               -0.7107 Ry au,         -1.8063 Debye
        Dipole field         -0.0004 Ry au, 
 
        Potential amp.        0.0477 Ry
        Total length         54.2615 bohr
 
 
     Adding external electric field

     Computed dipole along edir(3) : 
        Dipole               -0.7107 Ry au,         -1.8063 Debye
        Dipole field         -0.0004 Ry au, 
 
        Potential amp.        0.0477 Ry
        Total length         54.2615 bohr
 

     total cpu time spent up to now is      473.5 secs

     total energy              =   -7398.03796714 Ry
     estimated scf accuracy    <       0.06919054 Ry

     total magnetization       =    80.68 Bohr mag/cell
     absolute magnetization    =    82.07 Bohr mag/cell

     iteration # 37     ecut=    50.00 Ry     beta= 0.10
     Davidson diagonalization with overlap
     ethr =  2.93E-06,  avg # of iterations =  1.5

     negative rho (up, down):  3.322E-06 8.878E-07
 
     Adding external electric field

     Computed dipole along edir(3) : 
        Dipole               -0.8211 Ry au,         -2.0871 Debye
        Dipole field         -0.0005 Ry au, 
 
        Potential amp.        0.0551 Ry
        Total length         54.2615 bohr
 
 
     Adding external electric field

     Computed dipole along edir(3) : 
        Dipole               -0.8211 Ry au,         -2.0871 Debye
        Dipole field         -0.0005 Ry au, 
 
        Potential amp.        0.0551 Ry
        Total length         54.2615 bohr
 

     total cpu time spent up to now is      484.8 secs

     total energy              =   -7398.03974550 Ry
     estimated scf accuracy    <       0.04290781 Ry

     total magnetization       =    80.51 Bohr mag/cell
     absolute magnetization    =    81.91 Bohr mag/cell

     iteration # 38     ecut=    50.00 Ry     beta= 0.10
     Davidson diagonalization with overlap
     ethr =  2.93E-06,  avg # of iterations =  1.5

     negative rho (up, down):  1.317E-05 7.231E-06
 
     Adding external electric field

     Computed dipole along edir(3) : 
        Dipole               -0.7328 Ry au,         -1.8625 Debye
        Dipole field         -0.0005 Ry au, 
 
        Potential amp.        0.0492 Ry
        Total length         54.2615 bohr
 
 
     Adding external electric field

     Computed dipole along edir(3) : 
        Dipole               -0.7328 Ry au,         -1.8625 Debye
        Dipole field         -0.0005 Ry au, 
 
        Potential amp.        0.0492 Ry
        Total length         54.2615 bohr
 

     total cpu time spent up to now is      496.0 secs

     total energy              =   -7398.03757212 Ry
     estimated scf accuracy    <       0.03189980 Ry

     total magnetization       =    80.34 Bohr mag/cell
     absolute magnetization    =    81.79 Bohr mag/cell

     iteration # 39     ecut=    50.00 Ry     beta= 0.10
     Davidson diagonalization with overlap
     ethr =  2.93E-06,  avg # of iterations =  1.5

     negative rho (up, down):  1.059E-05 6.031E-06
 
     Adding external electric field

     Computed dipole along edir(3) : 
        Dipole               -0.6435 Ry au,         -1.6357 Debye
        Dipole field         -0.0004 Ry au, 
 
        Potential amp.        0.0432 Ry
        Total length         54.2615 bohr
 
 
     Adding external electric field

     Computed dipole along edir(3) : 
        Dipole               -0.6435 Ry au,         -1.6357 Debye
        Dipole field         -0.0004 Ry au, 
 
        Potential amp.        0.0432 Ry
        Total length         54.2615 bohr
 

     total cpu time spent up to now is      506.5 secs

     total energy              =   -7398.03677733 Ry
     estimated scf accuracy    <       0.02554466 Ry

     total magnetization       =    80.28 Bohr mag/cell
     absolute magnetization    =    81.61 Bohr mag/cell

     iteration # 40     ecut=    50.00 Ry     beta= 0.10
     Davidson diagonalization with overlap
     ethr =  2.37E-06,  avg # of iterations =  2.0

     negative rho (up, down):  4.580E-05 2.486E-05
 
     Adding external electric field

     Computed dipole along edir(3) : 
        Dipole               -0.6605 Ry au,         -1.6788 Debye
        Dipole field         -0.0004 Ry au, 
 
        Potential amp.        0.0443 Ry
        Total length         54.2615 bohr
 
 
     Adding external electric field

     Computed dipole along edir(3) : 
        Dipole               -0.6605 Ry au,         -1.6788 Debye
        Dipole field         -0.0004 Ry au, 
 
        Potential amp.        0.0443 Ry
        Total length         54.2615 bohr
 

     total cpu time spent up to now is      518.6 secs

     total energy              =   -7398.03780674 Ry
     estimated scf accuracy    <       0.05821549 Ry

     total magnetization       =    80.47 Bohr mag/cell
     absolute magnetization    =    81.74 Bohr mag/cell

     iteration # 41     ecut=    50.00 Ry     beta= 0.10
     Davidson diagonalization with overlap
     ethr =  2.37E-06,  avg # of iterations =  1.5

     negative rho (up, down):  9.828E-05 4.591E-05
 
     Adding external electric field

     Computed dipole along edir(3) : 
        Dipole               -0.6566 Ry au,         -1.6688 Debye
        Dipole field         -0.0004 Ry au, 
 
        Potential amp.        0.0441 Ry
        Total length         54.2615 bohr
 
 
     Adding external electric field

     Computed dipole along edir(3) : 
        Dipole               -0.6566 Ry au,         -1.6688 Debye
        Dipole field         -0.0004 Ry au, 
 
        Potential amp.        0.0441 Ry
        Total length         54.2615 bohr
 

     total cpu time spent up to now is      529.4 secs

     total energy              =   -7398.03674878 Ry
     estimated scf accuracy    <       0.04373204 Ry

     total magnetization       =    80.56 Bohr mag/cell
     absolute magnetization    =    81.99 Bohr mag/cell

     iteration # 42     ecut=    50.00 Ry     beta= 0.10
     Davidson diagonalization with overlap
     ethr =  2.37E-06,  avg # of iterations =  1.5

     negative rho (up, down):  2.023E-05 8.330E-06
 
     Adding external electric field

     Computed dipole along edir(3) : 
        Dipole               -0.6494 Ry au,         -1.6507 Debye
        Dipole field         -0.0004 Ry au, 
 
        Potential amp.        0.0436 Ry
        Total length         54.2615 bohr
 
 
     Adding external electric field

     Computed dipole along edir(3) : 
        Dipole               -0.6494 Ry au,         -1.6507 Debye
        Dipole field         -0.0004 Ry au, 
 
        Potential amp.        0.0436 Ry
        Total length         54.2615 bohr
 

     total cpu time spent up to now is      541.2 secs

     total energy              =   -7398.03792936 Ry
     estimated scf accuracy    <       0.03018847 Ry

     total magnetization       =    80.52 Bohr mag/cell
     absolute magnetization    =    82.00 Bohr mag/cell

     iteration # 43     ecut=    50.00 Ry     beta= 0.10
     Davidson diagonalization with overlap
     ethr =  2.37E-06,  avg # of iterations =  1.5

     negative rho (up, down):  9.183E-05 4.632E-05
 
     Adding external electric field

     Computed dipole along edir(3) : 
        Dipole               -0.6821 Ry au,         -1.7339 Debye
        Dipole field         -0.0004 Ry au, 
 
        Potential amp.        0.0458 Ry
        Total length         54.2615 bohr
 
 
     Adding external electric field

     Computed dipole along edir(3) : 
        Dipole               -0.6821 Ry au,         -1.7339 Debye
        Dipole field         -0.0004 Ry au, 
 
        Potential amp.        0.0458 Ry
        Total length         54.2615 bohr
 

     total cpu time spent up to now is      552.9 secs

     total energy              =   -7398.03665051 Ry
     estimated scf accuracy    <       0.05991377 Ry

     total magnetization       =    80.60 Bohr mag/cell
     absolute magnetization    =    82.03 Bohr mag/cell

     iteration # 44     ecut=    50.00 Ry     beta= 0.10
     Davidson diagonalization with overlap
     ethr =  2.37E-06,  avg # of iterations =  1.5

     negative rho (up, down):  1.547E-04 7.340E-05
 
     Adding external electric field

     Computed dipole along edir(3) : 
        Dipole               -0.6611 Ry au,         -1.6804 Debye
        Dipole field         -0.0004 Ry au, 
 
        Potential amp.        0.0444 Ry
        Total length         54.2615 bohr
 
 
     Adding external electric field

     Computed dipole along edir(3) : 
        Dipole               -0.6611 Ry au,         -1.6804 Debye
        Dipole field         -0.0004 Ry au, 
 
        Potential amp.        0.0444 Ry
        Total length         54.2615 bohr
 

     total cpu time spent up to now is      564.1 secs

     total energy              =   -7398.03654999 Ry
     estimated scf accuracy    <       0.02174218 Ry

     total magnetization       =    80.46 Bohr mag/cell
     absolute magnetization    =    81.90 Bohr mag/cell

     iteration # 45     ecut=    50.00 Ry     beta= 0.10
     Davidson diagonalization with overlap
     ethr =  2.02E-06,  avg # of iterations =  1.5

     negative rho (up, down):  4.659E-04 2.355E-04
 
     Adding external electric field

     Computed dipole along edir(3) : 
        Dipole               -0.6125 Ry au,         -1.5568 Debye
        Dipole field         -0.0004 Ry au, 
 
        Potential amp.        0.0411 Ry
        Total length         54.2615 bohr
 
 
     Adding external electric field

     Computed dipole along edir(3) : 
        Dipole               -0.6125 Ry au,         -1.5568 Debye
        Dipole field         -0.0004 Ry au, 
 
        Potential amp.        0.0411 Ry
        Total length         54.2615 bohr
 

     total cpu time spent up to now is      575.4 secs

     total energy              =   -7398.03616887 Ry
     estimated scf accuracy    <       0.02054104 Ry

     total magnetization       =    80.43 Bohr mag/cell
     absolute magnetization    =    81.88 Bohr mag/cell

     iteration # 46     ecut=    50.00 Ry     beta= 0.10
     Davidson diagonalization with overlap
     ethr =  1.91E-06,  avg # of iterations =  2.0

     negative rho (up, down):  4.706E-04 2.384E-04
 
     Adding external electric field

     Computed dipole along edir(3) : 
        Dipole               -0.6055 Ry au,         -1.5390 Debye
        Dipole field         -0.0004 Ry au, 
 
        Potential amp.        0.0406 Ry
        Total length         54.2615 bohr
 
 
     Adding external electric field

     Computed dipole along edir(3) : 
        Dipole               -0.6055 Ry au,         -1.5390 Debye
        Dipole field         -0.0004 Ry au, 
 
        Potential amp.        0.0406 Ry
        Total length         54.2615 bohr
 

     total cpu time spent up to now is      588.0 secs

     total energy              =   -7398.03633757 Ry
     estimated scf accuracy    <       0.02062577 Ry

     total magnetization       =    80.41 Bohr mag/cell
     absolute magnetization    =    81.87 Bohr mag/cell

     iteration # 47     ecut=    50.00 Ry     beta= 0.10
     Davidson diagonalization with overlap
     ethr =  1.91E-06,  avg # of iterations =  1.5

     negative rho (up, down):  2.608E-04 1.306E-04
 
     Adding external electric field

     Computed dipole along edir(3) : 
        Dipole               -0.6558 Ry au,         -1.6668 Debye
        Dipole field         -0.0004 Ry au, 
 
        Potential amp.        0.0440 Ry
        Total length         54.2615 bohr
 
 
     Adding external electric field

     Computed dipole along edir(3) : 
        Dipole               -0.6558 Ry au,         -1.6668 Debye
        Dipole field         -0.0004 Ry au, 
 
        Potential amp.        0.0440 Ry
        Total length         54.2615 bohr
 

     total cpu time spent up to now is      599.4 secs

     total energy              =   -7398.03672429 Ry
     estimated scf accuracy    <       0.02038807 Ry

     total magnetization       =    80.39 Bohr mag/cell
     absolute magnetization    =    81.86 Bohr mag/cell

     iteration # 48     ecut=    50.00 Ry     beta= 0.10
     Davidson diagonalization with overlap
     ethr =  1.89E-06,  avg # of iterations =  1.5

     negative rho (up, down):  3.230E-04 1.489E-04
 
     Adding external electric field

     Computed dipole along edir(3) : 
        Dipole               -0.6378 Ry au,         -1.6212 Debye
        Dipole field         -0.0004 Ry au, 
 
        Potential amp.        0.0428 Ry
        Total length         54.2615 bohr
 
 
     Adding external electric field

     Computed dipole along edir(3) : 
        Dipole               -0.6378 Ry au,         -1.6212 Debye
        Dipole field         -0.0004 Ry au, 
 
        Potential amp.        0.0428 Ry
        Total length         54.2615 bohr
 

     total cpu time spent up to now is      611.4 secs

     total energy              =   -7398.03629351 Ry
     estimated scf accuracy    <       0.01850809 Ry

     total magnetization       =    80.35 Bohr mag/cell
     absolute magnetization    =    81.88 Bohr mag/cell

     iteration # 49     ecut=    50.00 Ry     beta= 0.10
     Davidson diagonalization with overlap
     ethr =  1.72E-06,  avg # of iterations =  1.0

     negative rho (up, down):  4.169E-04 2.304E-04
 
     Adding external electric field

     Computed dipole along edir(3) : 
        Dipole               -0.6345 Ry au,         -1.6127 Debye
        Dipole field         -0.0004 Ry au, 
 
        Potential amp.        0.0426 Ry
        Total length         54.2615 bohr
 
 
     Adding external electric field

     Computed dipole along edir(3) : 
        Dipole               -0.6345 Ry au,         -1.6127 Debye
        Dipole field         -0.0004 Ry au, 
 
        Potential amp.        0.0426 Ry
        Total length         54.2615 bohr
 

     total cpu time spent up to now is      622.8 secs

     total energy              =   -7398.03669147 Ry
     estimated scf accuracy    <       0.01817033 Ry

     total magnetization       =    80.36 Bohr mag/cell
     absolute magnetization    =    81.84 Bohr mag/cell

     iteration # 50     ecut=    50.00 Ry     beta= 0.10
     Davidson diagonalization with overlap
     ethr =  1.69E-06,  avg # of iterations =  1.5

     negative rho (up, down):  5.163E-04 2.538E-04
 
     Adding external electric field

     Computed dipole along edir(3) : 
        Dipole               -0.6154 Ry au,         -1.5641 Debye
        Dipole field         -0.0004 Ry au, 
 
        Potential amp.        0.0413 Ry
        Total length         54.2615 bohr
 
 
     Adding external electric field

     Computed dipole along edir(3) : 
        Dipole               -0.6154 Ry au,         -1.5641 Debye
        Dipole field         -0.0004 Ry au, 
 
        Potential amp.        0.0413 Ry
        Total length         54.2615 bohr
 

     total cpu time spent up to now is      635.2 secs

     total energy              =   -7398.03602008 Ry
     estimated scf accuracy    <       0.01762922 Ry

     total magnetization       =    80.32 Bohr mag/cell
     absolute magnetization    =    81.75 Bohr mag/cell

     iteration # 51     ecut=    50.00 Ry     beta= 0.10
     Davidson diagonalization with overlap
     ethr =  1.64E-06,  avg # of iterations =  1.5

     negative rho (up, down):  7.301E-04 3.807E-04
 
     Adding external electric field

     Computed dipole along edir(3) : 
        Dipole               -0.6180 Ry au,         -1.5707 Debye
        Dipole field         -0.0004 Ry au, 
 
        Potential amp.        0.0415 Ry
        Total length         54.2615 bohr
 
 
     Adding external electric field

     Computed dipole along edir(3) : 
        Dipole               -0.6180 Ry au,         -1.5707 Debye
        Dipole field         -0.0004 Ry au, 
 
        Potential amp.        0.0415 Ry
        Total length         54.2615 bohr
 

     total cpu time spent up to now is      647.6 secs

     total energy              =   -7398.03571115 Ry
     estimated scf accuracy    <       0.01795795 Ry

     total magnetization       =    80.33 Bohr mag/cell
     absolute magnetization    =    81.77 Bohr mag/cell

     iteration # 52     ecut=    50.00 Ry     beta= 0.10
     Davidson diagonalization with overlap
     ethr =  1.64E-06,  avg # of iterations =  1.5

     negative rho (up, down):  6.808E-04 3.656E-04
 
     Adding external electric field

     Computed dipole along edir(3) : 
        Dipole               -0.6221 Ry au,         -1.5812 Debye
        Dipole field         -0.0004 Ry au, 
 
        Potential amp.        0.0418 Ry
        Total length         54.2615 bohr
 
 
     Adding external electric field

     Computed dipole along edir(3) : 
        Dipole               -0.6221 Ry au,         -1.5812 Debye
        Dipole field         -0.0004 Ry au, 
 
        Potential amp.        0.0418 Ry
        Total length         54.2615 bohr
 

     total cpu time spent up to now is      660.4 secs

     total energy              =   -7398.03551526 Ry
     estimated scf accuracy    <       0.01738861 Ry

     total magnetization       =    80.32 Bohr mag/cell
     absolute magnetization    =    81.78 Bohr mag/cell

     iteration # 53     ecut=    50.00 Ry     beta= 0.10
     Davidson diagonalization with overlap
     ethr =  1.61E-06,  avg # of iterations =  1.5

     negative rho (up, down):  6.565E-04 3.575E-04
 
     Adding external electric field

     Computed dipole along edir(3) : 
        Dipole               -0.6223 Ry au,         -1.5817 Debye
        Dipole field         -0.0004 Ry au, 
 
        Potential amp.        0.0418 Ry
        Total length         54.2615 bohr
 
 
     Adding external electric field

     Computed dipole along edir(3) : 
        Dipole               -0.6223 Ry au,         -1.5817 Debye
        Dipole field         -0.0004 Ry au, 
 
        Potential amp.        0.0418 Ry
        Total length         54.2615 bohr
 

     total cpu time spent up to now is      673.0 secs

     total energy              =   -7398.03611409 Ry
     estimated scf accuracy    <       0.01895039 Ry

     total magnetization       =    80.39 Bohr mag/cell
     absolute magnetization    =    81.84 Bohr mag/cell

     iteration # 54     ecut=    50.00 Ry     beta= 0.10
     Davidson diagonalization with overlap
     ethr =  1.61E-06,  avg # of iterations =  1.5

     negative rho (up, down):  2.773E-03 2.461E-03
 
     Adding external electric field

     Computed dipole along edir(3) : 
        Dipole               -0.4444 Ry au,         -1.1297 Debye
        Dipole field         -0.0003 Ry au, 
 
        Potential amp.        0.0298 Ry
        Total length         54.2615 bohr
 
 
     Adding external electric field

     Computed dipole along edir(3) : 
        Dipole               -0.4444 Ry au,         -1.1297 Debye
        Dipole field         -0.0003 Ry au, 
 
        Potential amp.        0.0298 Ry
        Total length         54.2615 bohr
 

     total cpu time spent up to now is      684.6 secs

     total energy              =   -7398.03553097 Ry
     estimated scf accuracy    <       0.01998884 Ry

     total magnetization       =    80.41 Bohr mag/cell
     absolute magnetization    =    81.87 Bohr mag/cell

     iteration # 55     ecut=    50.00 Ry     beta= 0.10
     Davidson diagonalization with overlap
     ethr =  1.61E-06,  avg # of iterations = 18.5

     negative rho (up, down):  3.756E-03 3.454E-03
 
     Adding external electric field

     Computed dipole along edir(3) : 
        Dipole               -0.3943 Ry au,         -1.0021 Debye
        Dipole field         -0.0002 Ry au, 
 
        Potential amp.        0.0265 Ry
        Total length         54.2615 bohr
 
 
     Adding external electric field

     Computed dipole along edir(3) : 
        Dipole               -0.3943 Ry au,         -1.0021 Debye
        Dipole field         -0.0002 Ry au, 
 
        Potential amp.        0.0265 Ry
        Total length         54.2615 bohr
 

     total cpu time spent up to now is      713.1 secs

     total energy              =   -7398.03563519 Ry
     estimated scf accuracy    <       0.01558498 Ry

     total magnetization       =    80.34 Bohr mag/cell
     absolute magnetization    =    81.84 Bohr mag/cell

     iteration # 56     ecut=    50.00 Ry     beta= 0.10
     Davidson diagonalization with overlap
     ethr =  1.45E-06,  avg # of iterations =  2.0

     negative rho (up, down):  4.105E-03 3.831E-03
 
     Adding external electric field

     Computed dipole along edir(3) : 
        Dipole               -0.3702 Ry au,         -0.9409 Debye
        Dipole field         -0.0002 Ry au, 
 
        Potential amp.        0.0248 Ry
        Total length         54.2615 bohr
 
 
     Adding external electric field

     Computed dipole along edir(3) : 
        Dipole               -0.3702 Ry au,         -0.9409 Debye
        Dipole field         -0.0002 Ry au, 
 
        Potential amp.        0.0248 Ry
        Total length         54.2615 bohr
 

     total cpu time spent up to now is      727.3 secs

     total energy              =   -7398.03587044 Ry
     estimated scf accuracy    <       0.01276537 Ry

     total magnetization       =    80.29 Bohr mag/cell
     absolute magnetization    =    81.81 Bohr mag/cell

     iteration # 57     ecut=    50.00 Ry     beta= 0.10
     Davidson diagonalization with overlap
     ethr =  1.18E-06,  avg # of iterations =  1.5

     negative rho (up, down):  3.855E-03 3.641E-03
 
     Adding external electric field

     Computed dipole along edir(3) : 
        Dipole               -0.3356 Ry au,         -0.8529 Debye
        Dipole field         -0.0002 Ry au, 
 
        Potential amp.        0.0225 Ry
        Total length         54.2615 bohr
 
 
     Adding external electric field

     Computed dipole along edir(3) : 
        Dipole               -0.3356 Ry au,         -0.8529 Debye
        Dipole field         -0.0002 Ry au, 
 
        Potential amp.        0.0225 Ry
        Total length         54.2615 bohr
 

     total cpu time spent up to now is      740.2 secs

     total energy              =   -7398.03606439 Ry
     estimated scf accuracy    <       0.01267356 Ry

     total magnetization       =    80.30 Bohr mag/cell
     absolute magnetization    =    81.83 Bohr mag/cell

     iteration # 58     ecut=    50.00 Ry     beta= 0.10
     Davidson diagonalization with overlap
     ethr =  1.18E-06,  avg # of iterations =  2.0

     negative rho (up, down):  1.317E-03 1.244E-03
 
     Adding external electric field

     Computed dipole along edir(3) : 
        Dipole               -0.2837 Ry au,         -0.7211 Debye
        Dipole field         -0.0002 Ry au, 
 
        Potential amp.        0.0190 Ry
        Total length         54.2615 bohr
 
 
     Adding external electric field

[...]
    -5.9998  -5.9830  -5.9523  -5.9344  -5.9085  -5.8877  -5.8504  -5.8455
    -5.8148  -5.7937  -5.7583  -5.7389  -5.7291  -5.7205  -5.6960  -5.6775
    -5.6729  -5.6686  -5.6408  -5.6206  -5.6105  -5.5887  -5.5347  -5.5065
    -5.4589  -5.4429  -5.4127  -5.3978  -5.3854  -5.3488  -5.3020  -5.2862
    -5.2401  -5.2116  -5.1920  -5.1714  -5.1687  -5.0771  -5.0727  -5.0538
    -5.0015  -4.9697  -4.9497  -4.9165  -4.8954  -4.8743  -4.8493  -4.7964
    -4.7735  -4.7673  -4.7439  -4.7317  -4.6442  -4.6381  -4.5863  -4.5502
    -4.5336  -4.5182  -4.4856  -4.4517  -4.4268  -4.4018  -4.3809  -4.3659
    -4.3479  -4.2992  -4.2906  -4.2169  -4.1729  -4.1500  -4.1263  -4.0798
    -4.0728  -4.0438  -4.0355  -3.9975  -3.9599  -3.9506  -3.9227  -3.8967
    -3.8886  -3.8385  -3.8306  -3.8206  -3.7948  -3.7685  -3.7456  -3.7315
    -3.7170  -3.6940  -3.6590  -3.6439  -3.6414  -3.6258  -3.6037  -3.5876
    -3.5424  -3.5269  -3.5205  -3.5174  -3.4893  -3.4728  -3.4477  -3.4344
    -3.4217  -3.4029  -3.3901  -3.3445  -3.3433  -3.2975  -3.2891  -3.2553
    -3.2356  -3.2166  -3.2065  -3.1924  -3.1720  -3.1648  -3.1543  -3.1387
    -3.1137  -3.0714  -3.0371  -3.0273  -3.0252  -2.9935  -2.9697  -2.9544
    -2.9290  -2.9091  -2.8977  -2.8726  -2.8590  -2.8470  -2.8198  -2.8125
    -2.7926  -2.7886  -2.7821  -2.7713  -2.7480  -2.7424  -2.7240  -2.6996
    -2.6900  -2.6753  -2.6600  -2.6436  -2.6243  -2.6201  -2.5968  -2.5742
    -2.5596  -2.5394  -2.5256  -2.4921  -2.4899  -2.4781  -2.4643  -2.4365
    -2.4297  -2.3980  -2.3879  -2.3728  -2.3529  -2.3170  -2.2974  -2.2886
    -2.2618  -2.2527  -2.2286  -2.1991  -2.1744  -2.1608  -2.1308  -2.1214
    -2.1035  -2.0897  -2.0812  -2.0687  -2.0659  -2.0480  -2.0046  -1.9908
    -1.9761  -1.9673  -1.9578  -1.9324  -1.9228  -1.9154  -1.8840  -1.8714
    -1.8345  -1.8172  -1.7879  -1.7625  -1.7436  -1.7337  -1.7131  -1.6958
    -1.6621  -1.6533  -1.6392  -1.6270  -1.6090  -1.5973  -1.5741  -1.5452
    -1.5397  -1.5159  -1.4921  -1.4628  -1.4407  -1.4333  -1.4302  -1.4189
    -1.4068  -1.3753  -1.3344  -1.3066  -1.2952  -1.2350  -1.2178  -1.2059
    -1.1471  -1.0966  -1.0632  -1.0509  -1.0119  -0.9250  -0.8943  -0.8747
    -0.7767  -0.6603  -0.6122  -0.6059  -0.4618  -0.3650  -0.3217  -0.2574
     0.1073   0.1256   0.1607   0.1935   0.2336   0.2443   0.2629   0.2715
     0.2854   0.2881   0.3027   0.3039   0.3121   0.3290   0.3417   0.3478
     0.3524   0.3573   0.3712   0.3816   0.3861   0.3879   0.3979   0.4035
     0.4119   0.4194   0.4266   0.4377   0.4487   0.4515   0.4595   0.4603
     0.4664   0.4732   0.4784   0.4907   0.4960   0.5010   0.5035   0.5096
     0.5171   0.5348   0.5370   0.5445   0.5529   0.5614   0.5659   0.5809
     0.5838   0.5867   0.5935   0.5991   0.6107   0.6164   0.6231   0.6338
     0.6383   0.6479   0.6611   0.6633   0.6755   0.6789   0.6841   0.6887
     0.7008   0.7081   0.7143   0.7172   0.7224   0.7283   0.7411   0.7443
     0.7493   0.7532   0.7682   0.7743   0.7868   0.7892   0.7975   0.8108
     0.8248   0.8298   0.8460   0.8543   0.8632   0.8661   0.8810   0.8839
     0.8982   0.9139   0.9183   0.9277   0.9365   0.9880   0.9922   1.0178
     1.0734   1.1372   1.6134   1.6596   1.7022   1.7060   1.7150   1.7186
     1.7593   1.8482   1.8677   1.8783   1.8946   1.9322   1.9376   1.9661
     1.9736   1.9952   2.0194   2.0333   2.0424   2.0698   2.0858   2.1246
     2.1524   2.1631   2.1645   2.1959   2.2026   2.2101   2.2232   2.2308
     2.2450   2.2552   2.2654   2.2827   2.2901   2.3020   2.3072   2.3191
     2.3408   2.3523   2.3605   2.3762   2.4106   2.4145   2.4182   2.4478
     2.4621   2.4879   2.5005   2.5014   2.5172   2.5247   2.5493   2.5576
     2.5737   2.5848   2.5970   2.6311   2.6731   2.7085   2.7283   2.7497
     2.7832   2.8364   2.8846   2.8910   2.9086   3.5820   3.5919   3.6664
     3.7489   3.8248   3.8369   3.8461   3.8623   3.9998   4.0642   4.5860
     4.6422   4.7098   4.7760   4.9234   4.9500   5.0206   5.4146   6.2962
     6.3623   6.5442   6.5851   6.7441   6.8410   6.8536   6.8857   6.9306
     6.9958   7.0633   7.1137   7.1536   7.2989   7.3259   7.3708   7.4675
     7.5036   7.5612   7.6321   7.6713   7.6945   7.7532   7.7913   7.8116
     7.8664   7.9252   7.9315   7.9763   8.0182   8.0329   8.0584   8.0781
     8.1063   8.1221   8.1648   8.1892   8.2353   8.2660   8.2756   8.3305
     8.3781   8.3999   8.4257   8.4545   8.4690   8.4826   8.4977   8.5145
     8.5458   8.5684   8.5773   8.6102   8.6163   8.6448   8.6675   8.6929
     8.7228   8.7655   8.7812   8.8062   8.8335   8.8497   8.8671

     the Fermi energy is     1.5667 ev

!    total energy              =   -7398.03593804 Ry
     estimated scf accuracy    <       0.00000055 Ry
     smearing contrib. (-TS)   =      -0.01432509 Ry
     internal energy E=F+TS    =   -7398.02161296 Ry

     The total energy is F=E-TS. E is the sum of the following terms:
     one-electron contribution =  -91743.63198494 Ry
     hartree contribution      =   46519.74471383 Ry
     xc contribution           =   -2260.28041528 Ry
     ewald contribution        =   40087.98005395 Ry
     Dispersion Correction     =      -1.83399125 Ry
     electric field correction =       0.00001074 Ry

     total magnetization       =    80.44 Bohr mag/cell
     absolute magnetization    =    81.98 Bohr mag/cell

     convergence has been achieved in  81 iterations

     negative rho (up, down):  9.305E-04 5.475E-04

     Forces acting on atoms (cartesian axes, Ry/au):

     atom    1 type  2   force =     0.03084745   -0.01956492   -0.01628027
     atom    2 type  1   force =     0.00226180   -0.00398691   -0.01063591
     atom    3 type  1   force =    -0.02160560   -0.02069618    0.01814265
     atom    4 type  1   force =     0.00141384    0.01032448   -0.01270315
     atom    5 type  1   force =    -0.00490209    0.02908269   -0.01855261
     atom    6 type  1   force =     0.00581260    0.00039270   -0.00038665
     atom    7 type  1   force =     0.02695387   -0.02086996    0.01743240
     atom    8 type  1   force =    -0.00969935   -0.00313779   -0.01105159
     atom    9 type  1   force =    -0.02964476   -0.01826733    0.01615640
     atom   10 type  1   force =    -0.00116630    0.00810168   -0.01299459
     atom   11 type  1   force =    -0.01302131    0.03047620   -0.02067012
     atom   12 type  1   force =     0.00128655    0.00646696   -0.00403698
     atom   13 type  3   force =     0.05102640   -0.11003492    0.00912677
     atom   14 type  3   force =    -0.02904099    0.03593576   -0.06518943
     atom   15 type  3   force =    -0.00920455    0.17548457   -0.08319870
     atom   16 type  3   force =     0.06067858    0.00060153   -0.00442315
     atom   17 type  4   force =     0.01516700   -0.02186458   -0.00985496
     atom   18 type  4   force =    -0.00542545    0.00484483    0.02967180
     atom   19 type  4   force =     0.00216651    0.00102643    0.03076830
     atom   20 type  4   force =     0.00514162    0.00185070    0.00233090
     atom   21 type  4   force =     0.00051728   -0.01203192    0.00005677
     atom   22 type  4   force =    -0.00095521    0.00392252    0.03238191
     atom   23 type  4   force =    -0.00606576    0.01468504    0.02735672
     atom   24 type  4   force =     0.00869327    0.00318718   -0.00424824
     atom   25 type  4   force =     0.00651114   -0.00323262    0.00154097
     atom   26 type  4   force =     0.03119923   -0.17838853    0.00720139
     atom   27 type  4   force =     0.00283174    0.00098325    0.00168560
     atom   28 type  4   force =    -0.01707684    0.00167766    0.00472403
     atom   29 type  4   force =     0.09139642    0.00313686    0.00802716
     atom   30 type  4   force =     0.01304153   -0.02520806   -0.00093558
     atom   31 type  4   force =    -0.03849920    0.13343999   -0.00018054
     atom   32 type  4   force =    -0.00545146   -0.01186045    0.00651401
     atom   33 type  3   force =     0.04155693   -0.11926864    0.00965928
     atom   34 type  3   force =    -0.10168702    0.04258984   -0.07576147
     atom   35 type  3   force =    -0.01352280    0.16598490   -0.08813483
     atom   36 type  3   force =    -0.00359513    0.00260956   -0.01046900
     atom   37 type  4   force =     0.00821757   -0.01469087   -0.00244857
     atom   38 type  4   force =    -0.00587951   -0.00169570    0.02742825
     atom   39 type  4   force =    -0.00467565    0.00725275    0.03216098
     atom   40 type  4   force =     0.00131752    0.00001928    0.00245536
     atom   41 type  4   force =    -0.00152072   -0.00961614   -0.00155644
     atom   42 type  4   force =     0.00540106   -0.00049387    0.02925891
     atom   43 type  4   force =    -0.01043818    0.01351134    0.02703087
     atom   44 type  4   force =     0.00446679    0.00344600   -0.00445294
     atom   45 type  4   force =    -0.00028982   -0.00062306    0.00199185
     atom   46 type  4   force =     0.02816323   -0.17056953    0.00538123
     atom   47 type  4   force =    -0.06555344   -0.00075533   -0.00312320
     atom   48 type  4   force =    -0.01986761    0.00391328    0.00528514
     atom   49 type  4   force =     0.01412142    0.00083873    0.00202068
     atom   50 type  4   force =     0.00792747   -0.02440769   -0.00018037
     atom   51 type  4   force =    -0.03976880    0.13341486   -0.00137697
     atom   52 type  4   force =    -0.00774079   -0.01064068    0.00873050
     atom   53 type  2   force =     0.00647431   -0.00743696    0.00573809
     atom   54 type  1   force =    -0.00001252   -0.00553792    0.01039782
     atom   55 type  1   force =     0.00486894   -0.00629147    0.00664227
     atom   56 type  1   force =    -0.00028264    0.00725531   -0.00077907
     atom   57 type  1   force =     0.00043411    0.02210392   -0.01405716
     atom   58 type  1   force =     0.00167175   -0.00332097    0.00243485
     atom   59 type  1   force =     0.00239769   -0.00997175    0.00400224
     atom   60 type  1   force =    -0.00686554   -0.00350343    0.00404586
     atom   61 type  1   force =    -0.00462830   -0.00497888    0.00666484
     atom   62 type  1   force =    -0.00337963    0.00648613   -0.00164979
     atom   63 type  1   force =    -0.01078972    0.02500157   -0.01745640
     atom   64 type  1   force =    -0.00249226    0.00121300   -0.00053795
     atom   65 type  3   force =     0.04621018   -0.12079038    0.01811963
     atom   66 type  3   force =     0.00166309   -0.00422397    0.00093006
     atom   67 type  3   force =    -0.04063917    0.12355826   -0.00702220
     atom   68 type  3   force =     0.06284178   -0.00132136    0.00741047
     atom   69 type  4   force =     0.01262563   -0.01720753   -0.00256029
     atom   70 type  4   force =    -0.00186144    0.00339238   -0.00077421
     atom   71 type  4   force =    -0.00193167    0.00347874    0.00532604
     atom   72 type  4   force =     0.00466753    0.00133845    0.00127607
     atom   73 type  4   force =     0.00770793   -0.01759387    0.01302453
     atom   74 type  4   force =    -0.00447102   -0.00330105    0.00917641
     atom   75 type  4   force =     0.00355524    0.00866643    0.00455815
     atom   76 type  4   force =     0.00625344    0.00080979   -0.00010068
     atom   77 type  4   force =     0.00634253   -0.00191111   -0.00078581
     atom   78 type  4   force =     0.04529966   -0.14084113    0.00572879
     atom   79 type  4   force =     0.00013356    0.00011986   -0.00034279
     atom   80 type  4   force =     0.00149620    0.00190523    0.00223435
     atom   81 type  4   force =     0.06748497    0.00009325    0.00651366
     atom   82 type  4   force =     0.00014660    0.00224419    0.00126798
     atom   83 type  4   force =    -0.03927014    0.13812486   -0.00231026
     atom   84 type  4   force =    -0.00187548   -0.01027308    0.00352239
     atom   85 type  3   force =     0.03857369   -0.12491281    0.02464620
     atom   86 type  3   force =    -0.06336513   -0.00162953   -0.00384938
     atom   87 type  3   force =    -0.04619453    0.12068795   -0.01054216
     atom   88 type  3   force =    -0.00012476    0.00106820    0.00301191
     atom   89 type  4   force =     0.00913537   -0.01463098   -0.00549848
     atom   90 type  4   force =    -0.00445794    0.00103105   -0.00082553
     atom   91 type  4   force =    -0.00949699    0.00839240    0.00550529
     atom   92 type  4   force =     0.00039976   -0.00036691    0.00022630
     atom   93 type  4   force =     0.00180433   -0.01115883   -0.00119219
     atom   94 type  4   force =    -0.00898679   -0.00302674    0.00823809
     atom   95 type  4   force =    -0.00029478    0.00778970    0.00299374
     atom   96 type  4   force =    -0.00126546    0.00132398   -0.00013182
     atom   97 type  4   force =    -0.00126870    0.00108353   -0.00034041
     atom   98 type  4   force =     0.04065217   -0.13907831    0.00482960
     atom   99 type  4   force =    -0.06704601   -0.00078352   -0.00565460
     atom  100 type  4   force =    -0.00043563    0.00287581    0.00287953
     atom  101 type  4   force =    -0.00126375    0.00001871    0.00132262
     atom  102 type  4   force =    -0.00680206    0.00541393    0.00153331
     atom  103 type  4   force =    -0.04001848    0.13580442   -0.00441561
     atom  104 type  4   force =    -0.00554985   -0.00999394    0.00488596
     atom  105 type  2   force =    -0.00040377    0.00037950    0.00029735
     atom  106 type  1   force =    -0.00013230   -0.00021573    0.00036520
     atom  107 type  1   force =    -0.00005808   -0.00044794    0.00025265
     atom  108 type  1   force =     0.00034566    0.00037429   -0.00023768
     atom  109 type  1   force =    -0.00056983    0.00004071    0.00014121
     atom  110 type  1   force =    -0.00005260   -0.00013074    0.00027413
     atom  111 type  1   force =    -0.00002080    0.00033709    0.00030021
     atom  112 type  1   force =     0.00003221    0.00006440    0.00024507
     atom  113 type  1   force =     0.00007606   -0.00040213   -0.00000675
     atom  114 type  1   force =    -0.00039933    0.00015640   -0.00027246
     atom  115 type  1   force =     0.00020176   -0.00001797    0.00017984
     atom  116 type  1   force =    -0.00031129   -0.00040204    0.00026228
     atom  117 type  3   force =    -0.00018965   -0.00102403    0.00082936
     atom  118 type  3   force =     0.00020788   -0.00021256    0.00002004
     atom  119 type  3   force =    -0.00003487   -0.00005193   -0.00012260
     atom  120 type  3   force =    -0.00009098   -0.00030280   -0.00003000
     atom  121 type  4   force =     0.00020594    0.00005730   -0.00053338
     atom  122 type  4   force =    -0.00010124    0.00009105    0.00003191
     atom  123 type  4   force =     0.00013377   -0.00032592   -0.00006090
     atom  124 type  4   force =    -0.00026337   -0.00028874    0.00016598
     atom  125 type  4   force =    -0.00020111    0.00049431   -0.00081093
     atom  126 type  4   force =    -0.00005613   -0.00033456    0.00002973
     atom  127 type  4   force =     0.00037160   -0.00016516   -0.00005487
     atom  128 type  4   force =    -0.00023097   -0.00029143   -0.00008511
     atom  129 type  4   force =     0.00008190   -0.00035377   -0.00012097
     atom  130 type  4   force =    -0.00012753    0.00010020   -0.00007776
     atom  131 type  4   force =    -0.00042431   -0.00023079    0.00003981
     atom  132 type  4   force =     0.00016815   -0.00024629    0.00027465
     atom  133 type  4   force =    -0.00018259   -0.00027247    0.00010456
     atom  134 type  4   force =    -0.00029013   -0.00020860   -0.00001738
     atom  135 type  4   force =    -0.00055792   -0.00018048   -0.00055495
     atom  136 type  4   force =     0.00078726   -0.00008289   -0.00034784
     atom  137 type  3   force =     0.00028067   -0.00011995   -0.00019180
     atom  138 type  3   force =    -0.00024235   -0.00020629   -0.00009203
     atom  139 type  3   force =    -0.00009332    0.00000813    0.00007931
     atom  140 type  3   force =    -0.00056665   -0.00023113   -0.00040115
     atom  141 type  4   force =     0.00051054   -0.00035211    0.00013589
     atom  142 type  4   force =     0.00015250   -0.00000921   -0.00013866
     atom  143 type  4   force =    -0.00001475   -0.00019788    0.00020069
     atom  144 type  4   force =     0.00070838    0.00032205    0.00095231
     atom  145 type  4   force =    -0.00040596   -0.00011865   -0.00066377
     atom  146 type  4   force =    -0.00000857   -0.00024867   -0.00013276
     atom  147 type  4   force =     0.00041038   -0.00002835    0.00000903
     atom  148 type  4   force =    -0.00005434    0.00057185   -0.00025460
     atom  149 type  4   force =     0.00061410   -0.00036290   -0.00013031
     atom  150 type  4   force =     0.00020078    0.00022981    0.00014969
     atom  151 type  4   force =     0.00010633   -0.00002259    0.00000961
     atom  152 type  4   force =     0.00044222   -0.00004575    0.00011624
     atom  153 type  4   force =    -0.00010442    0.00001957   -0.00028748
     atom  154 type  4   force =    -0.00016931   -0.00020045   -0.00002107
     atom  155 type  4   force =     0.00019905   -0.00007368   -0.00016806
     atom  156 type  4   force =    -0.00005848    0.00029786   -0.00049031
     atom  157 type  4   force =     0.00732017   -0.00562659   -0.00116472
     atom  158 type  5   force =    -0.00673085    0.00599813    0.00206873

     Total force =     0.665508     Total SCF correction =     0.003342
 
     init_run     :      7.16s CPU      7.87s WALL (       1 calls)
     electrons    :    947.37s CPU    995.93s WALL (       1 calls)
     forces       :      3.24s CPU      3.63s WALL (       1 calls)
     force_london :      0.08s CPU      0.08s WALL (       1 calls)

     Called by init_run:
     wfcinit      :      4.31s CPU      4.49s WALL (       1 calls)
     potinit      :      0.57s CPU      0.76s WALL (       1 calls)
     hinit0       :      1.11s CPU      1.20s WALL (       1 calls)

     Called by electrons:
     c_bands      :    744.61s CPU    768.05s WALL (      81 calls)
     sum_band     :    131.44s CPU    145.02s WALL (      81 calls)
     v_of_rho     :     13.45s CPU     14.47s WALL (      82 calls)
     newd         :     37.58s CPU     48.22s WALL (      82 calls)
     mix_rho      :     19.51s CPU     19.63s WALL (      81 calls)
     energy_londo :      0.08s CPU      0.08s WALL (       1 calls)

     Called by c_bands:
     init_us_2    :      2.55s CPU      2.59s WALL (     328 calls)
     init_us_2:cp :      2.55s CPU      2.59s WALL (     328 calls)
     regterg      :    728.26s CPU    751.52s WALL (     163 calls)

     Called by *egterg:
     rdiaghg      :    201.78s CPU    212.07s WALL (     539 calls)
     h_psi        :    293.14s CPU    299.21s WALL (     541 calls)
     s_psi        :     58.17s CPU     58.20s WALL (     541 calls)
     g_psi        :      0.40s CPU      0.40s WALL (     376 calls)

     Called by h_psi:
     h_psi:calbec :     78.47s CPU     83.79s WALL (     541 calls)
     vloc_psi     :    154.13s CPU    154.80s WALL (     541 calls)
     add_vuspsi   :     59.73s CPU     59.80s WALL (     541 calls)

     General routines
     calbec       :    116.55s CPU    124.51s WALL (     711 calls)
     fft          :     13.24s CPU     14.55s WALL (    1489 calls)
     ffts         :     12.14s CPU     12.18s WALL (   10085 calls)
     fftw         :    176.07s CPU    176.79s WALL (  271632 calls)
     interpolate  :      1.28s CPU      1.36s WALL (     164 calls)
 
     Parallel routines
 
     PWSCF        :  15m59.82s CPU  16m49.74s WALL

 
   This run was terminated on:  22:25: 9  19Nov2025            

=------------------------------------------------------------------------------=
   JOB DONE.
=------------------------------------------------------------------------------=
