
     Program PWSCF v.7.2 starts on 19Nov2025 at 20:50:38 

     This program is part of the open-source Quantum ESPRESSO suite
     for quantum simulation of materials; please cite
         "P. Giannozzi et al., J. Phys.:Condens. Matter 21 395502 (2009);
         "P. Giannozzi et al., J. Phys.:Condens. Matter 29 465901 (2017);
         "P. Giannozzi et al., J. Chem. Phys. 152 154105 (2020);
          URL http://www.quantum-espresso.org", 
     in publications or presentations arising from this work. More details at
     http://www.quantum-espresso.org/quote

     Parallel version (MPI), running on    64 processors

     MPI processes distributed on     4 nodes
     450081 MiB available memory on the printing compute node when the environment starts
 
     Reading input from PWINPUT_atm157_zm

     Current dimensions of program PWSCF are:
     Max number of different atomic species (ntypx) = 10
     Max number of k-points (npk) =  40000
     Max angular momentum in pseudopotentials (lmaxx) =  4
     Presently no symmetry can be used with electric field

     file Ni.pbe-n-rrkjus_psl.1.0.0.UPF: wavefunction(s)  3D renormalized
     file Mn.pbe-spn-rrkjus_psl.0.3.1.UPF: wavefunction(s)  3D renormalized
     file O.pbe-rrkjus.UPF: wavefunction(s)  2S renormalized
     file H.pbe-rrkjus.UPF: wavefunction(s)  1S renormalized

     gamma-point specific algorithms are used
 
     R & G space division:  proc/nbgrp/npool/nimage =      64
     Subspace diagonalization in iterative solution of the eigenvalue problem:
     one sub-group per band group will be used
     custom distributed-memory algorithm (size of sub-group:  6*  6 procs)

 
     Parallelization info
     --------------------
     sticks:   dense  smooth     PW     G-vecs:    dense   smooth      PW
     Min         208      82     20                59912    15118    1876
     Max         210      84     22                59974    15196    1926
     Sum       13399    5355   1345              3836275   970529  121367
 
     Using Slab Decomposition
 


     bravais-lattice index     =            0
     lattice parameter (alat)  =      17.7004  a.u.
     unit-cell volume          =   20319.7251 (a.u.)^3
     number of atoms/cell      =          158
     number of atomic types    =            5
     number of electrons       =      1078.00
     number of Kohn-Sham states=          647
     kinetic-energy cutoff     =      50.0000  Ry
     charge density cutoff     =     500.0000  Ry
     scf convergence threshold =      1.0E-06
     mixing beta               =       0.1000
     number of iterations used =            8  local-TF  mixing
     Exchange-correlation=  SLA  PW   PBE  PBE
                           (   1   4   3   4   0   0   0)

     celldm(1)=  17.700384  celldm(2)=   0.000000  celldm(3)=   0.000000
     celldm(4)=   0.000000  celldm(5)=   0.000000  celldm(6)=   0.000000

     crystal axes: (cart. coord. in units of alat)
               a(1) = (   1.000000   0.000000   0.000000 )  
               a(2) = (   0.000000   1.075730   0.000000 )  
               a(3) = (   0.000000   0.000000   3.406172 )  

     reciprocal axes: (cart. coord. in units 2 pi/alat)
               b(1) = (  1.000000  0.000000  0.000000 )  
               b(2) = (  0.000000  0.929602  0.000000 )  
               b(3) = (  0.000000  0.000000  0.293585 )  


     PseudoPot. # 1 for Ni read from file:
     ~/PSEUDO/Ni.pbe-n-rrkjus_psl.1.0.0.UPF
     MD5 check sum: Not computed, couldn't open file
     Pseudo is Ultrasoft + core correction, Zval = 10.0
     Generated using "atomic" code by A. Dal Corso  v.5.1.2
     Using radial grid of 1195 points,  6 beta functions with: 
                l(1) =   0
                l(2) =   0
                l(3) =   1
                l(4) =   1
                l(5) =   2
                l(6) =   2
     Q(r) pseudized with 0 coefficients 


     PseudoPot. # 2 for Mn read from file:
     ~/PSEUDO/Mn.pbe-spn-rrkjus_psl.0.3.1.UPF
     MD5 check sum: Not computed, couldn't open file
     Pseudo is Ultrasoft + core correction, Zval = 15.0
     Generated using &quot;atomic&quot; code by A. Dal Corso  v.6.2.2
     Using radial grid of 1187 points,  6 beta functions with: 
                l(1) =   0
                l(2) =   0
                l(3) =   1
                l(4) =   1
                l(5) =   2
                l(6) =   2
     Q(r) pseudized with 0 coefficients 


     PseudoPot. # 3 for P  read from file:
     ~/PSEUDO/P.pbe-n-rrkjus_psl.1.0.0.UPF
     MD5 check sum: Not computed, couldn't open file
     Pseudo is Ultrasoft + core correction, Zval =  5.0
     Generated using "atomic" code by A. Dal Corso  v.5.1
     Using radial grid of 1147 points,  6 beta functions with: 
                l(1) =   0
                l(2) =   0
                l(3) =   1
                l(4) =   1
                l(5) =   2
                l(6) =   2
     Q(r) pseudized with 0 coefficients 


     PseudoPot. # 4 for O  read from file:
     ~/PSEUDO/O.pbe-rrkjus.UPF
     MD5 check sum: Not computed, couldn't open file
     Pseudo is Ultrasoft, Zval =  6.0
     Generated by new atomic code, or converted to UPF format
     Using radial grid of 1269 points,  4 beta functions with: 
                l(1) =   0
                l(2) =   0
                l(3) =   1
                l(4) =   1
     Q(r) pseudized with 0 coefficients 


     PseudoPot. # 5 for H  read from file:
     ~/PSEUDO/H.pbe-rrkjus.UPF
     MD5 check sum: Not computed, couldn't open file
     Pseudo is Ultrasoft, Zval =  1.0
     Generated by new atomic code, or converted to UPF format
     Using radial grid of 1061 points,  2 beta functions with: 
                l(1) =   0
                l(2) =   0
     Q(r) pseudized with 0 coefficients 


     atomic species   valence    mass     pseudopotential
     Ni               10.00    58.69300     Ni( 1.00)
     Mn               15.00    54.93800     Mn( 1.00)
     P                 5.00    30.97300     P ( 1.00)
     O                 6.00    15.99900     O ( 1.00)
     H                 1.00     1.00790     H ( 1.00)

     Starting magnetic structure 
     atomic species   magnetization
     Ni              1.000
     Mn              1.000
     P               1.000
     O               1.000
     H               0.000

     No symmetry found



   Cartesian axes

     site n.     atom                  positions (alat units)
         1        Mn     tau(   1) = (   0.2404744   0.8371250   0.1168501  )
         2        Ni     tau(   2) = (   0.4968126   0.7726670   0.4415546  )
         3        Ni     tau(   3) = (   0.0066150   0.2936743   0.1241053  )
         4        Ni     tau(   4) = (   0.2585722   0.2355858   0.4448848  )
         5        Ni     tau(   5) = (   0.9987350   1.0696411   0.2854926  )
         6        Ni     tau(   6) = (   0.2517397   0.5330511   0.2829322  )
         7        Ni     tau(   7) = (   0.7451645   0.8337543   0.1221751  )
         8        Ni     tau(   8) = (   0.9939181   0.7738804   0.4407595  )
         9        Ni     tau(   9) = (   0.5111533   0.2924088   0.1251865  )
        10        Ni     tau(  10) = (   0.7606326   0.2319267   0.4451372  )
        11        Ni     tau(  11) = (   0.5024065   1.0688133   0.2870502  )
        12        Ni     tau(  12) = (   0.7529977   0.5317900   0.2845227  )
        13        P      tau(  13) = (   0.2092944   0.9731097   0.4345035  )
        14        P      tau(  14) = (   0.4655727   0.6359535   0.1274635  )
        15        P      tau(  15) = (   0.2910699   0.1027363   0.1296098  )
        16        P      tau(  16) = (   0.0396216   0.4288395   0.4398838  )
        17        O      tau(  17) = (   0.1294378   0.9013260   0.3010618  )
        18        O      tau(  18) = (   0.3874505   0.7054774   0.2637003  )
        19        O      tau(  19) = (   0.3702540   0.1714799   0.2660028  )
        20        O      tau(  20) = (   0.1184398   0.3582958   0.3038353  )
        21        O      tau(  21) = (   0.1451572   0.8850881   0.5587578  )
        22        O      tau(  22) = (   0.4048762   0.7245585   0.0017492  )
        23        O      tau(  23) = (   0.3523506   0.1900579   0.0035744  )
        24        O      tau(  24) = (   0.1017610   0.3410484   0.5656572  )
        25        O      tau(  25) = (   0.0975396   0.5849288   0.4357922  )
        26        O      tau(  26) = (   0.3483552   1.0314945   0.1270322  )
        27        O      tau(  27) = (   0.3784305   0.4225118   0.4308928  )
        28        O      tau(  28) = (   0.1268237   0.1067944   0.1392744  )
        29        O      tau(  29) = (   0.1212267   0.6424170   0.1362896  )
        30        O      tau(  30) = (   0.4053315   0.4809387   0.1300622  )
        31        O      tau(  31) = (   0.1536621   0.0446918   0.4373386  )
        32        O      tau(  32) = (   0.3732349   0.9631717   0.4256642  )
        33        P      tau(  33) = (   0.7119823   0.9695974   0.4373010  )
        34        P      tau(  34) = (   0.9615208   0.6363392   0.1262932  )
        35        P      tau(  35) = (   0.7927710   0.0970060   0.1292164  )
        36        P      tau(  36) = (   0.5426404   0.4269675   0.4410738  )
        37        O      tau(  37) = (   0.6326879   0.8991182   0.3013240  )
        38        O      tau(  38) = (   0.8842163   0.7083206   0.2625155  )
        39        O      tau(  39) = (   0.8716178   0.1677751   0.2653504  )
        40        O      tau(  40) = (   0.6212010   0.3558666   0.3051085  )
        41        O      tau(  41) = (   0.6507714   0.8812342   0.5631722  )
        42        O      tau(  42) = (   0.9014054   0.7264458   0.0010676  )
        43        O      tau(  43) = (   0.8548963   0.1847909   0.0035471  )
        44        O      tau(  44) = (   0.6044469   0.3378706   0.5660366  )
        45        O      tau(  45) = (   0.6024424   0.5823140   0.4379016  )
        46        O      tau(  46) = (   0.8498940   1.0254482   0.1275156  )
        47        O      tau(  47) = (   0.8798395   0.4205825   0.4305771  )
        48        O      tau(  48) = (   0.6286921   0.1034636   0.1397346  )
        49        O      tau(  49) = (   0.6294973   0.6427753   0.1372553  )
        50        O      tau(  50) = (   0.9024339   0.4810312   0.1296418  )
        51        O      tau(  51) = (   0.6547812   0.0410987   0.4396636  )
        52        O      tau(  52) = (   0.8760507   0.9632605   0.4264507  )
        53        Mn     tau(  53) = (   0.2404744   0.8246335   0.7367378  )
        54        Ni     tau(  54) = (   0.4968126   0.7601755   1.0614423  )
        55        Ni     tau(  55) = (   0.0066150   0.2811828   0.7439929  )
        56        Ni     tau(  56) = (   0.2585722   0.2230943   1.0647725  )
        57        Ni     tau(  57) = (   0.9987350   1.0571496   0.9053803  )
        58        Ni     tau(  58) = (   0.2517397   0.5205596   0.9028199  )
        59        Ni     tau(  59) = (   0.7451645   0.8212628   0.7420628  )
        60        Ni     tau(  60) = (   0.9939181   0.7613889   1.0606471  )
        61        Ni     tau(  61) = (   0.5111533   0.2799173   0.7450742  )
        62        Ni     tau(  62) = (   0.7606326   0.2194352   1.0650249  )
        63        Ni     tau(  63) = (   0.5024065   1.0563218   0.9069379  )
        64        Ni     tau(  64) = (   0.7529977   0.5192985   0.9044104  )
        65        P      tau(  65) = (   0.2092944   0.9606182   1.0543912  )
        66        P      tau(  66) = (   0.4655727   0.6234620   0.7473512  )
        67        P      tau(  67) = (   0.2910699   0.0902448   0.7494974  )
        68        P      tau(  68) = (   0.0396216   0.4163480   1.0597715  )
        69        O      tau(  69) = (   0.1294378   0.8888345   0.9209495  )
        70        O      tau(  70) = (   0.3874505   0.6929859   0.8835880  )
        71        O      tau(  71) = (   0.3702540   0.1589885   0.8858904  )
        72        O      tau(  72) = (   0.1184398   0.3458043   0.9237230  )
        73        O      tau(  73) = (   0.1451572   0.8725966   1.1786454  )
        74        O      tau(  74) = (   0.4048762   0.7120670   0.6216369  )
        75        O      tau(  75) = (   0.3523506   0.1775664   0.6234620  )
        76        O      tau(  76) = (   0.1017610   0.3285569   1.1855448  )
        77        O      tau(  77) = (   0.0975396   0.5724373   1.0556799  )
        78        O      tau(  78) = (   0.3483552   1.0190030   0.7469198  )
        79        O      tau(  79) = (   0.3784305   0.4100203   1.0507804  )
        80        O      tau(  80) = (   0.1268237   0.0943029   0.7591620  )
        81        O      tau(  81) = (   0.1212267   0.6299255   0.7561772  )
        82        O      tau(  82) = (   0.4053315   0.4684472   0.7499499  )
        83        O      tau(  83) = (   0.1536621   0.0322003   1.0572263  )
        84        O      tau(  84) = (   0.3732349   0.9506802   1.0455518  )
        85        P      tau(  85) = (   0.7119823   0.9571059   1.0571887  )
        86        P      tau(  86) = (   0.9615208   0.6238477   0.7461808  )
        87        P      tau(  87) = (   0.7927710   0.0845145   0.7491041  )
        88        P      tau(  88) = (   0.5426404   0.4144760   1.0609615  )
        89        O      tau(  89) = (   0.6326879   0.8866267   0.9212117  )
        90        O      tau(  90) = (   0.8842163   0.6958291   0.8824032  )
        91        O      tau(  91) = (   0.8716178   0.1552836   0.8852381  )
        92        O      tau(  92) = (   0.6212010   0.3433751   0.9249961  )
        93        O      tau(  93) = (   0.6507714   0.8687427   1.1830599  )
        94        O      tau(  94) = (   0.9014054   0.7139543   0.6209553  )
        95        O      tau(  95) = (   0.8548963   0.1722994   0.6234348  )
        96        O      tau(  96) = (   0.6044469   0.3253792   1.1859242  )
        97        O      tau(  97) = (   0.6024424   0.5698225   1.0577892  )
        98        O      tau(  98) = (   0.8498940   1.0129567   0.7474033  )
        99        O      tau(  99) = (   0.8798395   0.4080910   1.0504647  )
       100        O      tau( 100) = (   0.6286921   0.0909721   0.7596222  )
       101        O      tau( 101) = (   0.6294973   0.6302838   0.7571429  )
       102        O      tau( 102) = (   0.9024339   0.4685397   0.7495295  )
       103        O      tau( 103) = (   0.6547812   0.0286072   1.0595512  )
       104        O      tau( 104) = (   0.8760507   0.9507690   1.0463383  )
       105        Mn     tau( 105) = (   0.2364458   0.8094794   1.3653459  )
       106        Ni     tau( 106) = (   0.4907942   0.7363522   1.7049996  )
       107        Ni     tau( 107) = (   0.0093952   0.2680398   1.3698569  )
       108        Ni     tau( 108) = (   0.2497295   0.2108424   1.6761145  )
       109        Ni     tau( 109) = (   1.0036298   1.0443547   1.5337867  )
       110        Ni     tau( 110) = (   0.2508731   0.5072093   1.5337250  )
       111        Ni     tau( 111) = (   0.7430527   0.8053936   1.3670713  )
       112        Ni     tau( 112) = (   1.0004343   0.7470669   1.6781949  )
       113        Ni     tau( 113) = (   0.5111923   0.2663270   1.3700523  )
       114        Ni     tau( 114) = (   0.7492854   0.2057646   1.6748146  )
       115        Ni     tau( 115) = (   0.5041086   1.0410710   1.5344479  )
       116        Ni     tau( 116) = (   0.7475733   0.5047540   1.5316464  )
       117        P      tau( 117) = (   0.2133552   0.9392292   1.6984504  )
       118        P      tau( 118) = (   0.4634655   0.6097679   1.3737019  )
       119        P      tau( 119) = (   0.2926447   0.0743533   1.3725526  )
       120        P      tau( 120) = (   0.0367365   0.3974952   1.6921475  )
       121        O      tau( 121) = (   0.1371062   0.8722393   1.5551977  )
       122        O      tau( 122) = (   0.3876369   0.6802541   1.5098871  )
       123        O      tau( 123) = (   0.3711295   0.1420780   1.5089708  )
       124        O      tau( 124) = (   0.1160403   0.3372838   1.5462681  )
       125        O      tau( 125) = (   0.1492652   0.8455602   1.8156300  )
       126        O      tau( 126) = (   0.4032581   0.6987394   1.2472428  )
       127        O      tau( 127) = (   0.3539738   0.1604313   1.2459115  )
       128        O      tau( 128) = (   0.0992937   0.3009536   1.8068009  )
       129        O      tau( 129) = (   0.0909237   0.5559234   1.6906175  )
       130        O      tau( 130) = (   0.3495909   0.9934160   1.3761257  )
       131        O      tau( 131) = (   0.3736946   0.3887924   1.6741111  )
       132        O      tau( 132) = (   0.1287801   0.0799213   1.3839567  )
       133        O      tau( 133) = (   0.1223930   0.6189353   1.3829709  )
       134        O      tau( 134) = (   0.4027999   0.4547621   1.3753464  )
       135        O      tau( 135) = (   0.1562549   0.0204997   1.6913958  )
       136        O      tau( 136) = (   0.3777647   0.9340275   1.6841911  )
       137        P      tau( 137) = (   0.7135711   0.9304873   1.6870697  )
       138        P      tau( 138) = (   0.9579050   0.6098693   1.3704654  )
       139        P      tau( 139) = (   0.7935730   0.0700637   1.3709798  )
       140        P      tau( 140) = (   0.5382788   0.3921678   1.6921168  )
       141        O      tau( 141) = (   0.6368445   0.8715343   1.5433244  )
       142        O      tau( 142) = (   0.8818270   0.6814858   1.5066133  )
       143        O      tau( 143) = (   0.8713193   0.1417772   1.5072868  )
       144        O      tau( 144) = (   0.6174579   0.3303663   1.5458240  )
       145        O      tau( 145) = (   0.6552232   0.8337369   1.8043110  )
       146        O      tau( 146) = (   0.8989657   0.6978510   1.2434901  )
       147        O      tau( 147) = (   0.8552504   0.1586671   1.2456065  )
       148        O      tau( 148) = (   0.5963858   0.2917729   1.8058571  )
       149        O      tau( 149) = (   0.5989840   0.5475310   1.6881864  )
       150        O      tau( 150) = (   0.8545284   0.9913153   1.3740611  )
       151        O      tau( 151) = (   0.8720431   0.3904281   1.6773436  )
       152        O      tau( 152) = (   0.6296650   0.0761030   1.3824892  )
       153        O      tau( 153) = (   0.6276372   0.6149600   1.3818254  )
       154        O      tau( 154) = (   0.9002664   0.4546242   1.3744661  )
       155        O      tau( 155) = (   0.6584351   0.0133671   1.6886222  )
       156        O      tau( 156) = (   0.8793773   0.9284013   1.6770673  )
       157        O      tau( 157) = (   0.3761800   0.6543040   1.8374172  )
       158        H      tau( 158) = (   0.2924595   0.7142463   1.8633046  )

     -------------------------------------------------
     Parameters for Dispersion (Grimme-D2) Correction:
     -------------------------------------------------
       atom      VdW radius       C_6     

        Ni         2.952        374.666
        Mn         2.952        374.666
        P          3.222        271.980
        O          2.536         24.284
        H          1.892          4.857

     number of k points=     1  Gaussian smearing, width (Ry)=  0.0100
                       cart. coord. in units 2pi/alat
        k(    1) = (   0.0000000   0.0000000   0.0000000), wk =   1.0000000

     Dense  grid:  1918138 G-vectors     FFT dimensions: ( 125, 135, 432)

     Smooth grid:   485265 G-vectors     FFT dimensions: (  80,  90, 288)

     Estimated max dynamical RAM per process >     320.12 MB

     Estimated total dynamical RAM >      20.01 GB
     Generating pointlists ...
     new r_m :   0.0798 (alat units)  1.4121 (a.u.) for type    1
     new r_m :   0.0869 (alat units)  1.5388 (a.u.) for type    2
     new r_m :   0.0650 (alat units)  1.1499 (a.u.) for type    3
     new r_m :   0.0438 (alat units)  0.7752 (a.u.) for type    4
     new r_m :   0.0438 (alat units)  0.7752 (a.u.) for type    5

     Initial potential from superposition of free atoms

     starting charge    1077.8900, renormalised to    1078.0000

     negative rho (up, down):  1.237E-03 4.581E-04
 
     Adding external electric field

     Computed dipole along edir(3) : 
        Dipole                1.6221 Ry au,          4.1229 Debye
        Dipole field          0.0010 Ry au, 
 
        Potential amp.       -0.1089 Ry
        Total length         54.2615 bohr
 
 
     Adding external electric field

     Computed dipole along edir(3) : 
        Dipole                1.6221 Ry au,          4.1229 Debye
        Dipole field          0.0010 Ry au, 
 
        Potential amp.       -0.1089 Ry
        Total length         54.2615 bohr
 
     Starting wfcs are  812 randomized atomic wfcs

     total cpu time spent up to now is       10.3 secs

     Self-consistent Calculation

     iteration #  1     ecut=    50.00 Ry     beta= 0.10
     Davidson diagonalization with overlap
     ethr =  1.00E-02,  avg # of iterations =  6.0

     negative rho (up, down):  3.547E-01 5.454E-06
 
     Adding external electric field

     Computed dipole along edir(3) : 
        Dipole               -3.1790 Ry au,         -8.0801 Debye
        Dipole field         -0.0020 Ry au, 
 
        Potential amp.        0.2134 Ry
        Total length         54.2615 bohr
 
 
     Adding external electric field

     Computed dipole along edir(3) : 
        Dipole               -3.1790 Ry au,         -8.0801 Debye
        Dipole field         -0.0020 Ry au, 
 
        Potential amp.        0.2134 Ry
        Total length         54.2615 bohr
 

     total cpu time spent up to now is       37.6 secs

     total energy              =   -7180.95650265 Ry
     estimated scf accuracy    <     753.61240133 Ry

     total magnetization       =   216.00 Bohr mag/cell
     absolute magnetization    =   297.28 Bohr mag/cell

     iteration #  2     ecut=    50.00 Ry     beta= 0.10
     Davidson diagonalization with overlap
     ethr =  1.00E-02,  avg # of iterations =  2.0

     negative rho (up, down):  3.236E-01 5.445E-06
 
     Adding external electric field

     Computed dipole along edir(3) : 
        Dipole               -2.3943 Ry au,         -6.0857 Debye
        Dipole field         -0.0015 Ry au, 
 
        Potential amp.        0.1607 Ry
        Total length         54.2615 bohr
 
 
     Adding external electric field

     Computed dipole along edir(3) : 
        Dipole               -2.3943 Ry au,         -6.0857 Debye
        Dipole field         -0.0015 Ry au, 
 
        Potential amp.        0.1607 Ry
        Total length         54.2615 bohr
 

     total cpu time spent up to now is       53.7 secs

     total energy              =   -7265.37248253 Ry
     estimated scf accuracy    <     150.41410449 Ry

     total magnetization       =   143.53 Bohr mag/cell
     absolute magnetization    =   196.00 Bohr mag/cell

     iteration #  3     ecut=    50.00 Ry     beta= 0.10
     Davidson diagonalization with overlap
     ethr =  1.00E-02,  avg # of iterations =  1.5

     negative rho (up, down):  2.782E-01 5.892E-06
 
     Adding external electric field

     Computed dipole along edir(3) : 
        Dipole               -1.9105 Ry au,         -4.8559 Debye
        Dipole field         -0.0012 Ry au, 
 
        Potential amp.        0.1282 Ry
        Total length         54.2615 bohr
 
 
     Adding external electric field

     Computed dipole along edir(3) : 
        Dipole               -1.9105 Ry au,         -4.8559 Debye
        Dipole field         -0.0012 Ry au, 
 
        Potential amp.        0.1282 Ry
        Total length         54.2615 bohr
 

     total cpu time spent up to now is       66.5 secs

     total energy              =   -7299.57259834 Ry
     estimated scf accuracy    <      98.08555103 Ry

     total magnetization       =   121.36 Bohr mag/cell
     absolute magnetization    =   176.11 Bohr mag/cell

     iteration #  4     ecut=    50.00 Ry     beta= 0.10
     Davidson diagonalization with overlap
     ethr =  9.10E-03,  avg # of iterations =  1.5

     negative rho (up, down):  2.064E-01 5.364E-07
 
     Adding external electric field

     Computed dipole along edir(3) : 
        Dipole               -1.9608 Ry au,         -4.9839 Debye
        Dipole field         -0.0012 Ry au, 
 
        Potential amp.        0.1316 Ry
        Total length         54.2615 bohr
 
 
     Adding external electric field

     Computed dipole along edir(3) : 
        Dipole               -1.9608 Ry au,         -4.9839 Debye
        Dipole field         -0.0012 Ry au, 
 
        Potential amp.        0.1316 Ry
        Total length         54.2615 bohr
 

     total cpu time spent up to now is       79.0 secs

     total energy              =   -7331.82497119 Ry
     estimated scf accuracy    <      75.55139978 Ry

     total magnetization       =   103.97 Bohr mag/cell
     absolute magnetization    =   160.60 Bohr mag/cell

     iteration #  5     ecut=    50.00 Ry     beta= 0.10
     Davidson diagonalization with overlap
     ethr =  7.01E-03,  avg # of iterations =  1.5

     negative rho (up, down):  3.633E-03 2.706E-08
 
     Adding external electric field

     Computed dipole along edir(3) : 
        Dipole               -1.3679 Ry au,         -3.4769 Debye
        Dipole field         -0.0008 Ry au, 
 
        Potential amp.        0.0918 Ry
        Total length         54.2615 bohr
 
 
     Adding external electric field

     Computed dipole along edir(3) : 
        Dipole               -1.3679 Ry au,         -3.4769 Debye
        Dipole field         -0.0008 Ry au, 
 
        Potential amp.        0.0918 Ry
        Total length         54.2615 bohr
 

     total cpu time spent up to now is       92.6 secs

     total energy              =   -7388.47269805 Ry
     estimated scf accuracy    <      57.90085289 Ry

     total magnetization       =    88.00 Bohr mag/cell
     absolute magnetization    =   143.95 Bohr mag/cell

     iteration #  6     ecut=    50.00 Ry     beta= 0.10
     Davidson diagonalization with overlap
     ethr =  5.37E-03,  avg # of iterations =  1.5

     negative rho (up, down):  2.590E-05 8.719E-05
 
     Adding external electric field

     Computed dipole along edir(3) : 
        Dipole               -1.0495 Ry au,         -2.6674 Debye
        Dipole field         -0.0006 Ry au, 
 
        Potential amp.        0.0704 Ry
        Total length         54.2615 bohr
 
 
     Adding external electric field

     Computed dipole along edir(3) : 
        Dipole               -1.0495 Ry au,         -2.6674 Debye
        Dipole field         -0.0006 Ry au, 
 
        Potential amp.        0.0704 Ry
        Total length         54.2615 bohr
 

     total cpu time spent up to now is      106.7 secs

     total energy              =   -7395.83005768 Ry
     estimated scf accuracy    <       8.12305757 Ry

     total magnetization       =    80.58 Bohr mag/cell
     absolute magnetization    =   111.91 Bohr mag/cell

     iteration #  7     ecut=    50.00 Ry     beta= 0.10
     Davidson diagonalization with overlap
     ethr =  7.54E-04,  avg # of iterations =  7.0

     negative rho (up, down):  2.755E-05 7.977E-05
 
     Adding external electric field

     Computed dipole along edir(3) : 
        Dipole               -1.0609 Ry au,         -2.6964 Debye
        Dipole field         -0.0007 Ry au, 
 
        Potential amp.        0.0712 Ry
        Total length         54.2615 bohr
 
 
     Adding external electric field

     Computed dipole along edir(3) : 
        Dipole               -1.0609 Ry au,         -2.6964 Debye
        Dipole field         -0.0007 Ry au, 
 
        Potential amp.        0.0712 Ry
        Total length         54.2615 bohr
 

     total cpu time spent up to now is      131.2 secs

     total energy              =   -7397.63337654 Ry
     estimated scf accuracy    <       9.66698558 Ry

     total magnetization       =    71.88 Bohr mag/cell
     absolute magnetization    =    89.06 Bohr mag/cell

     iteration #  8     ecut=    50.00 Ry     beta= 0.10
     Davidson diagonalization with overlap
     ethr =  7.54E-04,  avg # of iterations =  1.0

     negative rho (up, down):  1.880E-05 6.443E-05
 
     Adding external electric field

     Computed dipole along edir(3) : 
        Dipole               -0.9881 Ry au,         -2.5115 Debye
        Dipole field         -0.0006 Ry au, 
 
        Potential amp.        0.0663 Ry
        Total length         54.2615 bohr
 
 
     Adding external electric field

     Computed dipole along edir(3) : 
        Dipole               -0.9881 Ry au,         -2.5115 Debye
        Dipole field         -0.0006 Ry au, 
 
        Potential amp.        0.0663 Ry
        Total length         54.2615 bohr
 

     total cpu time spent up to now is      143.9 secs

     total energy              =   -7397.55617476 Ry
     estimated scf accuracy    <      10.76096793 Ry

     total magnetization       =    71.48 Bohr mag/cell
     absolute magnetization    =    88.48 Bohr mag/cell

     iteration #  9     ecut=    50.00 Ry     beta= 0.10
     Davidson diagonalization with overlap
     ethr =  7.54E-04,  avg # of iterations =  1.0

     negative rho (up, down):  1.637E-05 6.728E-05
 
     Adding external electric field

     Computed dipole along edir(3) : 
        Dipole               -0.8058 Ry au,         -2.0482 Debye
        Dipole field         -0.0005 Ry au, 
 
        Potential amp.        0.0541 Ry
        Total length         54.2615 bohr
 
 
     Adding external electric field

     Computed dipole along edir(3) : 
        Dipole               -0.8058 Ry au,         -2.0482 Debye
        Dipole field         -0.0005 Ry au, 
 
        Potential amp.        0.0541 Ry
        Total length         54.2615 bohr
 

     total cpu time spent up to now is      155.7 secs

     total energy              =   -7397.36811148 Ry
     estimated scf accuracy    <       8.11461588 Ry

     total magnetization       =    72.16 Bohr mag/cell
     absolute magnetization    =    88.08 Bohr mag/cell

     iteration # 10     ecut=    50.00 Ry     beta= 0.10
     Davidson diagonalization with overlap
     ethr =  7.53E-04,  avg # of iterations =  1.5

     negative rho (up, down):  1.921E-05 8.491E-05
 
     Adding external electric field

     Computed dipole along edir(3) : 
        Dipole               -0.9015 Ry au,         -2.2914 Debye
        Dipole field         -0.0006 Ry au, 
 
        Potential amp.        0.0605 Ry
        Total length         54.2615 bohr
 
 
     Adding external electric field

     Computed dipole along edir(3) : 
        Dipole               -0.9015 Ry au,         -2.2914 Debye
        Dipole field         -0.0006 Ry au, 
 
        Potential amp.        0.0605 Ry
        Total length         54.2615 bohr
 

     total cpu time spent up to now is      168.3 secs

     total energy              =   -7397.58874859 Ry
     estimated scf accuracy    <       3.46954415 Ry

     total magnetization       =    78.22 Bohr mag/cell
     absolute magnetization    =    90.43 Bohr mag/cell

     iteration # 11     ecut=    50.00 Ry     beta= 0.10
     Davidson diagonalization with overlap
     ethr =  3.22E-04,  avg # of iterations =  1.5

     negative rho (up, down):  1.527E-05 9.311E-05
 
     Adding external electric field

     Computed dipole along edir(3) : 
        Dipole               -0.8952 Ry au,         -2.2755 Debye
        Dipole field         -0.0006 Ry au, 
 
        Potential amp.        0.0601 Ry
        Total length         54.2615 bohr
 
 
     Adding external electric field

     Computed dipole along edir(3) : 
        Dipole               -0.8952 Ry au,         -2.2755 Debye
        Dipole field         -0.0006 Ry au, 
 
        Potential amp.        0.0601 Ry
        Total length         54.2615 bohr
 

     total cpu time spent up to now is      179.8 secs

     total energy              =   -7397.60644242 Ry
     estimated scf accuracy    <       2.84767765 Ry

     total magnetization       =    78.01 Bohr mag/cell
     absolute magnetization    =    89.85 Bohr mag/cell

     iteration # 12     ecut=    50.00 Ry     beta= 0.10
     Davidson diagonalization with overlap
     ethr =  2.64E-04,  avg # of iterations =  1.5

     negative rho (up, down):  5.547E-06 4.906E-05
 
     Adding external electric field

     Computed dipole along edir(3) : 
        Dipole               -0.9184 Ry au,         -2.3344 Debye
        Dipole field         -0.0006 Ry au, 
 
        Potential amp.        0.0616 Ry
        Total length         54.2615 bohr
 
 
     Adding external electric field

     Computed dipole along edir(3) : 
        Dipole               -0.9184 Ry au,         -2.3344 Debye
        Dipole field         -0.0006 Ry au, 
 
        Potential amp.        0.0616 Ry
        Total length         54.2615 bohr
 

     total cpu time spent up to now is      192.2 secs

     total energy              =   -7397.69328646 Ry
     estimated scf accuracy    <       2.32626160 Ry

     total magnetization       =    78.46 Bohr mag/cell
     absolute magnetization    =    89.52 Bohr mag/cell

     iteration # 13     ecut=    50.00 Ry     beta= 0.10
     Davidson diagonalization with overlap
     ethr =  2.16E-04,  avg # of iterations =  1.5

     negative rho (up, down):  1.447E-06 1.157E-05
 
     Adding external electric field

     Computed dipole along edir(3) : 
        Dipole               -1.0731 Ry au,         -2.7274 Debye
        Dipole field         -0.0007 Ry au, 
 
        Potential amp.        0.0720 Ry
        Total length         54.2615 bohr
 
 
     Adding external electric field

     Computed dipole along edir(3) : 
        Dipole               -1.0731 Ry au,         -2.7274 Debye
        Dipole field         -0.0007 Ry au, 
 
        Potential amp.        0.0720 Ry
        Total length         54.2615 bohr
 

     total cpu time spent up to now is      204.3 secs

     total energy              =   -7397.86031934 Ry
     estimated scf accuracy    <       0.94679570 Ry

     total magnetization       =    79.89 Bohr mag/cell
     absolute magnetization    =    89.31 Bohr mag/cell

     iteration # 14     ecut=    50.00 Ry     beta= 0.10
     Davidson diagonalization with overlap
     c_bands:  1 eigenvalues not converged
     ethr =  8.78E-05,  avg # of iterations = 11.0

     negative rho (up, down):  1.316E-06 1.364E-05
 
     Adding external electric field

     Computed dipole along edir(3) : 
        Dipole               -1.0868 Ry au,         -2.7624 Debye
        Dipole field         -0.0007 Ry au, 
 
        Potential amp.        0.0729 Ry
        Total length         54.2615 bohr
 
 
     Adding external electric field

     Computed dipole along edir(3) : 
        Dipole               -1.0868 Ry au,         -2.7624 Debye
        Dipole field         -0.0007 Ry au, 
 
        Potential amp.        0.0729 Ry
        Total length         54.2615 bohr
 

     total cpu time spent up to now is      225.3 secs

     total energy              =   -7397.93027371 Ry
     estimated scf accuracy    <       0.52058231 Ry

     total magnetization       =    79.38 Bohr mag/cell
     absolute magnetization    =    85.60 Bohr mag/cell

     iteration # 15     ecut=    50.00 Ry     beta= 0.10
     Davidson diagonalization with overlap
     ethr =  4.83E-05,  avg # of iterations =  1.0

     negative rho (up, down):  1.078E-06 1.009E-05
 
     Adding external electric field

     Computed dipole along edir(3) : 
        Dipole               -0.9741 Ry au,         -2.4759 Debye
        Dipole field         -0.0006 Ry au, 
 
        Potential amp.        0.0654 Ry
        Total length         54.2615 bohr
 
 
     Adding external electric field

     Computed dipole along edir(3) : 
        Dipole               -0.9741 Ry au,         -2.4759 Debye
        Dipole field         -0.0006 Ry au, 
 
        Potential amp.        0.0654 Ry
        Total length         54.2615 bohr
 

     total cpu time spent up to now is      237.1 secs

     total energy              =   -7397.95865501 Ry
     estimated scf accuracy    <       0.92777705 Ry

     total magnetization       =    78.35 Bohr mag/cell
     absolute magnetization    =    84.04 Bohr mag/cell

     iteration # 16     ecut=    50.00 Ry     beta= 0.10
     Davidson diagonalization with overlap
     ethr =  4.83E-05,  avg # of iterations =  2.0

     negative rho (up, down):  1.488E-06 9.813E-06
 
     Adding external electric field

     Computed dipole along edir(3) : 
        Dipole               -0.9742 Ry au,         -2.4763 Debye
        Dipole field         -0.0006 Ry au, 
 
        Potential amp.        0.0654 Ry
        Total length         54.2615 bohr
 
 
     Adding external electric field

     Computed dipole along edir(3) : 
        Dipole               -0.9742 Ry au,         -2.4763 Debye
        Dipole field         -0.0006 Ry au, 
 
        Potential amp.        0.0654 Ry
        Total length         54.2615 bohr
 

     total cpu time spent up to now is      250.6 secs

     total energy              =   -7398.03596099 Ry
     estimated scf accuracy    <       0.28631603 Ry

     total magnetization       =    81.58 Bohr mag/cell
     absolute magnetization    =    84.92 Bohr mag/cell

     iteration # 17     ecut=    50.00 Ry     beta= 0.10
     Davidson diagonalization with overlap
     ethr =  2.66E-05,  avg # of iterations =  1.5

     negative rho (up, down):  4.134E-07 1.689E-06
 
     Adding external electric field

     Computed dipole along edir(3) : 
        Dipole               -0.8939 Ry au,         -2.2722 Debye
        Dipole field         -0.0006 Ry au, 
 
        Potential amp.        0.0600 Ry
        Total length         54.2615 bohr
 
 
     Adding external electric field

     Computed dipole along edir(3) : 
        Dipole               -0.8939 Ry au,         -2.2722 Debye
        Dipole field         -0.0006 Ry au, 
 
        Potential amp.        0.0600 Ry
        Total length         54.2615 bohr
 

     total cpu time spent up to now is      262.5 secs

     total energy              =   -7398.03929368 Ry
     estimated scf accuracy    <       0.14397095 Ry

     total magnetization       =    81.30 Bohr mag/cell
     absolute magnetization    =    83.41 Bohr mag/cell

     iteration # 18     ecut=    50.00 Ry     beta= 0.10
     Davidson diagonalization with overlap
     ethr =  1.34E-05,  avg # of iterations = 12.0

     negative rho (up, down):  8.171E-10 1.572E-08
 
     Adding external electric field

     Computed dipole along edir(3) : 
        Dipole               -0.7033 Ry au,         -1.7876 Debye
        Dipole field         -0.0004 Ry au, 
 
        Potential amp.        0.0472 Ry
        Total length         54.2615 bohr
 
 
     Adding external electric field

     Computed dipole along edir(3) : 
        Dipole               -0.7033 Ry au,         -1.7876 Debye
        Dipole field         -0.0004 Ry au, 
 
        Potential amp.        0.0472 Ry
        Total length         54.2615 bohr
 

     total cpu time spent up to now is      287.0 secs

     total energy              =   -7398.04280231 Ry
     estimated scf accuracy    <       0.13229661 Ry

     total magnetization       =    80.85 Bohr mag/cell
     absolute magnetization    =    82.76 Bohr mag/cell

     iteration # 19     ecut=    50.00 Ry     beta= 0.10
     Davidson diagonalization with overlap
     ethr =  1.23E-05,  avg # of iterations =  2.0

     negative rho (up, down):  1.200E-08 2.061E-08
 
     Adding external electric field

     Computed dipole along edir(3) : 
        Dipole               -0.6671 Ry au,         -1.6956 Debye
        Dipole field         -0.0004 Ry au, 
 
        Potential amp.        0.0448 Ry
        Total length         54.2615 bohr
 
 
     Adding external electric field

     Computed dipole along edir(3) : 
        Dipole               -0.6671 Ry au,         -1.6956 Debye
        Dipole field         -0.0004 Ry au, 
 
        Potential amp.        0.0448 Ry
        Total length         54.2615 bohr
 

     total cpu time spent up to now is      300.2 secs

     total energy              =   -7398.04769914 Ry
     estimated scf accuracy    <       0.52644388 Ry

     total magnetization       =    80.37 Bohr mag/cell
     absolute magnetization    =    82.07 Bohr mag/cell

     iteration # 20     ecut=    50.00 Ry     beta= 0.10
     Davidson diagonalization with overlap
     ethr =  1.23E-05,  avg # of iterations =  2.0

     negative rho (up, down):  1.518E-08 3.190E-08
 
     Adding external electric field

     Computed dipole along edir(3) : 
        Dipole               -0.6751 Ry au,         -1.7160 Debye
        Dipole field         -0.0004 Ry au, 
 
        Potential amp.        0.0453 Ry
        Total length         54.2615 bohr
 
 
     Adding external electric field

     Computed dipole along edir(3) : 
        Dipole               -0.6751 Ry au,         -1.7160 Debye
        Dipole field         -0.0004 Ry au, 
 
        Potential amp.        0.0453 Ry
        Total length         54.2615 bohr
 

     total cpu time spent up to now is      312.7 secs

     total energy              =   -7398.04735962 Ry
     estimated scf accuracy    <       1.18324695 Ry

     total magnetization       =    79.30 Bohr mag/cell
     absolute magnetization    =    81.06 Bohr mag/cell

     iteration # 21     ecut=    50.00 Ry     beta= 0.10
     Davidson diagonalization with overlap
     ethr =  1.23E-05,  avg # of iterations =  1.5

     negative rho (up, down):  1.260E-07 2.353E-07
 
     Adding external electric field

     Computed dipole along edir(3) : 
        Dipole               -0.8529 Ry au,         -2.1680 Debye
        Dipole field         -0.0005 Ry au, 
 
        Potential amp.        0.0572 Ry
        Total length         54.2615 bohr
 
 
     Adding external electric field

     Computed dipole along edir(3) : 
        Dipole               -0.8529 Ry au,         -2.1680 Debye
        Dipole field         -0.0005 Ry au, 
 
        Potential amp.        0.0572 Ry
        Total length         54.2615 bohr
 

     total cpu time spent up to now is      324.9 secs

     total energy              =   -7398.03260302 Ry
     estimated scf accuracy    <       1.07519710 Ry

     total magnetization       =    79.30 Bohr mag/cell
     absolute magnetization    =    80.98 Bohr mag/cell

     iteration # 22     ecut=    50.00 Ry     beta= 0.10
     Davidson diagonalization with overlap
     ethr =  1.23E-05,  avg # of iterations =  2.0

     negative rho (up, down):  2.636E-07 2.030E-07
 
     Adding external electric field

     Computed dipole along edir(3) : 
        Dipole               -0.8423 Ry au,         -2.1409 Debye
        Dipole field         -0.0005 Ry au, 
 
        Potential amp.        0.0565 Ry
        Total length         54.2615 bohr
 
 
     Adding external electric field

     Computed dipole along edir(3) : 
        Dipole               -0.8423 Ry au,         -2.1409 Debye
        Dipole field         -0.0005 Ry au, 
 
        Potential amp.        0.0565 Ry
        Total length         54.2615 bohr
 

     total cpu time spent up to now is      337.9 secs

     total energy              =   -7398.04039084 Ry
     estimated scf accuracy    <       0.13294115 Ry

     total magnetization       =    80.88 Bohr mag/cell
     absolute magnetization    =    82.58 Bohr mag/cell

     iteration # 23     ecut=    50.00 Ry     beta= 0.10
     Davidson diagonalization with overlap
     ethr =  1.23E-05,  avg # of iterations =  1.0

     negative rho (up, down):  9.105E-08 6.566E-08
 
     Adding external electric field

     Computed dipole along edir(3) : 
        Dipole               -0.8183 Ry au,         -2.0798 Debye
        Dipole field         -0.0005 Ry au, 
 
        Potential amp.        0.0549 Ry
        Total length         54.2615 bohr
 
 
     Adding external electric field

     Computed dipole along edir(3) : 
        Dipole               -0.8183 Ry au,         -2.0798 Debye
        Dipole field         -0.0005 Ry au, 
 
        Potential amp.        0.0549 Ry
        Total length         54.2615 bohr
 

     total cpu time spent up to now is      349.6 secs

     total energy              =   -7398.04384802 Ry
     estimated scf accuracy    <       0.12615824 Ry

     total magnetization       =    80.05 Bohr mag/cell
     absolute magnetization    =    81.75 Bohr mag/cell

     iteration # 24     ecut=    50.00 Ry     beta= 0.10
     Davidson diagonalization with overlap
     ethr =  1.17E-05,  avg # of iterations =  1.5

     negative rho (up, down):  8.171E-07 5.887E-07
 
     Adding external electric field

     Computed dipole along edir(3) : 
        Dipole               -0.7724 Ry au,         -1.9632 Debye
        Dipole field         -0.0005 Ry au, 
 
        Potential amp.        0.0518 Ry
        Total length         54.2615 bohr
 
 
     Adding external electric field

     Computed dipole along edir(3) : 
        Dipole               -0.7724 Ry au,         -1.9632 Debye
        Dipole field         -0.0005 Ry au, 
 
        Potential amp.        0.0518 Ry
        Total length         54.2615 bohr
 

     total cpu time spent up to now is      361.3 secs

     total energy              =   -7398.03723387 Ry
     estimated scf accuracy    <       0.25994883 Ry

     total magnetization       =    80.13 Bohr mag/cell
     absolute magnetization    =    81.89 Bohr mag/cell

     iteration # 25     ecut=    50.00 Ry     beta= 0.10
     Davidson diagonalization with overlap
     ethr =  1.17E-05,  avg # of iterations =  1.0

     negative rho (up, down):  1.662E-06 9.774E-07
 
     Adding external electric field

     Computed dipole along edir(3) : 
        Dipole               -0.7757 Ry au,         -1.9716 Debye
        Dipole field         -0.0005 Ry au, 
 
        Potential amp.        0.0521 Ry
        Total length         54.2615 bohr
 
 
     Adding external electric field

     Computed dipole along edir(3) : 
        Dipole               -0.7757 Ry au,         -1.9716 Debye
        Dipole field         -0.0005 Ry au, 
 
        Potential amp.        0.0521 Ry
        Total length         54.2615 bohr
 

     total cpu time spent up to now is      373.3 secs

     total energy              =   -7398.03992657 Ry
     estimated scf accuracy    <       0.08856507 Ry

     total magnetization       =    80.33 Bohr mag/cell
     absolute magnetization    =    81.86 Bohr mag/cell

     iteration # 26     ecut=    50.00 Ry     beta= 0.10
     Davidson diagonalization with overlap
     ethr =  8.22E-06,  avg # of iterations =  1.0

     negative rho (up, down):  7.720E-06 3.044E-06
 
     Adding external electric field

     Computed dipole along edir(3) : 
        Dipole               -0.7797 Ry au,         -1.9819 Debye
        Dipole field         -0.0005 Ry au, 
 
        Potential amp.        0.0523 Ry
        Total length         54.2615 bohr
 
 
     Adding external electric field

     Computed dipole along edir(3) : 
        Dipole               -0.7797 Ry au,         -1.9819 Debye
        Dipole field         -0.0005 Ry au, 
 
        Potential amp.        0.0523 Ry
        Total length         54.2615 bohr
 

     total cpu time spent up to now is      385.1 secs

     total energy              =   -7398.03936124 Ry
     estimated scf accuracy    <       0.06649513 Ry

     total magnetization       =    80.40 Bohr mag/cell
     absolute magnetization    =    81.86 Bohr mag/cell

     iteration # 27     ecut=    50.00 Ry     beta= 0.10
     Davidson diagonalization with overlap
     ethr =  6.17E-06,  avg # of iterations =  1.0

     negative rho (up, down):  9.498E-06 2.295E-06
 
     Adding external electric field

     Computed dipole along edir(3) : 
        Dipole               -0.7438 Ry au,         -1.8907 Debye
        Dipole field         -0.0005 Ry au, 
 
        Potential amp.        0.0499 Ry
        Total length         54.2615 bohr
 
 
     Adding external electric field

     Computed dipole along edir(3) : 
        Dipole               -0.7438 Ry au,         -1.8907 Debye
        Dipole field         -0.0005 Ry au, 
 
        Potential amp.        0.0499 Ry
        Total length         54.2615 bohr
 

     total cpu time spent up to now is      396.6 secs

     total energy              =   -7398.03965138 Ry
     estimated scf accuracy    <       0.03762166 Ry

     total magnetization       =    80.63 Bohr mag/cell
     absolute magnetization    =    82.05 Bohr mag/cell

     iteration # 28     ecut=    50.00 Ry     beta= 0.10
     Davidson diagonalization with overlap
     ethr =  3.49E-06,  avg # of iterations =  2.0

     negative rho (up, down):  1.253E-05 2.635E-06
 
     Adding external electric field

     Computed dipole along edir(3) : 
        Dipole               -0.7386 Ry au,         -1.8774 Debye
        Dipole field         -0.0005 Ry au, 
 
        Potential amp.        0.0496 Ry
        Total length         54.2615 bohr
 
 
     Adding external electric field

     Computed dipole along edir(3) : 
        Dipole               -0.7386 Ry au,         -1.8774 Debye
        Dipole field         -0.0005 Ry au, 
 
        Potential amp.        0.0496 Ry
        Total length         54.2615 bohr
 

     total cpu time spent up to now is      409.7 secs

     total energy              =   -7398.03975219 Ry
     estimated scf accuracy    <       0.06679275 Ry

     total magnetization       =    80.86 Bohr mag/cell
     absolute magnetization    =    82.28 Bohr mag/cell

     iteration # 29     ecut=    50.00 Ry     beta= 0.10
     Davidson diagonalization with overlap
     ethr =  3.49E-06,  avg # of iterations =  1.5

     negative rho (up, down):  1.155E-05 9.939E-06
 
     Adding external electric field

     Computed dipole along edir(3) : 
        Dipole               -0.6943 Ry au,         -1.7646 Debye
        Dipole field         -0.0004 Ry au, 
 
        Potential amp.        0.0466 Ry
        Total length         54.2615 bohr
 
 
     Adding external electric field

     Computed dipole along edir(3) : 
        Dipole               -0.6943 Ry au,         -1.7646 Debye
        Dipole field         -0.0004 Ry au, 
 
        Potential amp.        0.0466 Ry
        Total length         54.2615 bohr
 

     total cpu time spent up to now is      422.5 secs

     total energy              =   -7398.04076013 Ry
     estimated scf accuracy    <       0.05954179 Ry

     total magnetization       =    80.84 Bohr mag/cell
     absolute magnetization    =    82.27 Bohr mag/cell

     iteration # 30     ecut=    50.00 Ry     beta= 0.10
     Davidson diagonalization with overlap
     c_bands:  1 eigenvalues not converged
     ethr =  3.49E-06,  avg # of iterations = 11.0

     negative rho (up, down):  1.681E-05 3.672E-06
 
     Adding external electric field

     Computed dipole along edir(3) : 
        Dipole               -0.7556 Ry au,         -1.9204 Debye
        Dipole field         -0.0005 Ry au, 
 
        Potential amp.        0.0507 Ry
        Total length         54.2615 bohr
 
 
     Adding external electric field

     Computed dipole along edir(3) : 
        Dipole               -0.7556 Ry au,         -1.9204 Debye
        Dipole field         -0.0005 Ry au, 
 
        Potential amp.        0.0507 Ry
        Total length         54.2615 bohr
 

     total cpu time spent up to now is      440.0 secs

     total energy              =   -7398.03847841 Ry
     estimated scf accuracy    <       0.04838066 Ry

     total magnetization       =    80.68 Bohr mag/cell
     absolute magnetization    =    82.15 Bohr mag/cell

     iteration # 31     ecut=    50.00 Ry     beta= 0.10
     Davidson diagonalization with overlap
     ethr =  3.49E-06,  avg # of iterations =  2.0

     negative rho (up, down):  2.274E-05 1.074E-05
 
     Adding external electric field

     Computed dipole along edir(3) : 
        Dipole               -0.7376 Ry au,         -1.8749 Debye
        Dipole field         -0.0005 Ry au, 
 
        Potential amp.        0.0495 Ry
        Total length         54.2615 bohr
 
 
     Adding external electric field

     Computed dipole along edir(3) : 
        Dipole               -0.7376 Ry au,         -1.8749 Debye
        Dipole field         -0.0005 Ry au, 
 
        Potential amp.        0.0495 Ry
        Total length         54.2615 bohr
 

     total cpu time spent up to now is      452.3 secs

     total energy              =   -7398.04041991 Ry
     estimated scf accuracy    <       0.03045388 Ry

     total magnetization       =    80.55 Bohr mag/cell
     absolute magnetization    =    82.10 Bohr mag/cell

     iteration # 32     ecut=    50.00 Ry     beta= 0.10
     Davidson diagonalization with overlap
     ethr =  2.83E-06,  avg # of iterations =  1.5

     negative rho (up, down):  2.737E-05 1.505E-05
 
     Adding external electric field

     Computed dipole along edir(3) : 
        Dipole               -0.7340 Ry au,         -1.8657 Debye
        Dipole field         -0.0005 Ry au, 
 
        Potential amp.        0.0493 Ry
        Total length         54.2615 bohr
 
 
     Adding external electric field

     Computed dipole along edir(3) : 
        Dipole               -0.7340 Ry au,         -1.8657 Debye
        Dipole field         -0.0005 Ry au, 
 
        Potential amp.        0.0493 Ry
        Total length         54.2615 bohr
 

     total cpu time spent up to now is      464.6 secs

     total energy              =   -7398.04071710 Ry
     estimated scf accuracy    <       0.03482044 Ry

     total magnetization       =    80.48 Bohr mag/cell
     absolute magnetization    =    82.03 Bohr mag/cell

     iteration # 33     ecut=    50.00 Ry     beta= 0.10
     Davidson diagonalization with overlap
     ethr =  2.83E-06,  avg # of iterations =  1.5

     negative rho (up, down):  4.725E-05 2.509E-05
 
     Adding external electric field

     Computed dipole along edir(3) : 
        Dipole               -0.7391 Ry au,         -1.8785 Debye
        Dipole field         -0.0005 Ry au, 
 
        Potential amp.        0.0496 Ry
        Total length         54.2615 bohr
 
 
     Adding external electric field

     Computed dipole along edir(3) : 
        Dipole               -0.7391 Ry au,         -1.8785 Debye
        Dipole field         -0.0005 Ry au, 
 
        Potential amp.        0.0496 Ry
        Total length         54.2615 bohr
 

     total cpu time spent up to now is      476.6 secs

     total energy              =   -7398.03929269 Ry
     estimated scf accuracy    <       0.03664185 Ry

     total magnetization       =    80.46 Bohr mag/cell
     absolute magnetization    =    82.02 Bohr mag/cell

     iteration # 34     ecut=    50.00 Ry     beta= 0.10
     Davidson diagonalization with overlap
     ethr =  2.83E-06,  avg # of iterations =  2.0

     negative rho (up, down):  9.265E-05 5.812E-05
 
     Adding external electric field

     Computed dipole along edir(3) : 
        Dipole               -0.6807 Ry au,         -1.7302 Debye
        Dipole field         -0.0004 Ry au, 
 
        Potential amp.        0.0457 Ry
        Total length         54.2615 bohr
 
 
     Adding external electric field

     Computed dipole along edir(3) : 
        Dipole               -0.6807 Ry au,         -1.7302 Debye
        Dipole field         -0.0004 Ry au, 
 
        Potential amp.        0.0457 Ry
        Total length         54.2615 bohr
 

     total cpu time spent up to now is      490.1 secs

     total energy              =   -7398.03890939 Ry
     estimated scf accuracy    <       0.02292501 Ry

     total magnetization       =    80.34 Bohr mag/cell
     absolute magnetization    =    81.94 Bohr mag/cell

     iteration # 35     ecut=    50.00 Ry     beta= 0.10
     Davidson diagonalization with overlap
     ethr =  2.13E-06,  avg # of iterations =  2.0

     negative rho (up, down):  9.629E-05 6.033E-05
 
     Adding external electric field

     Computed dipole along edir(3) : 
        Dipole               -0.6764 Ry au,         -1.7192 Debye
        Dipole field         -0.0004 Ry au, 
 
        Potential amp.        0.0454 Ry
        Total length         54.2615 bohr
 
 
     Adding external electric field

     Computed dipole along edir(3) : 
        Dipole               -0.6764 Ry au,         -1.7192 Debye
        Dipole field         -0.0004 Ry au, 
 
        Potential amp.        0.0454 Ry
        Total length         54.2615 bohr
 

     total cpu time spent up to now is      503.2 secs

     total energy              =   -7398.03968202 Ry
     estimated scf accuracy    <       0.04575684 Ry

     total magnetization       =    80.64 Bohr mag/cell
     absolute magnetization    =    82.16 Bohr mag/cell

     iteration # 36     ecut=    50.00 Ry     beta= 0.10
     Davidson diagonalization with overlap
     ethr =  2.13E-06,  avg # of iterations =  1.0

     negative rho (up, down):  4.605E-05 3.055E-05
 
     Adding external electric field

     Computed dipole along edir(3) : 
        Dipole               -0.6892 Ry au,         -1.7518 Debye
        Dipole field         -0.0004 Ry au, 
 
        Potential amp.        0.0463 Ry
        Total length         54.2615 bohr
 
 
     Adding external electric field

     Computed dipole along edir(3) : 
        Dipole               -0.6892 Ry au,         -1.7518 Debye
        Dipole field         -0.0004 Ry au, 
 
        Potential amp.        0.0463 Ry
        Total length         54.2615 bohr
 

     total cpu time spent up to now is      515.0 secs

     total energy              =   -7398.03933215 Ry
     estimated scf accuracy    <       0.04813967 Ry

     total magnetization       =    80.66 Bohr mag/cell
     absolute magnetization    =    82.17 Bohr mag/cell

     iteration # 37     ecut=    50.00 Ry     beta= 0.10
     Davidson diagonalization with overlap
     ethr =  2.13E-06,  avg # of iterations =  2.0

     negative rho (up, down):  9.732E-05 6.752E-05
 
     Adding external electric field

     Computed dipole along edir(3) : 
        Dipole               -0.7082 Ry au,         -1.8000 Debye
        Dipole field         -0.0004 Ry au, 
 
        Potential amp.        0.0475 Ry
        Total length         54.2615 bohr
 
 
     Adding external electric field

     Computed dipole along edir(3) : 
        Dipole               -0.7082 Ry au,         -1.8000 Debye
        Dipole field         -0.0004 Ry au, 
 
        Potential amp.        0.0475 Ry
        Total length         54.2615 bohr
 

     total cpu time spent up to now is      529.2 secs

     total energy              =   -7398.03995450 Ry
     estimated scf accuracy    <       0.03239722 Ry

     total magnetization       =    80.53 Bohr mag/cell
     absolute magnetization    =    81.97 Bohr mag/cell

     iteration # 38     ecut=    50.00 Ry     beta= 0.10
     Davidson diagonalization with overlap
     ethr =  2.13E-06,  avg # of iterations =  1.0

     negative rho (up, down):  2.759E-04 1.783E-04
 
     Adding external electric field

     Computed dipole along edir(3) : 
        Dipole               -0.6010 Ry au,         -1.5275 Debye
        Dipole field         -0.0004 Ry au, 
 
        Potential amp.        0.0403 Ry
        Total length         54.2615 bohr
 
 
     Adding external electric field

     Computed dipole along edir(3) : 
        Dipole               -0.6010 Ry au,         -1.5275 Debye
        Dipole field         -0.0004 Ry au, 
 
        Potential amp.        0.0403 Ry
        Total length         54.2615 bohr
 

     total cpu time spent up to now is      542.5 secs

     total energy              =   -7398.03841494 Ry
     estimated scf accuracy    <       0.03894158 Ry

     total magnetization       =    80.66 Bohr mag/cell
     absolute magnetization    =    82.18 Bohr mag/cell

     iteration # 39     ecut=    50.00 Ry     beta= 0.10
     Davidson diagonalization with overlap
     ethr =  2.13E-06,  avg # of iterations =  2.0

     negative rho (up, down):  4.515E-05 3.396E-05
 
     Adding external electric field

     Computed dipole along edir(3) : 
        Dipole               -0.6319 Ry au,         -1.6062 Debye
        Dipole field         -0.0004 Ry au, 
 
        Potential amp.        0.0424 Ry
        Total length         54.2615 bohr
 
 
     Adding external electric field

     Computed dipole along edir(3) : 
        Dipole               -0.6319 Ry au,         -1.6062 Debye
        Dipole field         -0.0004 Ry au, 
 
        Potential amp.        0.0424 Ry
        Total length         54.2615 bohr
 

     total cpu time spent up to now is      554.2 secs

     total energy              =   -7398.03999013 Ry
     estimated scf accuracy    <       0.03751679 Ry

     total magnetization       =    80.58 Bohr mag/cell
     absolute magnetization    =    82.16 Bohr mag/cell

     iteration # 40     ecut=    50.00 Ry     beta= 0.10
     Davidson diagonalization with overlap
     ethr =  2.13E-06,  avg # of iterations =  1.0

     negative rho (up, down):  4.842E-05 2.990E-05
 
     Adding external electric field

     Computed dipole along edir(3) : 
        Dipole               -0.6854 Ry au,         -1.7422 Debye
        Dipole field         -0.0004 Ry au, 
 
        Potential amp.        0.0460 Ry
        Total length         54.2615 bohr
 
 
     Adding external electric field

     Computed dipole along edir(3) : 
        Dipole               -0.6854 Ry au,         -1.7422 Debye
        Dipole field         -0.0004 Ry au, 
 
        Potential amp.        0.0460 Ry
        Total length         54.2615 bohr
 

     total cpu time spent up to now is      565.7 secs

     total energy              =   -7398.03838180 Ry
     estimated scf accuracy    <       0.05993755 Ry

     total magnetization       =    80.77 Bohr mag/cell
     absolute magnetization    =    82.31 Bohr mag/cell

     iteration # 41     ecut=    50.00 Ry     beta= 0.10
     Davidson diagonalization with overlap
     ethr =  2.13E-06,  avg # of iterations =  2.0

     negative rho (up, down):  1.265E-04 4.799E-05
 
     Adding external electric field

     Computed dipole along edir(3) : 
        Dipole               -0.6407 Ry au,         -1.6284 Debye
        Dipole field         -0.0004 Ry au, 
 
        Potential amp.        0.0430 Ry
        Total length         54.2615 bohr
 
 
     Adding external electric field

     Computed dipole along edir(3) : 
        Dipole               -0.6407 Ry au,         -1.6284 Debye
        Dipole field         -0.0004 Ry au, 
 
        Potential amp.        0.0430 Ry
        Total length         54.2615 bohr
 

     total cpu time spent up to now is      579.3 secs

     total energy              =   -7398.03685169 Ry
     estimated scf accuracy    <       0.03830157 Ry

     total magnetization       =    80.43 Bohr mag/cell
     absolute magnetization    =    82.07 Bohr mag/cell

     iteration # 42     ecut=    50.00 Ry     beta= 0.10
     Davidson diagonalization with overlap
     ethr =  2.13E-06,  avg # of iterations =  1.0

     negative rho (up, down):  1.820E-04 5.400E-05
 
     Adding external electric field

     Computed dipole along edir(3) : 
        Dipole               -0.6549 Ry au,         -1.6645 Debye
        Dipole field         -0.0004 Ry au, 
 
        Potential amp.        0.0440 Ry
        Total length         54.2615 bohr
 
 
     Adding external electric field

     Computed dipole along edir(3) : 
        Dipole               -0.6549 Ry au,         -1.6645 Debye
        Dipole field         -0.0004 Ry au, 
 
        Potential amp.        0.0440 Ry
        Total length         54.2615 bohr
 

     total cpu time spent up to now is      590.6 secs

     total energy              =   -7398.03669422 Ry
     estimated scf accuracy    <       0.05895015 Ry

     total magnetization       =    80.49 Bohr mag/cell
     absolute magnetization    =    82.00 Bohr mag/cell

     iteration # 43     ecut=    50.00 Ry     beta= 0.10
     Davidson diagonalization with overlap
     ethr =  2.13E-06,  avg # of iterations =  1.0

     negative rho (up, down):  8.631E-04 5.000E-04
 
     Adding external electric field

     Computed dipole along edir(3) : 
        Dipole               -0.6705 Ry au,         -1.7043 Debye
        Dipole field         -0.0004 Ry au, 
 
        Potential amp.        0.0450 Ry
        Total length         54.2615 bohr
 
 
     Adding external electric field

     Computed dipole along edir(3) : 
        Dipole               -0.6705 Ry au,         -1.7043 Debye
        Dipole field         -0.0004 Ry au, 
 
        Potential amp.        0.0450 Ry
        Total length         54.2615 bohr
 

     total cpu time spent up to now is      602.2 secs

     total energy              =   -7398.03724901 Ry
     estimated scf accuracy    <       0.04263986 Ry

     total magnetization       =    80.53 Bohr mag/cell
     absolute magnetization    =    82.02 Bohr mag/cell

     iteration # 44     ecut=    50.00 Ry     beta= 0.10
     Davidson diagonalization with overlap
     ethr =  2.13E-06,  avg # of iterations =  2.0

     negative rho (up, down):  9.984E-04 5.519E-04
 
     Adding external electric field

     Computed dipole along edir(3) : 
        Dipole               -0.6722 Ry au,         -1.7086 Debye
        Dipole field         -0.0004 Ry au, 
 
        Potential amp.        0.0451 Ry
        Total length         54.2615 bohr
 
 
     Adding external electric field

     Computed dipole along edir(3) : 
        Dipole               -0.6722 Ry au,         -1.7086 Debye
        Dipole field         -0.0004 Ry au, 
 
        Potential amp.        0.0451 Ry
        Total length         54.2615 bohr
 

     total cpu time spent up to now is      615.2 secs

     total energy              =   -7398.03691887 Ry
     estimated scf accuracy    <       0.03171923 Ry

     total magnetization       =    80.38 Bohr mag/cell
     absolute magnetization    =    81.85 Bohr mag/cell

     iteration # 45     ecut=    50.00 Ry     beta= 0.10
     Davidson diagonalization with overlap
     ethr =  2.13E-06,  avg # of iterations =  1.0

     negative rho (up, down):  1.027E-03 7.397E-04
 
     Adding external electric field

     Computed dipole along edir(3) : 
        Dipole               -0.6714 Ry au,         -1.7066 Debye
        Dipole field         -0.0004 Ry au, 
 
        Potential amp.        0.0451 Ry
        Total length         54.2615 bohr
 
 
     Adding external electric field

     Computed dipole along edir(3) : 
        Dipole               -0.6714 Ry au,         -1.7066 Debye
        Dipole field         -0.0004 Ry au, 
 
        Potential amp.        0.0451 Ry
        Total length         54.2615 bohr
 

     total cpu time spent up to now is      626.4 secs

     total energy              =   -7398.03823155 Ry
     estimated scf accuracy    <       0.02898130 Ry

     total magnetization       =    80.49 Bohr mag/cell
     absolute magnetization    =    81.95 Bohr mag/cell

     iteration # 46     ecut=    50.00 Ry     beta= 0.10
     Davidson diagonalization with overlap
     ethr =  2.13E-06,  avg # of iterations =  1.0

     negative rho (up, down):  3.649E-04 2.109E-04
 
     Adding external electric field

     Computed dipole along edir(3) : 
        Dipole               -0.6812 Ry au,         -1.7314 Debye
        Dipole field         -0.0004 Ry au, 
 
        Potential amp.        0.0457 Ry
        Total length         54.2615 bohr
 
 
     Adding external electric field

     Computed dipole along edir(3) : 
        Dipole               -0.6812 Ry au,         -1.7314 Debye
        Dipole field         -0.0004 Ry au, 
 
        Potential amp.        0.0457 Ry
        Total length         54.2615 bohr
 

     total cpu time spent up to now is      636.9 secs

     total energy              =   -7398.03855781 Ry
     estimated scf accuracy    <       0.03381812 Ry

     total magnetization       =    80.40 Bohr mag/cell
     absolute magnetization    =    81.85 Bohr mag/cell

     iteration # 47     ecut=    50.00 Ry     beta= 0.10
     Davidson diagonalization with overlap
     ethr =  2.13E-06,  avg # of iterations =  2.0

     negative rho (up, down):  2.072E-04 1.010E-04
 
     Adding external electric field

     Computed dipole along edir(3) : 
        Dipole               -0.6531 Ry au,         -1.6600 Debye
        Dipole field         -0.0004 Ry au, 
 
        Potential amp.        0.0438 Ry
        Total length         54.2615 bohr
 
 
     Adding external electric field

     Computed dipole along edir(3) : 
        Dipole               -0.6531 Ry au,         -1.6600 Debye
        Dipole field         -0.0004 Ry au, 
 
        Potential amp.        0.0438 Ry
        Total length         54.2615 bohr
 

     total cpu time spent up to now is      649.9 secs

     total energy              =   -7398.03918170 Ry
     estimated scf accuracy    <       0.02952570 Ry

     total magnetization       =    80.53 Bohr mag/cell
     absolute magnetization    =    82.02 Bohr mag/cell

     iteration # 48     ecut=    50.00 Ry     beta= 0.10
     Davidson diagonalization with overlap
     ethr =  2.13E-06,  avg # of iterations =  2.0

     negative rho (up, down):  5.836E-04 3.100E-04
 
     Adding external electric field

     Computed dipole along edir(3) : 
        Dipole               -0.6164 Ry au,         -1.5668 Debye
        Dipole field         -0.0004 Ry au, 
 
        Potential amp.        0.0414 Ry
        Total length         54.2615 bohr
 
 
     Adding external electric field

     Computed dipole along edir(3) : 
        Dipole               -0.6164 Ry au,         -1.5668 Debye
        Dipole field         -0.0004 Ry au, 
 
        Potential amp.        0.0414 Ry
        Total length         54.2615 bohr
 

     total cpu time spent up to now is      662.6 secs

     total energy              =   -7398.03770489 Ry
     estimated scf accuracy    <       0.04335321 Ry

     total magnetization       =    80.66 Bohr mag/cell
     absolute magnetization    =    82.12 Bohr mag/cell

     iteration # 49     ecut=    50.00 Ry     beta= 0.10
     Davidson diagonalization with overlap
     ethr =  2.13E-06,  avg # of iterations =  2.0

     negative rho (up, down):  4.127E-04 2.098E-04
 
     Adding external electric field

     Computed dipole along edir(3) : 
        Dipole               -0.7005 Ry au,         -1.7805 Debye
        Dipole field         -0.0004 Ry au, 
 
        Potential amp.        0.0470 Ry
        Total length         54.2615 bohr
 
 
     Adding external electric field

     Computed dipole along edir(3) : 
        Dipole               -0.7005 Ry au,         -1.7805 Debye
        Dipole field         -0.0004 Ry au, 
 
        Potential amp.        0.0470 Ry
        Total length         54.2615 bohr
 

     total cpu time spent up to now is      677.6 secs

     total energy              =   -7398.03792247 Ry
     estimated scf accuracy    <       0.03298780 Ry

     total magnetization       =    80.53 Bohr mag/cell
     absolute magnetization    =    82.05 Bohr mag/cell

     iteration # 50     ecut=    50.00 Ry     beta= 0.10
     Davidson diagonalization with overlap
     ethr =  2.13E-06,  avg # of iterations =  2.0

     negative rho (up, down):  3.491E-04 1.973E-04
 
     Adding external electric field

     Computed dipole along edir(3) : 
        Dipole               -0.6539 Ry au,         -1.6621 Debye
        Dipole field         -0.0004 Ry au, 
 
        Potential amp.        0.0439 Ry
        Total length         54.2615 bohr
 
 
     Adding external electric field

     Computed dipole along edir(3) : 
        Dipole               -0.6539 Ry au,         -1.6621 Debye
        Dipole field         -0.0004 Ry au, 
 
        Potential amp.        0.0439 Ry
        Total length         54.2615 bohr
 

     total cpu time spent up to now is      690.6 secs

     total energy              =   -7398.03818857 Ry
     estimated scf accuracy    <       0.03143302 Ry

     total magnetization       =    80.42 Bohr mag/cell
     absolute magnetization    =    81.91 Bohr mag/cell

     iteration # 51     ecut=    50.00 Ry     beta= 0.10
     Davidson diagonalization with overlap
     ethr =  2.13E-06,  avg # of iterations =  1.5

     negative rho (up, down):  3.155E-04 2.436E-04
 
     Adding external electric field

     Computed dipole along edir(3) : 
        Dipole               -0.6765 Ry au,         -1.7196 Debye
        Dipole field         -0.0004 Ry au, 
 
        Potential amp.        0.0454 Ry
        Total length         54.2615 bohr
 
 
     Adding external electric field

     Computed dipole along edir(3) : 
        Dipole               -0.6765 Ry au,         -1.7196 Debye
        Dipole field         -0.0004 Ry au, 
 
        Potential amp.        0.0454 Ry
        Total length         54.2615 bohr
 

     total cpu time spent up to now is      703.5 secs

     total energy              =   -7398.03872508 Ry
     estimated scf accuracy    <       0.02656139 Ry

     total magnetization       =    80.50 Bohr mag/cell
     absolute magnetization    =    82.01 Bohr mag/cell

     iteration # 52     ecut=    50.00 Ry     beta= 0.10
     Davidson diagonalization with overlap
     ethr =  2.13E-06,  avg # of iterations =  1.5

     negative rho (up, down):  3.017E-04 1.901E-04
 
     Adding external electric field

     Computed dipole along edir(3) : 
        Dipole               -0.6763 Ry au,         -1.7189 Debye
        Dipole field         -0.0004 Ry au, 
 
        Potential amp.        0.0454 Ry
        Total length         54.2615 bohr
 
 
     Adding external electric field

     Computed dipole along edir(3) : 
        Dipole               -0.6763 Ry au,         -1.7189 Debye
        Dipole field         -0.0004 Ry au, 
 
        Potential amp.        0.0454 Ry
        Total length         54.2615 bohr
 

     total cpu time spent up to now is      719.3 secs

     total energy              =   -7398.03916422 Ry
     estimated scf accuracy    <       0.05319874 Ry

     total magnetization       =    80.23 Bohr mag/cell
     absolute magnetization    =    81.85 Bohr mag/cell

     iteration # 53     ecut=    50.00 Ry     beta= 0.10
     Davidson diagonalization with overlap
     ethr =  2.13E-06,  avg # of iterations =  1.5

     negative rho (up, down):  3.653E-04 2.653E-04
 
     Adding external electric field

     Computed dipole along edir(3) : 
        Dipole               -0.6801 Ry au,         -1.7287 Debye
        Dipole field         -0.0004 Ry au, 
 
        Potential amp.        0.0456 Ry
        Total length         54.2615 bohr
 
 
     Adding external electric field

     Computed dipole along edir(3) : 
        Dipole               -0.6801 Ry au,         -1.7287 Debye
        Dipole field         -0.0004 Ry au, 
 
        Potential amp.        0.0456 Ry
        Total length         54.2615 bohr
 

     total cpu time spent up to now is      739.5 secs

     total energy              =   -7398.03983160 Ry
     estimated scf accuracy    <       0.07847063 Ry

     total magnetization       =    80.16 Bohr mag/cell
     absolute magnetization    =    81.74 Bohr mag/cell

     iteration # 54     ecut=    50.00 Ry     beta= 0.10
     Davidson diagonalization with overlap
     ethr =  2.13E-06,  avg # of iterations =  1.0

     negative rho (up, down):  6.624E-04 5.607E-04
 
     Adding external electric field

     Computed dipole along edir(3) : 
        Dipole               -0.6257 Ry au,         -1.5905 Debye
        Dipole field         -0.0004 Ry au, 
 
        Potential amp.        0.0420 Ry
        Total length         54.2615 bohr
 
 
     Adding external electric field

     Computed dipole along edir(3) : 
        Dipole               -0.6257 Ry au,         -1.5905 Debye
        Dipole field         -0.0004 Ry au, 
 
        Potential amp.        0.0420 Ry
        Total length         54.2615 bohr
 

     total cpu time spent up to now is      758.2 secs

     total energy              =   -7398.03745251 Ry
     estimated scf accuracy    <       0.08921366 Ry

     total magnetization       =    80.09 Bohr mag/cell
     absolute magnetization    =    81.69 Bohr mag/cell

     iteration # 55     ecut=    50.00 Ry     beta= 0.10
     Davidson diagonalization with overlap
     ethr =  2.13E-06,  avg # of iterations =  2.0

     negative rho (up, down):  1.256E-03 1.142E-03
 
     Adding external electric field

     Computed dipole along edir(3) : 
        Dipole               -0.6277 Ry au,         -1.5955 Debye
        Dipole field         -0.0004 Ry au, 
 
        Potential amp.        0.0421 Ry
        Total length         54.2615 bohr
 
 
     Adding external electric field

     Computed dipole along edir(3) : 
        Dipole               -0.6277 Ry au,         -1.5955 Debye
        Dipole field         -0.0004 Ry au, 
 
        Potential amp.        0.0421 Ry
        Total length         54.2615 bohr
 

     total cpu time spent up to now is      783.9 secs

     total energy              =   -7398.03889583 Ry
     estimated scf accuracy    <       0.02656748 Ry

     total magnetization       =    80.50 Bohr mag/cell
     absolute magnetization    =    82.06 Bohr mag/cell

     iteration # 56     ecut=    50.00 Ry     beta= 0.10
     Davidson diagonalization with overlap
     ethr =  2.13E-06,  avg # of iterations =  1.0

     negative rho (up, down):  6.296E-04 5.530E-04
 
     Adding external electric field

     Computed dipole along edir(3) : 
        Dipole               -0.5934 Ry au,         -1.5083 Debye
        Dipole field         -0.0004 Ry au, 
 
        Potential amp.        0.0398 Ry
        Total length         54.2615 bohr
 
 
     Adding external electric field

     Computed dipole along edir(3) : 
        Dipole               -0.5934 Ry au,         -1.5083 Debye
        Dipole field         -0.0004 Ry au, 
 
        Potential amp.        0.0398 Ry
        Total length         54.2615 bohr
 

     total cpu time spent up to now is      805.4 secs

     total energy              =   -7398.03782617 Ry
     estimated scf accuracy    <       0.04610806 Ry

     total magnetization       =    80.27 Bohr mag/cell
     absolute magnetization    =    81.82 Bohr mag/cell

     iteration # 57     ecut=    50.00 Ry     beta= 0.10
     Davidson diagonalization with overlap
     ethr =  2.13E-06,  avg # of iterations =  1.5

     negative rho (up, down):  2.986E-04 2.447E-04
 
     Adding external electric field

     Computed dipole along edir(3) : 
        Dipole               -0.5799 Ry au,         -1.4740 Debye
        Dipole field         -0.0004 Ry au, 
 
        Potential amp.        0.0389 Ry
        Total length         54.2615 bohr
 
 
     Adding external electric field

     Computed dipole along edir(3) : 
        Dipole               -0.5799 Ry au,         -1.4740 Debye
        Dipole field         -0.0004 Ry au, 
 
        Potential amp.        0.0389 Ry
        Total length         54.2615 bohr
 

     total cpu time spent up to now is      821.5 secs

     total energy              =   -7398.03941527 Ry
     estimated scf accuracy    <       0.02813455 Ry

     total magnetization       =    80.55 Bohr mag/cell
     absolute magnetization    =    82.13 Bohr mag/cell

     iteration # 58     ecut=    50.00 Ry     beta= 0.10
     Davidson diagonalization with overlap
     ethr =  2.13E-06,  avg # of iterations =  2.0

     negative rho (up, down):  7.708E-04 6.113E-04
 
     Adding external electric field

     Computed dipole along edir(3) : 
        Dipole               -0.5207 Ry au,         -1.3236 Debye
        Dipole field         -0.0003 Ry au, 
 
        Potential amp.        0.0349 Ry
        Total length         54.2615 bohr
 
 
[...]
    -5.9975  -5.9806  -5.9499  -5.9318  -5.9062  -5.8853  -5.8477  -5.8431
    -5.8122  -5.7913  -5.7559  -5.7366  -5.7272  -5.7183  -5.6935  -5.6750
    -5.6712  -5.6662  -5.6385  -5.6181  -5.6080  -5.5871  -5.5327  -5.5038
    -5.4563  -5.4408  -5.4104  -5.3957  -5.3830  -5.3462  -5.3011  -5.2838
    -5.2370  -5.2094  -5.1903  -5.1700  -5.1663  -5.0747  -5.0719  -5.0510
    -5.0012  -4.9679  -4.9477  -4.9143  -4.8939  -4.8727  -4.8478  -4.7941
    -4.7716  -4.7653  -4.7436  -4.7291  -4.6424  -4.6362  -4.5845  -4.5482
    -4.5314  -4.5169  -4.4840  -4.4497  -4.4272  -4.4005  -4.3786  -4.3632
    -4.3474  -4.2985  -4.2886  -4.2142  -4.1702  -4.1474  -4.1241  -4.0771
    -4.0724  -4.0415  -4.0336  -3.9959  -3.9579  -3.9484  -3.9202  -3.8943
    -3.8865  -3.8368  -3.8285  -3.8183  -3.7924  -3.7660  -3.7431  -3.7290
    -3.7150  -3.6915  -3.6570  -3.6418  -3.6388  -3.6239  -3.6015  -3.5855
    -3.5402  -3.5246  -3.5181  -3.5152  -3.4875  -3.4709  -3.4459  -3.4326
    -3.4197  -3.4006  -3.3875  -3.3419  -3.3412  -3.2952  -3.2874  -3.2536
    -3.2335  -3.2150  -3.2042  -3.1898  -3.1694  -3.1623  -3.1520  -3.1363
    -3.1117  -3.0693  -3.0351  -3.0251  -3.0232  -2.9914  -2.9680  -2.9520
    -2.9266  -2.9068  -2.8953  -2.8701  -2.8565  -2.8445  -2.8172  -2.8103
    -2.7902  -2.7863  -2.7804  -2.7692  -2.7454  -2.7401  -2.7217  -2.6973
    -2.6878  -2.6731  -2.6577  -2.6412  -2.6218  -2.6180  -2.5942  -2.5721
    -2.5581  -2.5372  -2.5233  -2.4900  -2.4874  -2.4761  -2.4625  -2.4345
    -2.4277  -2.3960  -2.3857  -2.3709  -2.3507  -2.3148  -2.2953  -2.2864
    -2.2598  -2.2507  -2.2266  -2.1970  -2.1724  -2.1583  -2.1284  -2.1193
    -2.1016  -2.0885  -2.0786  -2.0663  -2.0636  -2.0459  -2.0022  -1.9883
    -1.9737  -1.9652  -1.9556  -1.9302  -1.9215  -1.9129  -1.8826  -1.8692
    -1.8328  -1.8147  -1.7850  -1.7605  -1.7436  -1.7310  -1.7119  -1.6934
    -1.6618  -1.6507  -1.6388  -1.6247  -1.6070  -1.5963  -1.5768  -1.5428
    -1.5387  -1.5142  -1.4904  -1.4614  -1.4388  -1.4319  -1.4284  -1.4171
    -1.4046  -1.3737  -1.3337  -1.3048  -1.2929  -1.2350  -1.2185  -1.2043
    -1.1461  -1.0961  -1.0660  -1.0481  -1.0094  -0.9222  -0.9044  -0.8720
    -0.7792  -0.6654  -0.6094  -0.6065  -0.4590  -0.3625  -0.3382  -0.2548
     0.1105   0.1287   0.1638   0.1966   0.2367   0.2473   0.2655   0.2744
     0.2882   0.2901   0.3048   0.3068   0.3145   0.3315   0.3440   0.3506
     0.3549   0.3600   0.3740   0.3838   0.3887   0.3903   0.4003   0.4063
     0.4145   0.4219   0.4292   0.4403   0.4513   0.4536   0.4616   0.4629
     0.4686   0.4757   0.4809   0.4930   0.4986   0.5033   0.5060   0.5120
     0.5197   0.5371   0.5396   0.5469   0.5552   0.5642   0.5684   0.5820
     0.5864   0.5892   0.5955   0.6007   0.6134   0.6187   0.6254   0.6360
     0.6410   0.6500   0.6631   0.6647   0.6780   0.6813   0.6864   0.6907
     0.7034   0.7107   0.7167   0.7197   0.7248   0.7303   0.7430   0.7468
     0.7517   0.7555   0.7699   0.7764   0.7893   0.7916   0.8000   0.8130
     0.8269   0.8324   0.8487   0.8566   0.8658   0.8687   0.8835   0.8862
     0.9006   0.9161   0.9203   0.9302   0.9377   0.9906   0.9936   1.0198
     1.0760   1.1398   1.6167   1.6622   1.7048   1.7079   1.7175   1.7206
     1.7612   1.8517   1.8705   1.8811   1.8975   1.9350   1.9403   1.9688
     1.9758   1.9981   2.0221   2.0353   2.0448   2.0723   2.0884   2.1268
     2.1548   2.1658   2.1668   2.1980   2.2051   2.2124   2.2253   2.2331
     2.2472   2.2577   2.2681   2.2852   2.2928   2.3047   2.3091   2.3218
     2.3432   2.3547   2.3625   2.3787   2.4128   2.4163   2.4210   2.4502
     2.4648   2.4899   2.5029   2.5037   2.5194   2.5271   2.5516   2.5598
     2.5760   2.5876   2.5999   2.6338   2.6759   2.7108   2.7300   2.7521
     2.7856   2.8388   2.8883   2.8928   2.9110   3.5854   3.5946   3.6691
     3.7523   3.8276   3.8401   3.8488   3.8649   4.0023   4.0668   4.5894
     4.6446   4.7133   4.7785   4.9253   4.9523   5.0233   5.4165   6.2983
     6.3649   6.5470   6.5875   6.7452   6.8424   6.8554   6.8866   6.9330
     6.9985   7.0656   7.1161   7.1557   7.3009   7.3284   7.3733   7.4692
     7.5060   7.5633   7.6335   7.6707   7.6946   7.7554   7.7937   7.8140
     7.8681   7.9274   7.9332   7.9784   8.0209   8.0337   8.0611   8.0808
     8.1090   8.1239   8.1668   8.1919   8.2378   8.2678   8.2772   8.3330
     8.3801   8.4016   8.4274   8.4563   8.4711   8.4843   8.4997   8.5171
     8.5473   8.5703   8.5780   8.6116   8.6184   8.6467   8.6691   8.6949
     8.7234   8.7677   8.7809   8.8079   8.8291   8.8513   8.8698

     the Fermi energy is     1.5693 ev

!    total energy              =   -7398.03593782 Ry
     estimated scf accuracy    <       0.00000051 Ry
     smearing contrib. (-TS)   =      -0.01434154 Ry
     internal energy E=F+TS    =   -7398.02159628 Ry

     The total energy is F=E-TS. E is the sum of the following terms:
     one-electron contribution =  -91747.54624722 Ry
     hartree contribution      =   46521.77374004 Ry
     xc contribution           =   -2260.27860004 Ry
     ewald contribution        =   40089.86352498 Ry
     Dispersion Correction     =      -1.83402457 Ry
     electric field correction =       0.00001052 Ry

     total magnetization       =    80.44 Bohr mag/cell
     absolute magnetization    =    81.98 Bohr mag/cell

     convergence has been achieved in 101 iterations

     negative rho (up, down):  9.307E-04 5.477E-04

     Forces acting on atoms (cartesian axes, Ry/au):

     atom    1 type  2   force =     0.03102507   -0.01969906   -0.01635936
     atom    2 type  1   force =     0.00217047   -0.00398905   -0.01069291
     atom    3 type  1   force =    -0.02157596   -0.02067310    0.01795717
     atom    4 type  1   force =     0.00142057    0.01024213   -0.01266917
     atom    5 type  1   force =    -0.00479393    0.02901980   -0.01866903
     atom    6 type  1   force =     0.00586517    0.00055140   -0.00064168
     atom    7 type  1   force =     0.02689944   -0.02096978    0.01722879
     atom    8 type  1   force =    -0.00964628   -0.00311038   -0.01103792
     atom    9 type  1   force =    -0.02977069   -0.01822840    0.01594640
     atom   10 type  1   force =    -0.00113759    0.00805601   -0.01294763
     atom   11 type  1   force =    -0.01315566    0.03039475   -0.02085113
     atom   12 type  1   force =     0.00125452    0.00659817   -0.00426036
     atom   13 type  3   force =     0.05102673   -0.11003403    0.00915885
     atom   14 type  3   force =    -0.02903990    0.03593740   -0.06515931
     atom   15 type  3   force =    -0.00920981    0.17549344   -0.08316650
     atom   16 type  3   force =     0.06068444    0.00059930   -0.00438698
     atom   17 type  4   force =     0.01520533   -0.02184021   -0.00981347
     atom   18 type  4   force =    -0.00540636    0.00481602    0.02962266
     atom   19 type  4   force =     0.00214630    0.00101018    0.03073529
     atom   20 type  4   force =     0.00512784    0.00186808    0.00235851
     atom   21 type  4   force =     0.00054955   -0.01200797    0.00005550
     atom   22 type  4   force =    -0.00093263    0.00385261    0.03258081
     atom   23 type  4   force =    -0.00608997    0.01464044    0.02749054
     atom   24 type  4   force =     0.00868342    0.00319867   -0.00422378
     atom   25 type  4   force =     0.00650306   -0.00324655    0.00156296
     atom   26 type  4   force =     0.03113363   -0.17830710    0.00723053
     atom   27 type  4   force =     0.00285031    0.00099314    0.00170597
     atom   28 type  4   force =    -0.01700814    0.00168124    0.00473715
     atom   29 type  4   force =     0.09130427    0.00315700    0.00804009
     atom   30 type  4   force =     0.01308629   -0.02511833   -0.00091273
     atom   31 type  4   force =    -0.03847950    0.13340422   -0.00016007
     atom   32 type  4   force =    -0.00550747   -0.01186254    0.00652531
     atom   33 type  3   force =     0.04154919   -0.11927571    0.00969912
     atom   34 type  3   force =    -0.10168874    0.04259187   -0.07573600
     atom   35 type  3   force =    -0.01352042    0.16599071   -0.08810042
     atom   36 type  3   force =    -0.00359082    0.00260843   -0.01043020
     atom   37 type  4   force =     0.00823382   -0.01468042   -0.00241637
     atom   38 type  4   force =    -0.00586511   -0.00170345    0.02738678
     atom   39 type  4   force =    -0.00467984    0.00724945    0.03215252
     atom   40 type  4   force =     0.00129379    0.00002921    0.00246790
     atom   41 type  4   force =    -0.00150504   -0.00959931   -0.00154574
     atom   42 type  4   force =     0.00543019   -0.00055287    0.02942005
     atom   43 type  4   force =    -0.01046030    0.01347938    0.02712719
     atom   44 type  4   force =     0.00445780    0.00345310   -0.00441853
     atom   45 type  4   force =    -0.00030816   -0.00063017    0.00201443
     atom   46 type  4   force =     0.02812554   -0.17052942    0.00539955
     atom   47 type  4   force =    -0.06554851   -0.00074742   -0.00309477
     atom   48 type  4   force =    -0.01983091    0.00391642    0.00529161
     atom   49 type  4   force =     0.01402340    0.00085832    0.00203392
     atom   50 type  4   force =     0.00796270   -0.02435184   -0.00016880
     atom   51 type  4   force =    -0.03976859    0.13340368   -0.00134700
     atom   52 type  4   force =    -0.00776224   -0.01064123    0.00875460
     atom   53 type  2   force =     0.00653377   -0.00748542    0.00586987
     atom   54 type  1   force =    -0.00004982   -0.00548120    0.01022950
     atom   55 type  1   force =     0.00491209   -0.00630983    0.00686155
     atom   56 type  1   force =    -0.00036569    0.00721525   -0.00095676
     atom   57 type  1   force =     0.00050870    0.02204791   -0.01398246
     atom   58 type  1   force =     0.00164005   -0.00328861    0.00247828
     atom   59 type  1   force =     0.00242532   -0.00998734    0.00418848
     atom   60 type  1   force =    -0.00676971   -0.00343477    0.00388940
     atom   61 type  1   force =    -0.00473665   -0.00499176    0.00686414
     atom   62 type  1   force =    -0.00337430    0.00648525   -0.00184744
     atom   63 type  1   force =    -0.01085330    0.02494421   -0.01740140
     atom   64 type  1   force =    -0.00246292    0.00127457   -0.00051584
     atom   65 type  3   force =     0.04623475   -0.12078830    0.01815205
     atom   66 type  3   force =     0.00167016   -0.00422762    0.00098429
     atom   67 type  3   force =    -0.04064964    0.12357196   -0.00697665
     atom   68 type  3   force =     0.06284017   -0.00131345    0.00742921
     atom   69 type  4   force =     0.01264735   -0.01716963   -0.00247803
     atom   70 type  4   force =    -0.00184122    0.00336850   -0.00080814
     atom   71 type  4   force =    -0.00196334    0.00345137    0.00530495
     atom   72 type  4   force =     0.00464315    0.00136763    0.00134922
     atom   73 type  4   force =     0.00773897   -0.01757462    0.01298617
     atom   74 type  4   force =    -0.00446367   -0.00330624    0.00923527
     atom   75 type  4   force =     0.00353923    0.00865765    0.00461433
     atom   76 type  4   force =     0.00625005    0.00081097   -0.00011653
     atom   77 type  4   force =     0.00631049   -0.00195881   -0.00079001
     atom   78 type  4   force =     0.04524822   -0.14077164    0.00577741
     atom   79 type  4   force =     0.00017375    0.00011407   -0.00034567
     atom   80 type  4   force =     0.00156095    0.00191187    0.00228026
     atom   81 type  4   force =     0.06741031    0.00011120    0.00655570
     atom   82 type  4   force =     0.00016836    0.00229111    0.00131189
     atom   83 type  4   force =    -0.03923778    0.13805037   -0.00232298
     atom   84 type  4   force =    -0.00196108   -0.01026818    0.00351754
     atom   85 type  3   force =     0.03857005   -0.12492224    0.02465490
     atom   86 type  3   force =    -0.06337810   -0.00162819   -0.00380826
     atom   87 type  3   force =    -0.04620197    0.12068698   -0.01049900
     atom   88 type  3   force =    -0.00012809    0.00108845    0.00303330
     atom   89 type  4   force =     0.00916708   -0.01458676   -0.00543674
     atom   90 type  4   force =    -0.00443078    0.00100562   -0.00084873
     atom   91 type  4   force =    -0.00951340    0.00836854    0.00549023
     atom   92 type  4   force =     0.00038218   -0.00034719    0.00027845
     atom   93 type  4   force =     0.00180978   -0.01115138   -0.00119630
     atom   94 type  4   force =    -0.00897219   -0.00303690    0.00830010
     atom   95 type  4   force =    -0.00029580    0.00778622    0.00303881
     atom   96 type  4   force =    -0.00125910    0.00131373   -0.00012844
     atom   97 type  4   force =    -0.00129178    0.00103776   -0.00035001
     atom   98 type  4   force =     0.04062291   -0.13901679    0.00487770
     atom   99 type  4   force =    -0.06699272   -0.00078287   -0.00565645
     atom  100 type  4   force =    -0.00039736    0.00287914    0.00291927
     atom  101 type  4   force =    -0.00132816    0.00002868    0.00136254
     atom  102 type  4   force =    -0.00677499    0.00546208    0.00158035
     atom  103 type  4   force =    -0.04000251    0.13576539   -0.00442288
     atom  104 type  4   force =    -0.00559968   -0.00999889    0.00488125
     atom  105 type  2   force =    -0.00043052    0.00043099   -0.00010886
     atom  106 type  1   force =     0.00231880    0.00134015   -0.00222708
     atom  107 type  1   force =     0.00002133   -0.00040967   -0.00002859
     atom  108 type  1   force =     0.00033475    0.00040825   -0.00036487
     atom  109 type  1   force =    -0.00050551   -0.00001080   -0.00004247
     atom  110 type  1   force =    -0.00008798   -0.00006074    0.00015441
     atom  111 type  1   force =    -0.00000250    0.00035889    0.00000215
     atom  112 type  1   force =     0.00003564   -0.00005307    0.00006872
     atom  113 type  1   force =    -0.00000236   -0.00039742   -0.00025072
     atom  114 type  1   force =    -0.00039526    0.00013809   -0.00037086
     atom  115 type  1   force =     0.00014979   -0.00002678   -0.00002247
     atom  116 type  1   force =    -0.00029171   -0.00038045    0.00012133
     atom  117 type  3   force =    -0.00010895   -0.00052939    0.00010218
     atom  118 type  3   force =     0.00015065   -0.00017073    0.00000068
     atom  119 type  3   force =    -0.00001690   -0.00005696   -0.00013037
     atom  120 type  3   force =    -0.00006058   -0.00025244   -0.00007100
     atom  121 type  4   force =     0.00026937    0.00010981   -0.00037214
     atom  122 type  4   force =    -0.00012431    0.00016037   -0.00019332
     atom  123 type  4   force =     0.00016435   -0.00029331    0.00003709
     atom  124 type  4   force =    -0.00025953   -0.00030893    0.00011957
     atom  125 type  4   force =    -0.00000785    0.00023626   -0.00011976
     atom  126 type  4   force =    -0.00004113   -0.00034365    0.00003089
     atom  127 type  4   force =     0.00035751   -0.00017261   -0.00006558
     atom  128 type  4   force =    -0.00019896   -0.00038311    0.00013162
     atom  129 type  4   force =     0.00005788   -0.00027316   -0.00007938
     atom  130 type  4   force =    -0.00012385    0.00010782   -0.00007895
     atom  131 type  4   force =    -0.00047583   -0.00032414    0.00005216
     atom  132 type  4   force =     0.00011215   -0.00026277    0.00027230
     atom  133 type  4   force =    -0.00018423   -0.00026648    0.00009839
     atom  134 type  4   force =    -0.00032519   -0.00027527   -0.00003343
     atom  135 type  4   force =    -0.00060966   -0.00025848   -0.00041665
     atom  136 type  4   force =     0.00071807    0.00005065   -0.00020715
     atom  137 type  3   force =     0.00032696    0.00001923   -0.00037196
     atom  138 type  3   force =    -0.00021318   -0.00021274   -0.00008976
     atom  139 type  3   force =    -0.00008790    0.00003124    0.00007455
     atom  140 type  3   force =    -0.00059196   -0.00029592   -0.00054064
     atom  141 type  4   force =     0.00047800   -0.00039467    0.00015803
     atom  142 type  4   force =     0.00012193    0.00006075   -0.00004369
     atom  143 type  4   force =     0.00002026   -0.00015597    0.00029676
     atom  144 type  4   force =     0.00072245    0.00029598    0.00090470
     atom  145 type  4   force =    -0.00049467   -0.00027337   -0.00047293
     atom  146 type  4   force =    -0.00000690   -0.00023750   -0.00013945
     atom  147 type  4   force =     0.00041720   -0.00003039   -0.00001113
     atom  148 type  4   force =    -0.00002728    0.00048276   -0.00000784
     atom  149 type  4   force =     0.00090518   -0.00041404   -0.00014418
     atom  150 type  4   force =     0.00024214    0.00016645    0.00014230
     atom  151 type  4   force =    -0.00002608   -0.00002498    0.00005731
     atom  152 type  4   force =     0.00035947   -0.00007029    0.00011808
     atom  153 type  4   force =    -0.00001429    0.00002195   -0.00029050
     atom  154 type  4   force =    -0.00020749   -0.00025755   -0.00003865
     atom  155 type  4   force =     0.00015120   -0.00002349   -0.00006998
     atom  156 type  4   force =     0.00001108    0.00028666   -0.00040719
     atom  157 type  4   force =    -0.00552583    0.00042281    0.00533428
     atom  158 type  5   force =     0.00355990   -0.00179191   -0.00134795

     Total force =     0.665325     Total SCF correction =     0.003512
 
     init_run     :      7.32s CPU      8.11s WALL (       1 calls)
     electrons    :   1448.89s CPU   1515.38s WALL (       1 calls)
     forces       :      4.47s CPU      4.90s WALL (       1 calls)
     force_london :      0.10s CPU      0.10s WALL (       1 calls)

     Called by init_run:
     wfcinit      :      4.38s CPU      4.62s WALL (       1 calls)
     potinit      :      0.68s CPU      0.86s WALL (       1 calls)
     hinit0       :      1.18s CPU      1.28s WALL (       1 calls)

     Called by electrons:
     c_bands      :   1145.76s CPU   1179.10s WALL (     101 calls)
     sum_band     :    195.44s CPU    213.70s WALL (     101 calls)
     v_of_rho     :     19.82s CPU     21.06s WALL (     102 calls)
     newd         :     54.37s CPU     68.02s WALL (     102 calls)
     mix_rho      :     31.54s CPU     31.73s WALL (     101 calls)
     energy_londo :      0.08s CPU      0.08s WALL (       1 calls)

     Called by c_bands:
     init_us_2    :      3.59s CPU      3.66s WALL (     408 calls)
     init_us_2:cp :      3.59s CPU      3.66s WALL (     408 calls)
     regterg      :   1123.00s CPU   1155.94s WALL (     204 calls)

     Called by *egterg:
     rdiaghg      :    303.23s CPU    318.12s WALL (     725 calls)
     h_psi        :    444.31s CPU    452.64s WALL (     727 calls)
     s_psi        :     79.78s CPU     79.86s WALL (     727 calls)
     g_psi        :      0.54s CPU      0.54s WALL (     521 calls)

     Called by h_psi:
     h_psi:calbec :    113.03s CPU    120.11s WALL (     727 calls)
     vloc_psi     :    250.16s CPU    251.25s WALL (     727 calls)
     add_vuspsi   :     79.93s CPU     80.07s WALL (     727 calls)

     General routines
     calbec       :    166.71s CPU    177.43s WALL (     937 calls)
     fft          :     24.65s CPU     26.27s WALL (    1849 calls)
     ffts         :     18.37s CPU     18.44s WALL (   12605 calls)
     fftw         :    286.73s CPU    287.91s WALL (  337978 calls)
     interpolate  :      2.03s CPU      2.13s WALL (     204 calls)
 
     Parallel routines
 
     PWSCF        :  24m22.59s CPU  25m30.72s WALL

 
   This run was terminated on:  21:16: 9  19Nov2025            

=------------------------------------------------------------------------------=
   JOB DONE.
=------------------------------------------------------------------------------=
