
     Program PWSCF v.7.2 starts on 17Nov2025 at 22: 3: 6 

     This program is part of the open-source Quantum ESPRESSO suite
     for quantum simulation of materials; please cite
         "P. Giannozzi et al., J. Phys.:Condens. Matter 21 395502 (2009);
         "P. Giannozzi et al., J. Phys.:Condens. Matter 29 465901 (2017);
         "P. Giannozzi et al., J. Chem. Phys. 152 154105 (2020);
          URL http://www.quantum-espresso.org", 
     in publications or presentations arising from this work. More details at
     http://www.quantum-espresso.org/quote

     Parallel version (MPI), running on    64 processors

     MPI processes distributed on     4 nodes
     379920 MiB available memory on the printing compute node when the environment starts
 
     Reading input from PWINPUT_atm157_ym

     Current dimensions of program PWSCF are:
     Max number of different atomic species (ntypx) = 10
     Max number of k-points (npk) =  40000
     Max angular momentum in pseudopotentials (lmaxx) =  4
     Presently no symmetry can be used with electric field

     file Ni.pbe-n-rrkjus_psl.1.0.0.UPF: wavefunction(s)  3D renormalized
     file Mn.pbe-spn-rrkjus_psl.0.3.1.UPF: wavefunction(s)  3D renormalized
     file O.pbe-rrkjus.UPF: wavefunction(s)  2S renormalized
     file H.pbe-rrkjus.UPF: wavefunction(s)  1S renormalized

     gamma-point specific algorithms are used
 
     R & G space division:  proc/nbgrp/npool/nimage =      64
     Subspace diagonalization in iterative solution of the eigenvalue problem:
     one sub-group per band group will be used
     custom distributed-memory algorithm (size of sub-group:  7*  7 procs)

 
     Parallelization info
     --------------------
     sticks:   dense  smooth     PW     G-vecs:    dense   smooth      PW
     Min         214      85     20                61830    15614    1928
     Max         216      86     22                61864    15658    1982
     Sum       13727    5503   1375              3958051  1001255  125211
 
     Using Slab Decomposition
 


     bravais-lattice index     =            0
     lattice parameter (alat)  =      17.8532  a.u.
     unit-cell volume          =   20962.6682 (a.u.)^3
     number of atoms/cell      =          158
     number of atomic types    =            5
     number of electrons       =      1108.00
     number of Kohn-Sham states=          665
     kinetic-energy cutoff     =      50.0000  Ry
     charge density cutoff     =     500.0000  Ry
     scf convergence threshold =      1.0E-06
     mixing beta               =       0.1000
     number of iterations used =            8  local-TF  mixing
     Exchange-correlation=  SLA  PW   PBE  PBE
                           (   1   4   3   4   0   0   0)

     celldm(1)=  17.853155  celldm(2)=   0.000000  celldm(3)=   0.000000
     celldm(4)=   0.000000  celldm(5)=   0.000000  celldm(6)=   0.000000

     crystal axes: (cart. coord. in units of alat)
               a(1) = (   1.000000   0.000000   0.000000 )  
               a(2) = (   0.003237   1.081997   0.000000 )  
               a(3) = (   0.000000   0.000000   3.404673 )  

     reciprocal axes: (cart. coord. in units 2 pi/alat)
               b(1) = (  1.000000 -0.002992  0.000000 )  
               b(2) = (  0.000000  0.924217  0.000000 )  
               b(3) = (  0.000000  0.000000  0.293714 )  


     PseudoPot. # 1 for Ni read from file:
     ~/PSEUDO/Ni.pbe-n-rrkjus_psl.1.0.0.UPF
     MD5 check sum: Not computed, couldn't open file
     Pseudo is Ultrasoft + core correction, Zval = 10.0
     Generated using "atomic" code by A. Dal Corso  v.5.1.2
     Using radial grid of 1195 points,  6 beta functions with: 
                l(1) =   0
                l(2) =   0
                l(3) =   1
                l(4) =   1
                l(5) =   2
                l(6) =   2
     Q(r) pseudized with 0 coefficients 


     PseudoPot. # 2 for Mn read from file:
     ~/PSEUDO/Mn.pbe-spn-rrkjus_psl.0.3.1.UPF
     MD5 check sum: Not computed, couldn't open file
     Pseudo is Ultrasoft + core correction, Zval = 15.0
     Generated using &quot;atomic&quot; code by A. Dal Corso  v.6.2.2
     Using radial grid of 1187 points,  6 beta functions with: 
                l(1) =   0
                l(2) =   0
                l(3) =   1
                l(4) =   1
                l(5) =   2
                l(6) =   2
     Q(r) pseudized with 0 coefficients 


     PseudoPot. # 3 for P  read from file:
     ~/PSEUDO/P.pbe-n-rrkjus_psl.1.0.0.UPF
     MD5 check sum: Not computed, couldn't open file
     Pseudo is Ultrasoft + core correction, Zval =  5.0
     Generated using "atomic" code by A. Dal Corso  v.5.1
     Using radial grid of 1147 points,  6 beta functions with: 
                l(1) =   0
                l(2) =   0
                l(3) =   1
                l(4) =   1
                l(5) =   2
                l(6) =   2
     Q(r) pseudized with 0 coefficients 


     PseudoPot. # 4 for O  read from file:
     ~/PSEUDO/O.pbe-rrkjus.UPF
     MD5 check sum: Not computed, couldn't open file
     Pseudo is Ultrasoft, Zval =  6.0
     Generated by new atomic code, or converted to UPF format
     Using radial grid of 1269 points,  4 beta functions with: 
                l(1) =   0
                l(2) =   0
                l(3) =   1
                l(4) =   1
     Q(r) pseudized with 0 coefficients 


     PseudoPot. # 5 for H  read from file:
     ~/PSEUDO/H.pbe-rrkjus.UPF
     MD5 check sum: Not computed, couldn't open file
     Pseudo is Ultrasoft, Zval =  1.0
     Generated by new atomic code, or converted to UPF format
     Using radial grid of 1061 points,  2 beta functions with: 
                l(1) =   0
                l(2) =   0
     Q(r) pseudized with 0 coefficients 


     atomic species   valence    mass     pseudopotential
     Ni               10.00    58.69300     Ni( 1.00)
     Mn               15.00    54.93800     Mn( 1.00)
     P                 5.00    30.97300     P ( 1.00)
     O                 6.00    15.99900     O ( 1.00)
     H                 1.00     1.00790     H ( 1.00)

     Starting magnetic structure 
     atomic species   magnetization
     Ni              1.000
     Mn              1.000
     P               1.000
     O               1.000
     H               0.000

     No symmetry found



   Cartesian axes

     site n.     atom                  positions (alat units)
         1        Ni     tau(   1) = (   0.2422259   0.8412654   1.7135021  )
         2        Ni     tau(   2) = (   0.4939939   0.7703882   1.3745235  )
         3        Mn     tau(   3) = (   0.0000622   0.2881594   1.6998608  )
         4        Ni     tau(   4) = (   0.2575438   0.2247311   1.3772755  )
         5        Ni     tau(   5) = (   1.0001613   1.0688286   1.5379356  )
         6        Ni     tau(   6) = (   0.2547438   0.5337506   1.5423852  )
         7        Ni     tau(   7) = (   0.7513156   0.8294534   1.6816756  )
         8        Mn     tau(   8) = (   0.9892084   0.7665403   1.3736225  )
         9        Mn     tau(   9) = (   0.4989277   0.2948958   1.6996914  )
        10        Ni     tau(  10) = (   0.7551301   0.2242805   1.3768936  )
        11        Ni     tau(  11) = (   0.4972159   1.0711780   1.5373138  )
        12        Ni     tau(  12) = (   0.7540948   0.5300080   1.5408646  )
        13        P      tau(  13) = (   0.2134946   0.9657767   1.3822356  )
        14        P      tau(  14) = (   0.4661089   0.6500297   1.6909232  )
        15        P      tau(  15) = (   0.2845404   0.0987020   1.6930817  )
        16        P      tau(  16) = (   0.0413508   0.4217554   1.3879311  )
        17        O      tau(  17) = (   0.1375837   0.8978226   1.5176406  )
        18        O      tau(  18) = (   0.3887107   0.7011557   1.5470611  )
        19        O      tau(  19) = (   0.3618628   0.1611333   1.5509837  )
        20        O      tau(  20) = (   0.1189827   0.3568247   1.5240423  )
        21        O      tau(  21) = (   0.1540234   0.8767886   1.2572786  )
        22        O      tau(  22) = (   0.4110393   0.7496192   1.8050939  )
        23        O      tau(  23) = (   0.3377663   0.1986516   1.8089954  )
        24        O      tau(  24) = (   0.0997683   0.3312674   1.2645563  )
        25        O      tau(  25) = (   0.0989528   0.5758934   1.3854866  )
        26        O      tau(  26) = (   0.3497729   1.0280907   1.6930286  )
        27        O      tau(  27) = (   0.3790282   0.4183038   1.3960614  )
        28        O      tau(  28) = (   0.1208846   0.1037110   1.6793767  )
        29        O      tau(  29) = (   0.1286718   0.6449077   1.6890912  )
        30        O      tau(  30) = (   0.4112377   0.4929637   1.7009712  )
        31        O      tau(  31) = (   0.1495635   0.0377931   1.3821793  )
        32        O      tau(  32) = (   0.3765682   0.9602194   1.3906658  )
        33        P      tau(  33) = (   0.7075432   0.9666523   1.3784783  )
        34        P      tau(  34) = (   0.9652203   0.6409374   1.7033271  )
        35        P      tau(  35) = (   0.7832453   0.0931683   1.6926874  )
        36        P      tau(  36) = (   0.5417589   0.4270160   1.3849132  )
        37        O      tau(  37) = (   0.6313395   0.8958630   1.5135851  )
        38        O      tau(  38) = (   0.8885617   0.6990470   1.5595003  )
        39        O      tau(  39) = (   0.8598518   0.1543399   1.5504633  )
        40        O      tau(  40) = (   0.6193560   0.3582236   1.5201696  )
        41        O      tau(  41) = (   0.6486466   0.8777050   1.2536013  )
        42        O      tau(  42) = (   0.9019443   0.7356849   1.8178004  )
        43        O      tau(  43) = (   0.8422733   0.1897880   1.8089519  )
        44        O      tau(  44) = (   0.6013153   0.3355234   1.2622316  )
        45        O      tau(  45) = (   0.6019813   0.5803347   1.3826084  )
        46        O      tau(  46) = (   0.8418205   1.0195119   1.6947938  )
        47        O      tau(  47) = (   0.8784115   0.4141755   1.3983387  )
        48        O      tau(  48) = (   0.6198107   0.1022917   1.6830133  )
        49        O      tau(  49) = (   0.6307259   0.6490344   1.6799765  )
        50        O      tau(  50) = (   0.9102631   0.4838853   1.7042751  )
        51        O      tau(  51) = (   0.6452681   0.0385369   1.3812216  )
        52        O      tau(  52) = (   0.8702745   0.9586382   1.3915595  )
        53        Ni     tau(  53) = (   0.2420320   0.8169913   1.0699082  )
        54        Ni     tau(  54) = (   0.4893084   0.7542727   0.7477128  )
        55        Mn     tau(  55) = (   0.0085152   0.2729728   1.0755565  )
        56        Ni     tau(  56) = (   0.2558246   0.2079345   0.7498450  )
        57        Ni     tau(  57) = (   0.9991959   1.0516583   0.9080455  )
        58        Ni     tau(  58) = (   0.2490231   0.5149840   0.9092594  )
        59        Ni     tau(  59) = (   0.7373131   0.8159965   1.0690453  )
        60        Mn     tau(  60) = (   0.9859093   0.7511625   0.7423903  )
        61        Mn     tau(  61) = (   0.5085552   0.2755447   1.0757185  )
        62        Ni     tau(  62) = (   0.7532989   0.2074622   0.7493279  )
        63        Ni     tau(  63) = (   0.4981517   1.0523018   0.9093468  )
        64        Ni     tau(  64) = (   0.7469109   0.5147379   0.9081681  )
        65        P      tau(  65) = (   0.2119924   0.9497675   0.7533413  )
        66        P      tau(  66) = (   0.4579509   0.6252695   1.0650744  )
        67        P      tau(  67) = (   0.2855349   0.0724244   1.0650326  )
        68        P      tau(  68) = (   0.0381112   0.4032615   0.7561117  )
        69        O      tau(  69) = (   0.1352995   0.8818598   0.8892857  )
        70        O      tau(  70) = (   0.3789570   0.6924463   0.9291468  )
        71        O      tau(  71) = (   0.3610496   0.1419327   0.9291660  )
        72        O      tau(  72) = (   0.1179700   0.3356534   0.8894858  )
        73        O      tau(  73) = (   0.1524325   0.8608343   0.6290918  )
        74        O      tau(  74) = (   0.3994952   0.7128748   1.1905493  )
        75        O      tau(  75) = (   0.3426976   0.1634744   1.1889742  )
        76        O      tau(  76) = (   0.0989151   0.3155758   0.6321220  )
        77        O      tau(  77) = (   0.0942206   0.5581494   0.7569623  )
        78        O      tau(  78) = (   0.3506297   1.0014456   1.0645371  )
        79        O      tau(  79) = (   0.3750155   0.3983181   0.7655049  )
        80        O      tau(  80) = (   0.1228303   0.0764842   1.0543924  )
        81        O      tau(  81) = (   0.1204299   0.6293201   1.0530905  )
        82        O      tau(  82) = (   0.4000664   0.4708612   1.0626359  )
        83        O      tau(  83) = (   0.1483182   0.0216333   0.7546099  )
        84        O      tau(  84) = (   0.3748687   0.9435072   0.7627918  )
        85        P      tau(  85) = (   0.7056901   0.9492898   0.7521526  )
        86        P      tau(  86) = (   0.9575286   0.6220438   1.0623609  )
        87        P      tau(  87) = (   0.7847866   0.0710549   1.0641979  )
        88        P      tau(  88) = (   0.5377283   0.4083400   0.7551622  )
        89        O      tau(  89) = (   0.6295714   0.8788409   0.8879407  )
        90        O      tau(  90) = (   0.8781778   0.6902700   0.9288966  )
        91        O      tau(  91) = (   0.8603186   0.1398018   0.9279591  )
        92        O      tau(  92) = (   0.6174712   0.3389159   0.8881839  )
        93        O      tau(  93) = (   0.6471291   0.8583376   0.6285166  )
        94        O      tau(  94) = (   0.8962302   0.7094244   1.1861651  )
        95        O      tau(  95) = (   0.8420493   0.1616933   1.1885419  )
        96        O      tau(  96) = (   0.5995227   0.3203391   0.6315608  )
        97        O      tau(  97) = (   0.5932354   0.5636910   0.7569738  )
        98        O      tau(  98) = (   0.8487155   0.9994995   1.0634446  )
        99        O      tau(  99) = (   0.8751772   0.3959680   0.7655094  )
       100        O      tau( 100) = (   0.6223291   0.0767949   1.0539182  )
       101        O      tau( 101) = (   0.6209785   0.6292365   1.0537708  )
       102        O      tau( 102) = (   0.9010178   0.4674118   1.0608723  )
       103        O      tau( 103) = (   0.6430869   0.0213354   0.7538098  )
       104        O      tau( 104) = (   0.8684566   0.9446034   0.7630440  )
       105        Ni     tau( 105) = (   0.2392451   0.7980692   0.4424501  )
       106        Ni     tau( 106) = (   0.4865215   0.7353506   0.1202547  )
       107        Mn     tau( 107) = (   0.0057284   0.2540508   0.4480984  )
       108        Ni     tau( 108) = (   0.2530377   0.1890124   0.1223869  )
       109        Ni     tau( 109) = (   0.9964090   1.0327362   0.2805874  )
       110        Ni     tau( 110) = (   0.2462362   0.4960619   0.2818013  )
       111        Ni     tau( 111) = (   0.7345262   0.7970744   0.4415872  )
       112        Mn     tau( 112) = (   0.9831224   0.7322404   0.1149322  )
       113        Mn     tau( 113) = (   0.5057684   0.2566226   0.4482604  )
       114        Ni     tau( 114) = (   0.7505120   0.1885401   0.1218698  )
       115        Ni     tau( 115) = (   0.4953648   1.0333797   0.2818887  )
       116        Ni     tau( 116) = (   0.7441241   0.4958159   0.2807100  )
       117        P      tau( 117) = (   0.2092055   0.9308455   0.1258832  )
       118        P      tau( 118) = (   0.4551640   0.6063475   0.4376163  )
       119        P      tau( 119) = (   0.2827481   0.0535023   0.4375745  )
       120        P      tau( 120) = (   0.0353243   0.3843395   0.1286536  )
       121        O      tau( 121) = (   0.1325127   0.8629378   0.2618276  )
       122        O      tau( 122) = (   0.3761702   0.6735242   0.3016887  )
       123        O      tau( 123) = (   0.3582627   0.1230106   0.3017079  )
       124        O      tau( 124) = (   0.1151831   0.3167313   0.2620277  )
       125        O      tau( 125) = (   0.1496456   0.8419122   0.0016337  )
       126        O      tau( 126) = (   0.3967083   0.6939527   0.5630912  )
       127        O      tau( 127) = (   0.3399107   0.1445523   0.5615161  )
       128        O      tau( 128) = (   0.0961282   0.2966537   0.0046639  )
       129        O      tau( 129) = (   0.0914337   0.5392273   0.1295042  )
       130        O      tau( 130) = (   0.3478428   0.9825235   0.4370790  )
       131        O      tau( 131) = (   0.3722287   0.3793961   0.1380469  )
       132        O      tau( 132) = (   0.1200434   0.0575621   0.4269343  )
       133        O      tau( 133) = (   0.1176431   0.6103980   0.4256324  )
       134        O      tau( 134) = (   0.3972796   0.4519391   0.4351778  )
       135        O      tau( 135) = (   0.1455313   0.0027113   0.1271518  )
       136        O      tau( 136) = (   0.3720819   0.9245852   0.1353338  )
       137        P      tau( 137) = (   0.7029032   0.9303678   0.1246945  )
       138        P      tau( 138) = (   0.9547417   0.6031217   0.4349028  )
       139        P      tau( 139) = (   0.7819997   0.0521328   0.4367398  )
       140        P      tau( 140) = (   0.5349415   0.3894179   0.1277041  )
       141        O      tau( 141) = (   0.6267846   0.8599188   0.2604826  )
       142        O      tau( 142) = (   0.8753909   0.6713480   0.3014385  )
       143        O      tau( 143) = (   0.8575317   0.1208797   0.3005010  )
       144        O      tau( 144) = (   0.6146843   0.3199938   0.2607258  )
       145        O      tau( 145) = (   0.6443422   0.8394155   0.0010585  )
       146        O      tau( 146) = (   0.8934434   0.6905023   0.5587070  )
       147        O      tau( 147) = (   0.8392624   0.1427713   0.5610838  )
       148        O      tau( 148) = (   0.5967359   0.3014171   0.0041027  )
       149        O      tau( 149) = (   0.5904485   0.5447689   0.1295157  )
       150        O      tau( 150) = (   0.8459286   0.9805774   0.4359865  )
       151        O      tau( 151) = (   0.8723903   0.3770459   0.1380513  )
       152        O      tau( 152) = (   0.6195422   0.0578729   0.4264602  )
       153        O      tau( 153) = (   0.6181917   0.6103144   0.4263127  )
       154        O      tau( 154) = (   0.8982309   0.4484897   0.4334142  )
       155        O      tau( 155) = (   0.6403000   0.0024133   0.1263517  )
       156        O      tau( 156) = (   0.8656697   0.9256814   0.1355859  )
       157        O      tau( 157) = (   1.1309085   0.9202518   1.8489698  )
       158        H      tau( 158) = (   1.0479508   0.8617503   1.8725428  )

     -------------------------------------------------
     Parameters for Dispersion (Grimme-D2) Correction:
     -------------------------------------------------
       atom      VdW radius       C_6     

        Ni         2.952        374.666
        Mn         2.952        374.666
        P          3.222        271.980
        O          2.536         24.284
        H          1.892          4.857

     number of k points=     1  Gaussian smearing, width (Ry)=  0.0100
                       cart. coord. in units 2pi/alat
        k(    1) = (   0.0000000   0.0000000   0.0000000), wk =   1.0000000

     Dense  grid:  1979026 G-vectors     FFT dimensions: ( 128, 144, 450)

     Smooth grid:   500628 G-vectors     FFT dimensions: (  81,  90, 288)

     Estimated max dynamical RAM per process >     333.40 MB

     Estimated total dynamical RAM >      20.84 GB

     Check: negative core charge=   -0.000002
     Generating pointlists ...
     new r_m :   0.0793 (alat units)  1.4162 (a.u.) for type    1
     new r_m :   0.0884 (alat units)  1.5790 (a.u.) for type    2
     new r_m :   0.0665 (alat units)  1.1872 (a.u.) for type    3
     new r_m :   0.0430 (alat units)  0.7675 (a.u.) for type    4
     new r_m :   0.0430 (alat units)  0.7675 (a.u.) for type    5

     Initial potential from superposition of free atoms

     starting charge    1107.8886, renormalised to    1108.0000

     negative rho (up, down):  1.506E-03 4.674E-04
 
     Adding external electric field

     Computed dipole along edir(3) : 
        Dipole                1.6401 Ry au,          4.1686 Debye
        Dipole field          0.0010 Ry au, 
 
        Potential amp.       -0.1076 Ry
        Total length         54.7057 bohr
 
 
     Adding external electric field

     Computed dipole along edir(3) : 
        Dipole                1.6401 Ry au,          4.1686 Debye
        Dipole field          0.0010 Ry au, 
 
        Potential amp.       -0.1076 Ry
        Total length         54.7057 bohr
 
     Starting wfcs are  818 randomized atomic wfcs

     total cpu time spent up to now is       13.1 secs

     Self-consistent Calculation

     iteration #  1     ecut=    50.00 Ry     beta= 0.10
     Davidson diagonalization with overlap
     ethr =  1.00E-02,  avg # of iterations =  5.5

     negative rho (up, down):  4.474E-01 3.636E-07
 
     Adding external electric field

     Computed dipole along edir(3) : 
        Dipole               -3.5449 Ry au,         -9.0102 Debye
        Dipole field         -0.0021 Ry au, 
 
        Potential amp.        0.2325 Ry
        Total length         54.7057 bohr
 
 
     Adding external electric field

     Computed dipole along edir(3) : 
        Dipole               -3.5449 Ry au,         -9.0102 Debye
        Dipole field         -0.0021 Ry au, 
 
        Potential amp.        0.2325 Ry
        Total length         54.7057 bohr
 

     total cpu time spent up to now is       48.4 secs

     total energy              =   -7858.07960639 Ry
     estimated scf accuracy    <     733.35056228 Ry

     total magnetization       =   222.00 Bohr mag/cell
     absolute magnetization    =   320.08 Bohr mag/cell

     iteration #  2     ecut=    50.00 Ry     beta= 0.10
     Davidson diagonalization with overlap
     ethr =  1.00E-02,  avg # of iterations =  2.0

     negative rho (up, down):  4.134E-01 1.424E-07
 
     Adding external electric field

     Computed dipole along edir(3) : 
        Dipole               -2.5593 Ry au,         -6.5051 Debye
        Dipole field         -0.0015 Ry au, 
 
        Potential amp.        0.1679 Ry
        Total length         54.7057 bohr
 
 
     Adding external electric field

     Computed dipole along edir(3) : 
        Dipole               -2.5593 Ry au,         -6.5051 Debye
        Dipole field         -0.0015 Ry au, 
 
        Potential amp.        0.1679 Ry
        Total length         54.7057 bohr
 

     total cpu time spent up to now is       68.4 secs

     total energy              =   -7940.84588400 Ry
     estimated scf accuracy    <     178.44790951 Ry

     total magnetization       =   163.32 Bohr mag/cell
     absolute magnetization    =   211.32 Bohr mag/cell

     iteration #  3     ecut=    50.00 Ry     beta= 0.10
     Davidson diagonalization with overlap
     ethr =  1.00E-02,  avg # of iterations =  1.0

     negative rho (up, down):  3.636E-01 1.125E-07
 
     Adding external electric field

     Computed dipole along edir(3) : 
        Dipole               -2.1387 Ry au,         -5.4360 Debye
        Dipole field         -0.0013 Ry au, 
 
        Potential amp.        0.1403 Ry
        Total length         54.7057 bohr
 
 
     Adding external electric field

     Computed dipole along edir(3) : 
        Dipole               -2.1387 Ry au,         -5.4360 Debye
        Dipole field         -0.0013 Ry au, 
 
        Potential amp.        0.1403 Ry
        Total length         54.7057 bohr
 

     total cpu time spent up to now is       84.4 secs

     total energy              =   -7972.72256004 Ry
     estimated scf accuracy    <     104.19851194 Ry

     total magnetization       =   141.29 Bohr mag/cell
     absolute magnetization    =   191.12 Bohr mag/cell

     iteration #  4     ecut=    50.00 Ry     beta= 0.10
     Davidson diagonalization with overlap
     ethr =  9.40E-03,  avg # of iterations =  1.0

     negative rho (up, down):  2.932E-01 2.669E-08
 
     Adding external electric field

     Computed dipole along edir(3) : 
        Dipole               -2.1184 Ry au,         -5.3843 Debye
        Dipole field         -0.0013 Ry au, 
 
        Potential amp.        0.1389 Ry
        Total length         54.7057 bohr
 
 
     Adding external electric field

     Computed dipole along edir(3) : 
        Dipole               -2.1184 Ry au,         -5.3843 Debye
        Dipole field         -0.0013 Ry au, 
 
        Potential amp.        0.1389 Ry
        Total length         54.7057 bohr
 

     total cpu time spent up to now is       99.3 secs

     total energy              =   -8001.45565672 Ry
     estimated scf accuracy    <      83.01571923 Ry

     total magnetization       =   124.71 Bohr mag/cell
     absolute magnetization    =   176.46 Bohr mag/cell

     iteration #  5     ecut=    50.00 Ry     beta= 0.10
     Davidson diagonalization with overlap
     ethr =  7.49E-03,  avg # of iterations =  1.0

     negative rho (up, down):  4.290E-02 0.000E+00
 
     Adding external electric field

     Computed dipole along edir(3) : 
        Dipole               -1.6060 Ry au,         -4.0821 Debye
        Dipole field         -0.0010 Ry au, 
 
        Potential amp.        0.1053 Ry
        Total length         54.7057 bohr
 
 
     Adding external electric field

     Computed dipole along edir(3) : 
        Dipole               -1.6060 Ry au,         -4.0821 Debye
        Dipole field         -0.0010 Ry au, 
 
        Potential amp.        0.1053 Ry
        Total length         54.7057 bohr
 

     total cpu time spent up to now is      114.0 secs

     total energy              =   -8062.02733571 Ry
     estimated scf accuracy    <      68.58605245 Ry

     total magnetization       =   106.46 Bohr mag/cell
     absolute magnetization    =   160.20 Bohr mag/cell

     iteration #  6     ecut=    50.00 Ry     beta= 0.10
     Davidson diagonalization with overlap
     ethr =  6.19E-03,  avg # of iterations =  1.0

     negative rho (up, down):  2.052E-04 3.161E-04
 
     Adding external electric field

     Computed dipole along edir(3) : 
        Dipole               -1.0580 Ry au,         -2.6893 Debye
        Dipole field         -0.0006 Ry au, 
 
        Potential amp.        0.0694 Ry
        Total length         54.7057 bohr
 
 
     Adding external electric field

     Computed dipole along edir(3) : 
        Dipole               -1.0580 Ry au,         -2.6893 Debye
        Dipole field         -0.0006 Ry au, 
 
        Potential amp.        0.0694 Ry
        Total length         54.7057 bohr
 

     total cpu time spent up to now is      129.7 secs

     total energy              =   -8076.18505431 Ry
     estimated scf accuracy    <      17.04881948 Ry

     total magnetization       =   100.00 Bohr mag/cell
     absolute magnetization    =   133.32 Bohr mag/cell

     iteration #  7     ecut=    50.00 Ry     beta= 0.10
     Davidson diagonalization with overlap
     ethr =  1.54E-03,  avg # of iterations =  6.0

     negative rho (up, down):  1.930E-04 3.085E-04
 
     Adding external electric field

     Computed dipole along edir(3) : 
        Dipole               -1.0465 Ry au,         -2.6598 Debye
        Dipole field         -0.0006 Ry au, 
 
        Potential amp.        0.0686 Ry
        Total length         54.7057 bohr
 
 
     Adding external electric field

     Computed dipole along edir(3) : 
        Dipole               -1.0465 Ry au,         -2.6598 Debye
        Dipole field         -0.0006 Ry au, 
 
        Potential amp.        0.0686 Ry
        Total length         54.7057 bohr
 

     total cpu time spent up to now is      156.7 secs

     total energy              =   -8078.85905267 Ry
     estimated scf accuracy    <      33.67228168 Ry

     total magnetization       =    69.62 Bohr mag/cell
     absolute magnetization    =    87.47 Bohr mag/cell

     iteration #  8     ecut=    50.00 Ry     beta= 0.10
     Davidson diagonalization with overlap
     ethr =  1.54E-03,  avg # of iterations =  1.0

     negative rho (up, down):  1.979E-04 3.279E-04
 
     Adding external electric field

     Computed dipole along edir(3) : 
        Dipole               -1.0429 Ry au,         -2.6509 Debye
        Dipole field         -0.0006 Ry au, 
 
        Potential amp.        0.0684 Ry
        Total length         54.7057 bohr
 
 
     Adding external electric field

     Computed dipole along edir(3) : 
        Dipole               -1.0429 Ry au,         -2.6509 Debye
        Dipole field         -0.0006 Ry au, 
 
        Potential amp.        0.0684 Ry
        Total length         54.7057 bohr
 

     total cpu time spent up to now is      171.1 secs

     total energy              =   -8079.00141373 Ry
     estimated scf accuracy    <      32.90694853 Ry

     total magnetization       =    69.74 Bohr mag/cell
     absolute magnetization    =    87.14 Bohr mag/cell

     iteration #  9     ecut=    50.00 Ry     beta= 0.10
     Davidson diagonalization with overlap
     ethr =  1.54E-03,  avg # of iterations =  1.0

     negative rho (up, down):  1.509E-04 2.993E-04
 
     Adding external electric field

     Computed dipole along edir(3) : 
        Dipole               -1.0249 Ry au,         -2.6050 Debye
        Dipole field         -0.0006 Ry au, 
 
        Potential amp.        0.0672 Ry
        Total length         54.7057 bohr
 
 
     Adding external electric field

     Computed dipole along edir(3) : 
        Dipole               -1.0249 Ry au,         -2.6050 Debye
        Dipole field         -0.0006 Ry au, 
 
        Potential amp.        0.0672 Ry
        Total length         54.7057 bohr
 

     total cpu time spent up to now is      187.3 secs

     total energy              =   -8078.82362399 Ry
     estimated scf accuracy    <      34.20008200 Ry

     total magnetization       =    69.28 Bohr mag/cell
     absolute magnetization    =    86.38 Bohr mag/cell

     iteration # 10     ecut=    50.00 Ry     beta= 0.10
     Davidson diagonalization with overlap
     ethr =  1.54E-03,  avg # of iterations =  1.0

     negative rho (up, down):  1.400E-04 2.823E-04
 
     Adding external electric field

     Computed dipole along edir(3) : 
        Dipole               -1.0202 Ry au,         -2.5931 Debye
        Dipole field         -0.0006 Ry au, 
 
        Potential amp.        0.0669 Ry
        Total length         54.7057 bohr
 
 
     Adding external electric field

     Computed dipole along edir(3) : 
        Dipole               -1.0202 Ry au,         -2.5931 Debye
        Dipole field         -0.0006 Ry au, 
 
        Potential amp.        0.0669 Ry
        Total length         54.7057 bohr
 

     total cpu time spent up to now is      202.1 secs

     total energy              =   -8077.55528694 Ry
     estimated scf accuracy    <      30.36296942 Ry

     total magnetization       =    69.89 Bohr mag/cell
     absolute magnetization    =    86.21 Bohr mag/cell

     iteration # 11     ecut=    50.00 Ry     beta= 0.10
     Davidson diagonalization with overlap
     ethr =  1.54E-03,  avg # of iterations =  1.0

     negative rho (up, down):  1.696E-04 3.142E-04
 
     Adding external electric field

     Computed dipole along edir(3) : 
        Dipole               -0.9775 Ry au,         -2.4846 Debye
        Dipole field         -0.0006 Ry au, 
 
        Potential amp.        0.0641 Ry
        Total length         54.7057 bohr
 
 
     Adding external electric field

     Computed dipole along edir(3) : 
        Dipole               -0.9775 Ry au,         -2.4846 Debye
        Dipole field         -0.0006 Ry au, 
 
        Potential amp.        0.0641 Ry
        Total length         54.7057 bohr
 

     total cpu time spent up to now is      216.4 secs

     total energy              =   -8078.22284326 Ry
     estimated scf accuracy    <       5.96122033 Ry

     total magnetization       =    91.51 Bohr mag/cell
     absolute magnetization    =   102.34 Bohr mag/cell

     iteration # 12     ecut=    50.00 Ry     beta= 0.10
     Davidson diagonalization with overlap
     ethr =  5.38E-04,  avg # of iterations =  2.0

     negative rho (up, down):  1.438E-04 3.185E-04
 
     Adding external electric field

     Computed dipole along edir(3) : 
        Dipole               -0.9637 Ry au,         -2.4496 Debye
        Dipole field         -0.0006 Ry au, 
 
        Potential amp.        0.0632 Ry
        Total length         54.7057 bohr
 
 
     Adding external electric field

     Computed dipole along edir(3) : 
        Dipole               -0.9637 Ry au,         -2.4496 Debye
        Dipole field         -0.0006 Ry au, 
 
        Potential amp.        0.0632 Ry
        Total length         54.7057 bohr
 

     total cpu time spent up to now is      233.1 secs

     total energy              =   -8078.25086978 Ry
     estimated scf accuracy    <       3.74987786 Ry

     total magnetization       =    95.89 Bohr mag/cell
     absolute magnetization    =   104.82 Bohr mag/cell

     iteration # 13     ecut=    50.00 Ry     beta= 0.10
     Davidson diagonalization with overlap
     ethr =  3.38E-04,  avg # of iterations =  1.5

     negative rho (up, down):  1.354E-04 3.228E-04
 
     Adding external electric field

     Computed dipole along edir(3) : 
        Dipole               -0.9282 Ry au,         -2.3593 Debye
        Dipole field         -0.0006 Ry au, 
 
        Potential amp.        0.0609 Ry
        Total length         54.7057 bohr
 
 
     Adding external electric field

     Computed dipole along edir(3) : 
        Dipole               -0.9282 Ry au,         -2.3593 Debye
        Dipole field         -0.0006 Ry au, 
 
        Potential amp.        0.0609 Ry
        Total length         54.7057 bohr
 

     total cpu time spent up to now is      247.8 secs

     total energy              =   -8078.21859521 Ry
     estimated scf accuracy    <       3.54580773 Ry

     total magnetization       =    94.96 Bohr mag/cell
     absolute magnetization    =   103.78 Bohr mag/cell

     iteration # 14     ecut=    50.00 Ry     beta= 0.10
     Davidson diagonalization with overlap
     ethr =  3.20E-04,  avg # of iterations =  2.0

     negative rho (up, down):  1.189E-04 3.011E-04
 
     Adding external electric field

     Computed dipole along edir(3) : 
        Dipole               -0.8502 Ry au,         -2.1610 Debye
        Dipole field         -0.0005 Ry au, 
 
        Potential amp.        0.0558 Ry
        Total length         54.7057 bohr
 
 
     Adding external electric field

     Computed dipole along edir(3) : 
        Dipole               -0.8502 Ry au,         -2.1610 Debye
        Dipole field         -0.0005 Ry au, 
 
        Potential amp.        0.0558 Ry
        Total length         54.7057 bohr
 

     total cpu time spent up to now is      264.0 secs

     total energy              =   -8078.18438372 Ry
     estimated scf accuracy    <       2.91816542 Ry

     total magnetization       =    95.26 Bohr mag/cell
     absolute magnetization    =   103.44 Bohr mag/cell

     iteration # 15     ecut=    50.00 Ry     beta= 0.10
     Davidson diagonalization with overlap
     ethr =  2.63E-04,  avg # of iterations =  2.0

     negative rho (up, down):  9.320E-05 2.413E-04
 
     Adding external electric field

     Computed dipole along edir(3) : 
        Dipole               -0.8358 Ry au,         -2.1244 Debye
        Dipole field         -0.0005 Ry au, 
 
        Potential amp.        0.0548 Ry
        Total length         54.7057 bohr
 
 
     Adding external electric field

     Computed dipole along edir(3) : 
        Dipole               -0.8358 Ry au,         -2.1244 Debye
        Dipole field         -0.0005 Ry au, 
 
        Potential amp.        0.0548 Ry
        Total length         54.7057 bohr
 

     total cpu time spent up to now is      280.9 secs

     total energy              =   -8078.26376425 Ry
     estimated scf accuracy    <       0.99560824 Ry

     total magnetization       =    98.86 Bohr mag/cell
     absolute magnetization    =   105.71 Bohr mag/cell

     iteration # 16     ecut=    50.00 Ry     beta= 0.10
     Davidson diagonalization with overlap
     c_bands:  3 eigenvalues not converged
     ethr =  8.99E-05,  avg # of iterations = 11.0

     negative rho (up, down):  9.221E-05 2.289E-04
 
     Adding external electric field

     Computed dipole along edir(3) : 
        Dipole               -0.8443 Ry au,         -2.1460 Debye
        Dipole field         -0.0005 Ry au, 
 
        Potential amp.        0.0554 Ry
        Total length         54.7057 bohr
 
 
     Adding external electric field

     Computed dipole along edir(3) : 
        Dipole               -0.8443 Ry au,         -2.1460 Debye
        Dipole field         -0.0005 Ry au, 
 
        Potential amp.        0.0554 Ry
        Total length         54.7057 bohr
 

     total cpu time spent up to now is      306.6 secs

     total energy              =   -8078.27297559 Ry
     estimated scf accuracy    <       0.80782061 Ry

     total magnetization       =    97.70 Bohr mag/cell
     absolute magnetization    =   104.45 Bohr mag/cell

     iteration # 17     ecut=    50.00 Ry     beta= 0.10
     Davidson diagonalization with overlap
     ethr =  7.29E-05,  avg # of iterations =  1.0

     negative rho (up, down):  6.892E-05 1.265E-04
 
     Adding external electric field

     Computed dipole along edir(3) : 
        Dipole               -0.9075 Ry au,         -2.3066 Debye
        Dipole field         -0.0005 Ry au, 
 
        Potential amp.        0.0595 Ry
        Total length         54.7057 bohr
 
 
     Adding external electric field

     Computed dipole along edir(3) : 
        Dipole               -0.9075 Ry au,         -2.3066 Debye
        Dipole field         -0.0005 Ry au, 
 
        Potential amp.        0.0595 Ry
        Total length         54.7057 bohr
 

     total cpu time spent up to now is      320.1 secs

     total energy              =   -8078.37176870 Ry
     estimated scf accuracy    <       0.79026083 Ry

     total magnetization       =    97.74 Bohr mag/cell
     absolute magnetization    =   104.40 Bohr mag/cell

     iteration # 18     ecut=    50.00 Ry     beta= 0.10
     Davidson diagonalization with overlap
     ethr =  7.13E-05,  avg # of iterations =  2.0

     negative rho (up, down):  1.290E-05 4.204E-05
 
     Adding external electric field

     Computed dipole along edir(3) : 
        Dipole               -0.8026 Ry au,         -2.0401 Debye
        Dipole field         -0.0005 Ry au, 
 
        Potential amp.        0.0526 Ry
        Total length         54.7057 bohr
 
 
     Adding external electric field

     Computed dipole along edir(3) : 
        Dipole               -0.8026 Ry au,         -2.0401 Debye
        Dipole field         -0.0005 Ry au, 
 
        Potential amp.        0.0526 Ry
        Total length         54.7057 bohr
 

     total cpu time spent up to now is      336.8 secs

     total energy              =   -8078.41140855 Ry
     estimated scf accuracy    <       1.67240538 Ry

     total magnetization       =    96.82 Bohr mag/cell
     absolute magnetization    =   102.54 Bohr mag/cell

     iteration # 19     ecut=    50.00 Ry     beta= 0.10
     Davidson diagonalization with overlap
     ethr =  7.13E-05,  avg # of iterations =  2.0

     negative rho (up, down):  5.293E-06 1.597E-05
 
     Adding external electric field

     Computed dipole along edir(3) : 
        Dipole               -0.8302 Ry au,         -2.1101 Debye
        Dipole field         -0.0005 Ry au, 
 
        Potential amp.        0.0545 Ry
        Total length         54.7057 bohr
 
 
     Adding external electric field

     Computed dipole along edir(3) : 
        Dipole               -0.8302 Ry au,         -2.1101 Debye
        Dipole field         -0.0005 Ry au, 
 
        Potential amp.        0.0545 Ry
        Total length         54.7057 bohr
 

     total cpu time spent up to now is      353.3 secs

     total energy              =   -8078.51205495 Ry
     estimated scf accuracy    <       0.31763101 Ry

     total magnetization       =    97.47 Bohr mag/cell
     absolute magnetization    =   101.10 Bohr mag/cell

     iteration # 20     ecut=    50.00 Ry     beta= 0.10
     Davidson diagonalization with overlap
     ethr =  2.87E-05,  avg # of iterations =  2.0

     negative rho (up, down):  2.457E-06 2.219E-05
 
     Adding external electric field

     Computed dipole along edir(3) : 
        Dipole               -0.7983 Ry au,         -2.0291 Debye
        Dipole field         -0.0005 Ry au, 
 
        Potential amp.        0.0524 Ry
        Total length         54.7057 bohr
 
 
     Adding external electric field

     Computed dipole along edir(3) : 
        Dipole               -0.7983 Ry au,         -2.0291 Debye
        Dipole field         -0.0005 Ry au, 
 
        Potential amp.        0.0524 Ry
        Total length         54.7057 bohr
 

     total cpu time spent up to now is      369.5 secs

     total energy              =   -8078.52316954 Ry
     estimated scf accuracy    <       0.17767637 Ry

     total magnetization       =    97.13 Bohr mag/cell
     absolute magnetization    =    99.79 Bohr mag/cell

     iteration # 21     ecut=    50.00 Ry     beta= 0.10
     Davidson diagonalization with overlap
     ethr =  1.60E-05,  avg # of iterations = 12.5

     negative rho (up, down):  1.835E-06 3.518E-05
 
     Adding external electric field

     Computed dipole along edir(3) : 
        Dipole               -0.7614 Ry au,         -1.9352 Debye
        Dipole field         -0.0005 Ry au, 
 
        Potential amp.        0.0499 Ry
        Total length         54.7057 bohr
 
 
     Adding external electric field

     Computed dipole along edir(3) : 
        Dipole               -0.7614 Ry au,         -1.9352 Debye
        Dipole field         -0.0005 Ry au, 
 
        Potential amp.        0.0499 Ry
        Total length         54.7057 bohr
 

     total cpu time spent up to now is      399.8 secs

     total energy              =   -8078.52652260 Ry
     estimated scf accuracy    <       0.12969672 Ry

     total magnetization       =    96.57 Bohr mag/cell
     absolute magnetization    =    98.45 Bohr mag/cell

     iteration # 22     ecut=    50.00 Ry     beta= 0.10
     Davidson diagonalization with overlap
     ethr =  1.17E-05,  avg # of iterations =  2.0

     negative rho (up, down):  1.187E-06 1.527E-05
 
     Adding external electric field

     Computed dipole along edir(3) : 
        Dipole               -0.7280 Ry au,         -1.8505 Debye
        Dipole field         -0.0004 Ry au, 
 
        Potential amp.        0.0478 Ry
        Total length         54.7057 bohr
 
 
     Adding external electric field

     Computed dipole along edir(3) : 
        Dipole               -0.7280 Ry au,         -1.8505 Debye
        Dipole field         -0.0004 Ry au, 
 
        Potential amp.        0.0478 Ry
        Total length         54.7057 bohr
 

     total cpu time spent up to now is      416.1 secs

     total energy              =   -8078.54614890 Ry
     estimated scf accuracy    <       0.11396367 Ry

     total magnetization       =    96.85 Bohr mag/cell
     absolute magnetization    =    98.55 Bohr mag/cell

     iteration # 23     ecut=    50.00 Ry     beta= 0.10
     Davidson diagonalization with overlap
     ethr =  1.03E-05,  avg # of iterations =  2.0

     negative rho (up, down):  6.804E-07 3.799E-06
 
     Adding external electric field

     Computed dipole along edir(3) : 
        Dipole               -0.6816 Ry au,         -1.7326 Debye
        Dipole field         -0.0004 Ry au, 
 
        Potential amp.        0.0447 Ry
        Total length         54.7057 bohr
 
 
     Adding external electric field

     Computed dipole along edir(3) : 
        Dipole               -0.6816 Ry au,         -1.7326 Debye
        Dipole field         -0.0004 Ry au, 
 
        Potential amp.        0.0447 Ry
        Total length         54.7057 bohr
 

     total cpu time spent up to now is      431.9 secs

     total energy              =   -8078.55925276 Ry
     estimated scf accuracy    <       0.09200377 Ry

     total magnetization       =    96.88 Bohr mag/cell
     absolute magnetization    =    98.24 Bohr mag/cell

     iteration # 24     ecut=    50.00 Ry     beta= 0.10
     Davidson diagonalization with overlap
     ethr =  8.30E-06,  avg # of iterations =  2.0

     negative rho (up, down):  4.580E-07 8.795E-07
 
     Adding external electric field

     Computed dipole along edir(3) : 
        Dipole               -0.6270 Ry au,         -1.5936 Debye
        Dipole field         -0.0004 Ry au, 
 
        Potential amp.        0.0411 Ry
        Total length         54.7057 bohr
 
 
     Adding external electric field

     Computed dipole along edir(3) : 
        Dipole               -0.6270 Ry au,         -1.5936 Debye
        Dipole field         -0.0004 Ry au, 
 
        Potential amp.        0.0411 Ry
        Total length         54.7057 bohr
 

     total cpu time spent up to now is      449.3 secs

     total energy              =   -8078.56113021 Ry
     estimated scf accuracy    <       0.11316586 Ry

     total magnetization       =    97.71 Bohr mag/cell
     absolute magnetization    =    99.02 Bohr mag/cell

     iteration # 25     ecut=    50.00 Ry     beta= 0.10
     Davidson diagonalization with overlap
     c_bands:  2 eigenvalues not converged
     ethr =  8.30E-06,  avg # of iterations = 11.0

     negative rho (up, down):  4.458E-07 7.539E-07
 
     Adding external electric field

     Computed dipole along edir(3) : 
        Dipole               -0.6387 Ry au,         -1.6234 Debye
        Dipole field         -0.0004 Ry au, 
 
        Potential amp.        0.0419 Ry
        Total length         54.7057 bohr
 
 
     Adding external electric field

     Computed dipole along edir(3) : 
        Dipole               -0.6387 Ry au,         -1.6234 Debye
        Dipole field         -0.0004 Ry au, 
 
        Potential amp.        0.0419 Ry
        Total length         54.7057 bohr
 

     total cpu time spent up to now is      471.9 secs

     total energy              =   -8078.56123174 Ry
     estimated scf accuracy    <       0.10615580 Ry

     total magnetization       =    97.69 Bohr mag/cell
     absolute magnetization    =    98.82 Bohr mag/cell

     iteration # 26     ecut=    50.00 Ry     beta= 0.10
     Davidson diagonalization with overlap
     ethr =  8.30E-06,  avg # of iterations = 28.5

     negative rho (up, down):  6.770E-06 3.746E-06
 
     Adding external electric field

     Computed dipole along edir(3) : 
        Dipole               -0.6413 Ry au,         -1.6301 Debye
        Dipole field         -0.0004 Ry au, 
 
        Potential amp.        0.0421 Ry
        Total length         54.7057 bohr
 
 
     Adding external electric field

     Computed dipole along edir(3) : 
        Dipole               -0.6413 Ry au,         -1.6301 Debye
        Dipole field         -0.0004 Ry au, 
 
        Potential amp.        0.0421 Ry
        Total length         54.7057 bohr
 

     total cpu time spent up to now is      516.5 secs

     total energy              =   -8078.55781560 Ry
     estimated scf accuracy    <       0.08000281 Ry

     total magnetization       =    97.73 Bohr mag/cell
     absolute magnetization    =    98.88 Bohr mag/cell

     iteration # 27     ecut=    50.00 Ry     beta= 0.10
     Davidson diagonalization with overlap
     ethr =  7.22E-06,  avg # of iterations =  2.0

     negative rho (up, down):  4.483E-06 2.492E-06
 
     Adding external electric field

     Computed dipole along edir(3) : 
        Dipole               -0.6407 Ry au,         -1.6285 Debye
        Dipole field         -0.0004 Ry au, 
 
        Potential amp.        0.0420 Ry
        Total length         54.7057 bohr
 
 
     Adding external electric field

     Computed dipole along edir(3) : 
        Dipole               -0.6407 Ry au,         -1.6285 Debye
        Dipole field         -0.0004 Ry au, 
 
        Potential amp.        0.0420 Ry
        Total length         54.7057 bohr
 

     total cpu time spent up to now is      533.9 secs

     total energy              =   -8078.55934505 Ry
     estimated scf accuracy    <       0.06080918 Ry

     total magnetization       =    97.58 Bohr mag/cell
     absolute magnetization    =    98.65 Bohr mag/cell

     iteration # 28     ecut=    50.00 Ry     beta= 0.10
     Davidson diagonalization with overlap
     ethr =  5.49E-06,  avg # of iterations =  1.5

     negative rho (up, down):  9.402E-05 7.353E-05
 
     Adding external electric field

     Computed dipole along edir(3) : 
        Dipole               -0.6154 Ry au,         -1.5641 Debye
        Dipole field         -0.0004 Ry au, 
 
        Potential amp.        0.0404 Ry
        Total length         54.7057 bohr
 
 
     Adding external electric field

     Computed dipole along edir(3) : 
        Dipole               -0.6154 Ry au,         -1.5641 Debye
        Dipole field         -0.0004 Ry au, 
 
        Potential amp.        0.0404 Ry
        Total length         54.7057 bohr
 

     total cpu time spent up to now is      548.8 secs

     total energy              =   -8078.55681597 Ry
     estimated scf accuracy    <       0.06045618 Ry

     total magnetization       =    97.62 Bohr mag/cell
     absolute magnetization    =    98.70 Bohr mag/cell

     iteration # 29     ecut=    50.00 Ry     beta= 0.10
     Davidson diagonalization with overlap
     ethr =  5.46E-06,  avg # of iterations =  2.5

     negative rho (up, down):  6.514E-05 4.733E-05
 
     Adding external electric field

     Computed dipole along edir(3) : 
        Dipole               -0.6130 Ry au,         -1.5582 Debye
        Dipole field         -0.0004 Ry au, 
 
        Potential amp.        0.0402 Ry
        Total length         54.7057 bohr
 
 
     Adding external electric field

     Computed dipole along edir(3) : 
        Dipole               -0.6130 Ry au,         -1.5582 Debye
        Dipole field         -0.0004 Ry au, 
 
        Potential amp.        0.0402 Ry
        Total length         54.7057 bohr
 

     total cpu time spent up to now is      565.3 secs

     total energy              =   -8078.56266868 Ry
     estimated scf accuracy    <       0.39684440 Ry

     total magnetization       =    96.56 Bohr mag/cell
     absolute magnetization    =    97.66 Bohr mag/cell

     iteration # 30     ecut=    50.00 Ry     beta= 0.10
     Davidson diagonalization with overlap
     ethr =  5.46E-06,  avg # of iterations =  2.0

     negative rho (up, down):  1.119E-04 8.804E-05
 
     Adding external electric field

     Computed dipole along edir(3) : 
        Dipole               -0.6087 Ry au,         -1.5472 Debye
        Dipole field         -0.0004 Ry au, 
 
        Potential amp.        0.0399 Ry
        Total length         54.7057 bohr
 
 
     Adding external electric field

     Computed dipole along edir(3) : 
        Dipole               -0.6087 Ry au,         -1.5472 Debye
        Dipole field         -0.0004 Ry au, 
 
        Potential amp.        0.0399 Ry
        Total length         54.7057 bohr
 

     total cpu time spent up to now is      581.5 secs

     total energy              =   -8078.56954841 Ry
     estimated scf accuracy    <       0.28546225 Ry

     total magnetization       =    96.74 Bohr mag/cell
     absolute magnetization    =    97.87 Bohr mag/cell

     iteration # 31     ecut=    50.00 Ry     beta= 0.10
     Davidson diagonalization with overlap
     ethr =  5.46E-06,  avg # of iterations =  2.0

     negative rho (up, down):  1.289E-04 1.011E-04
 
     Adding external electric field

     Computed dipole along edir(3) : 
        Dipole               -0.6147 Ry au,         -1.5625 Debye
        Dipole field         -0.0004 Ry au, 
 
        Potential amp.        0.0403 Ry
        Total length         54.7057 bohr
 
 
     Adding external electric field

     Computed dipole along edir(3) : 
        Dipole               -0.6147 Ry au,         -1.5625 Debye
        Dipole field         -0.0004 Ry au, 
 
        Potential amp.        0.0403 Ry
        Total length         54.7057 bohr
 

     total cpu time spent up to now is      598.5 secs

     total energy              =   -8078.57196735 Ry
     estimated scf accuracy    <       0.83656728 Ry

     total magnetization       =    96.01 Bohr mag/cell
     absolute magnetization    =    97.24 Bohr mag/cell

     iteration # 32     ecut=    50.00 Ry     beta= 0.10
     Davidson diagonalization with overlap
     ethr =  5.46E-06,  avg # of iterations =  1.5

     negative rho (up, down):  6.177E-05 3.875E-05
 
     Adding external electric field

     Computed dipole along edir(3) : 
        Dipole               -0.6182 Ry au,         -1.5713 Debye
        Dipole field         -0.0004 Ry au, 
 
        Potential amp.        0.0405 Ry
        Total length         54.7057 bohr
 
 
     Adding external electric field

     Computed dipole along edir(3) : 
        Dipole               -0.6182 Ry au,         -1.5713 Debye
        Dipole field         -0.0004 Ry au, 
 
        Potential amp.        0.0405 Ry
        Total length         54.7057 bohr
 

     total cpu time spent up to now is      613.6 secs

     total energy              =   -8078.55737211 Ry
     estimated scf accuracy    <       0.81870605 Ry

     total magnetization       =    96.02 Bohr mag/cell
     absolute magnetization    =    97.20 Bohr mag/cell

     iteration # 33     ecut=    50.00 Ry     beta= 0.10
     Davidson diagonalization with overlap
     ethr =  5.46E-06,  avg # of iterations =  3.0

     negative rho (up, down):  6.716E-05 4.293E-05
 
     Adding external electric field

     Computed dipole along edir(3) : 
        Dipole               -0.6254 Ry au,         -1.5897 Debye
        Dipole field         -0.0004 Ry au, 
 
        Potential amp.        0.0410 Ry
        Total length         54.7057 bohr
 
 
     Adding external electric field

     Computed dipole along edir(3) : 
        Dipole               -0.6254 Ry au,         -1.5897 Debye
        Dipole field         -0.0004 Ry au, 
 
        Potential amp.        0.0410 Ry
        Total length         54.7057 bohr
 

     total cpu time spent up to now is      630.0 secs

     total energy              =   -8078.56194063 Ry
     estimated scf accuracy    <       0.21146137 Ry

     total magnetization       =    96.87 Bohr mag/cell
     absolute magnetization    =    97.98 Bohr mag/cell

     iteration # 34     ecut=    50.00 Ry     beta= 0.10
     Davidson diagonalization with overlap
     ethr =  5.46E-06,  avg # of iterations =  1.5

     negative rho (up, down):  5.398E-05 4.225E-05
 
     Adding external electric field

     Computed dipole along edir(3) : 
        Dipole               -0.6240 Ry au,         -1.5861 Debye
        Dipole field         -0.0004 Ry au, 
 
        Potential amp.        0.0409 Ry
        Total length         54.7057 bohr
 
 
     Adding external electric field

     Computed dipole along edir(3) : 
        Dipole               -0.6240 Ry au,         -1.5861 Debye
        Dipole field         -0.0004 Ry au, 
 
        Potential amp.        0.0409 Ry
        Total length         54.7057 bohr
 

     total cpu time spent up to now is      644.6 secs

     total energy              =   -8078.56171277 Ry
     estimated scf accuracy    <       0.23194983 Ry

     total magnetization       =    96.81 Bohr mag/cell
     absolute magnetization    =    97.92 Bohr mag/cell

     iteration # 35     ecut=    50.00 Ry     beta= 0.10
     Davidson diagonalization with overlap
     ethr =  5.46E-06,  avg # of iterations =  2.0

     negative rho (up, down):  1.232E-05 7.347E-06
 
     Adding external electric field

     Computed dipole along edir(3) : 
        Dipole               -0.6345 Ry au,         -1.6127 Debye
        Dipole field         -0.0004 Ry au, 
 
        Potential amp.        0.0416 Ry
        Total length         54.7057 bohr
 
 
     Adding external electric field

     Computed dipole along edir(3) : 
        Dipole               -0.6345 Ry au,         -1.6127 Debye
        Dipole field         -0.0004 Ry au, 
 
        Potential amp.        0.0416 Ry
        Total length         54.7057 bohr
 

     total cpu time spent up to now is      661.5 secs

     total energy              =   -8078.55542044 Ry
     estimated scf accuracy    <       0.19286042 Ry

     total magnetization       =    96.81 Bohr mag/cell
     absolute magnetization    =    97.92 Bohr mag/cell

     iteration # 36     ecut=    50.00 Ry     beta= 0.10
     Davidson diagonalization with overlap
     ethr =  5.46E-06,  avg # of iterations =  3.0

     negative rho (up, down):  3.404E-05 2.586E-05
 
     Adding external electric field

     Computed dipole along edir(3) : 
        Dipole               -0.6347 Ry au,         -1.6134 Debye
        Dipole field         -0.0004 Ry au, 
 
        Potential amp.        0.0416 Ry
        Total length         54.7057 bohr
 
 
     Adding external electric field

     Computed dipole along edir(3) : 
        Dipole               -0.6347 Ry au,         -1.6134 Debye
        Dipole field         -0.0004 Ry au, 
 
        Potential amp.        0.0416 Ry
        Total length         54.7057 bohr
 

     total cpu time spent up to now is      678.1 secs

     total energy              =   -8078.55943568 Ry
     estimated scf accuracy    <       0.05049317 Ry

     total magnetization       =    97.37 Bohr mag/cell
     absolute magnetization    =    98.45 Bohr mag/cell

     iteration # 37     ecut=    50.00 Ry     beta= 0.10
     Davidson diagonalization with overlap
     ethr =  4.56E-06,  avg # of iterations =  2.0

     negative rho (up, down):  2.921E-05 2.145E-05
 
     Adding external electric field

     Computed dipole along edir(3) : 
        Dipole               -0.6379 Ry au,         -1.6213 Debye
        Dipole field         -0.0004 Ry au, 
 
        Potential amp.        0.0418 Ry
        Total length         54.7057 bohr
 
 
     Adding external electric field

     Computed dipole along edir(3) : 
        Dipole               -0.6379 Ry au,         -1.6213 Debye
        Dipole field         -0.0004 Ry au, 
 
        Potential amp.        0.0418 Ry
        Total length         54.7057 bohr
 

     total cpu time spent up to now is      693.1 secs

     total energy              =   -8078.55910770 Ry
     estimated scf accuracy    <       0.07168962 Ry

     total magnetization       =    97.14 Bohr mag/cell
     absolute magnetization    =    98.23 Bohr mag/cell

     iteration # 38     ecut=    50.00 Ry     beta= 0.10
     Davidson diagonalization with overlap
     ethr =  4.56E-06,  avg # of iterations =  2.0

     negative rho (up, down):  1.444E-04 7.961E-05
 
     Adding external electric field

     Computed dipole along edir(3) : 
        Dipole               -0.6044 Ry au,         -1.5363 Debye
        Dipole field         -0.0004 Ry au, 
 
        Potential amp.        0.0396 Ry
        Total length         54.7057 bohr
 
 
     Adding external electric field

     Computed dipole along edir(3) : 
        Dipole               -0.6044 Ry au,         -1.5363 Debye
        Dipole field         -0.0004 Ry au, 
 
        Potential amp.        0.0396 Ry
        Total length         54.7057 bohr
 

     total cpu time spent up to now is      708.8 secs

     total energy              =   -8078.55396458 Ry
     estimated scf accuracy    <       0.05265827 Ry

     total magnetization       =    97.24 Bohr mag/cell
     absolute magnetization    =    98.32 Bohr mag/cell

     iteration # 39     ecut=    50.00 Ry     beta= 0.10
     Davidson diagonalization with overlap
     ethr =  4.56E-06,  avg # of iterations =  2.0

     negative rho (up, down):  9.143E-05 8.624E-05
 
     Adding external electric field

     Computed dipole along edir(3) : 
        Dipole               -0.6794 Ry au,         -1.7268 Debye
        Dipole field         -0.0004 Ry au, 
 
        Potential amp.        0.0446 Ry
        Total length         54.7057 bohr
 
 
     Adding external electric field

     Computed dipole along edir(3) : 
        Dipole               -0.6794 Ry au,         -1.7268 Debye
        Dipole field         -0.0004 Ry au, 
 
        Potential amp.        0.0446 Ry
        Total length         54.7057 bohr
 

     total cpu time spent up to now is      725.5 secs

     total energy              =   -8078.55963506 Ry
     estimated scf accuracy    <       0.07159436 Ry

     total magnetization       =    97.20 Bohr mag/cell
     absolute magnetization    =    98.15 Bohr mag/cell

     iteration # 40     ecut=    50.00 Ry     beta= 0.10
     Davidson diagonalization with overlap
     ethr =  4.56E-06,  avg # of iterations =  1.5

     negative rho (up, down):  1.578E-04 1.456E-04
 
     Adding external electric field

     Computed dipole along edir(3) : 
        Dipole               -0.6915 Ry au,         -1.7575 Debye
        Dipole field         -0.0004 Ry au, 
 
        Potential amp.        0.0454 Ry
        Total length         54.7057 bohr
 
 
     Adding external electric field

     Computed dipole along edir(3) : 
        Dipole               -0.6915 Ry au,         -1.7575 Debye
        Dipole field         -0.0004 Ry au, 
 
        Potential amp.        0.0454 Ry
        Total length         54.7057 bohr
 

     total cpu time spent up to now is      740.6 secs

     total energy              =   -8078.56377804 Ry
     estimated scf accuracy    <       0.08517083 Ry

     total magnetization       =    97.03 Bohr mag/cell
     absolute magnetization    =    98.06 Bohr mag/cell

     iteration # 41     ecut=    50.00 Ry     beta= 0.10
     Davidson diagonalization with overlap
     ethr =  4.56E-06,  avg # of iterations =  2.0

     negative rho (up, down):  2.540E-04 2.376E-04
 
     Adding external electric field

     Computed dipole along edir(3) : 
        Dipole               -0.6501 Ry au,         -1.6524 Debye
        Dipole field         -0.0004 Ry au, 
 
        Potential amp.        0.0426 Ry
        Total length         54.7057 bohr
 
 
     Adding external electric field

     Computed dipole along edir(3) : 
        Dipole               -0.6501 Ry au,         -1.6524 Debye
        Dipole field         -0.0004 Ry au, 
 
        Potential amp.        0.0426 Ry
        Total length         54.7057 bohr
 

     total cpu time spent up to now is      756.9 secs

     total energy              =   -8078.56834578 Ry
     estimated scf accuracy    <       0.45983071 Ry

     total magnetization       =    96.36 Bohr mag/cell
     absolute magnetization    =    97.51 Bohr mag/cell

     iteration # 42     ecut=    50.00 Ry     beta= 0.10
     Davidson diagonalization with overlap
     ethr =  4.56E-06,  avg # of iterations =  1.5

     negative rho (up, down):  2.634E-04 2.294E-04
 
     Adding external electric field

     Computed dipole along edir(3) : 
        Dipole               -0.6438 Ry au,         -1.6363 Debye
        Dipole field         -0.0004 Ry au, 
 
        Potential amp.        0.0422 Ry
        Total length         54.7057 bohr
 
 
     Adding external electric field

     Computed dipole along edir(3) : 
        Dipole               -0.6438 Ry au,         -1.6363 Debye
        Dipole field         -0.0004 Ry au, 
 
        Potential amp.        0.0422 Ry
        Total length         54.7057 bohr
 

     total cpu time spent up to now is      771.8 secs

     total energy              =   -8078.56383133 Ry
     estimated scf accuracy    <       0.69927735 Ry

     total magnetization       =    96.06 Bohr mag/cell
     absolute magnetization    =    97.16 Bohr mag/cell

     iteration # 43     ecut=    50.00 Ry     beta= 0.10
     Davidson diagonalization with overlap
     ethr =  4.56E-06,  avg # of iterations =  1.0

     negative rho (up, down):  2.237E-04 2.418E-04
 
     Adding external electric field

     Computed dipole along edir(3) : 
        Dipole               -0.6634 Ry au,         -1.6863 Debye
        Dipole field         -0.0004 Ry au, 
 
        Potential amp.        0.0435 Ry
        Total length         54.7057 bohr
 
 
     Adding external electric field

     Computed dipole along edir(3) : 
        Dipole               -0.6634 Ry au,         -1.6863 Debye
        Dipole field         -0.0004 Ry au, 
 
        Potential amp.        0.0435 Ry
        Total length         54.7057 bohr
 

     total cpu time spent up to now is      785.8 secs

     total energy              =   -8078.56079446 Ry
     estimated scf accuracy    <       0.40911028 Ry

     total magnetization       =    96.44 Bohr mag/cell
     absolute magnetization    =    97.49 Bohr mag/cell

     iteration # 44     ecut=    50.00 Ry     beta= 0.10
     Davidson diagonalization with overlap
     ethr =  4.56E-06,  avg # of iterations =  2.0

     negative rho (up, down):  1.366E-04 1.179E-04
 
     Adding external electric field

     Computed dipole along edir(3) : 
        Dipole               -0.7126 Ry au,         -1.8114 Debye
        Dipole field         -0.0004 Ry au, 
 
        Potential amp.        0.0467 Ry
        Total length         54.7057 bohr
 
 
     Adding external electric field

     Computed dipole along edir(3) : 
        Dipole               -0.7126 Ry au,         -1.8114 Debye
        Dipole field         -0.0004 Ry au, 
 
        Potential amp.        0.0467 Ry
        Total length         54.7057 bohr
 

     total cpu time spent up to now is      801.6 secs

     total energy              =   -8078.56016586 Ry
     estimated scf accuracy    <       0.25478253 Ry

     total magnetization       =    96.57 Bohr mag/cell
     absolute magnetization    =    97.55 Bohr mag/cell

     iteration # 45     ecut=    50.00 Ry     beta= 0.10
     Davidson diagonalization with overlap
     ethr =  4.56E-06,  avg # of iterations =  2.0

     negative rho (up, down):  8.505E-05 6.682E-05
 
     Adding external electric field

     Computed dipole along edir(3) : 
        Dipole               -0.7100 Ry au,         -1.8046 Debye
        Dipole field         -0.0004 Ry au, 
 
        Potential amp.        0.0466 Ry
        Total length         54.7057 bohr
 
 
     Adding external electric field

     Computed dipole along edir(3) : 
        Dipole               -0.7100 Ry au,         -1.8046 Debye
        Dipole field         -0.0004 Ry au, 
 
        Potential amp.        0.0466 Ry
        Total length         54.7057 bohr
 

     total cpu time spent up to now is      817.2 secs

     total energy              =   -8078.55814829 Ry
     estimated scf accuracy    <       0.13325177 Ry

     total magnetization       =    96.95 Bohr mag/cell
     absolute magnetization    =    97.97 Bohr mag/cell

     iteration # 46     ecut=    50.00 Ry     beta= 0.10
     Davidson diagonalization with overlap
     ethr =  4.56E-06,  avg # of iterations =  1.0

     negative rho (up, down):  9.015E-05 7.028E-05
 
     Adding external electric field

     Computed dipole along edir(3) : 
        Dipole               -0.7119 Ry au,         -1.8094 Debye
        Dipole field         -0.0004 Ry au, 
 
        Potential amp.        0.0467 Ry
        Total length         54.7057 bohr
 
 
     Adding external electric field

     Computed dipole along edir(3) : 
        Dipole               -0.7119 Ry au,         -1.8094 Debye
        Dipole field         -0.0004 Ry au, 
 
        Potential amp.        0.0467 Ry
        Total length         54.7057 bohr
 

     total cpu time spent up to now is      831.8 secs

     total energy              =   -8078.55939679 Ry
     estimated scf accuracy    <       0.05158445 Ry

     total magnetization       =    97.26 Bohr mag/cell
     absolute magnetization    =    98.27 Bohr mag/cell

     iteration # 47     ecut=    50.00 Ry     beta= 0.10
     Davidson diagonalization with overlap
     ethr =  4.56E-06,  avg # of iterations =  2.0

     negative rho (up, down):  9.291E-05 7.215E-05
 
     Adding external electric field

     Computed dipole along edir(3) : 
        Dipole               -0.7043 Ry au,         -1.7901 Debye
        Dipole field         -0.0004 Ry au, 
 
        Potential amp.        0.0462 Ry
        Total length         54.7057 bohr
 
 
     Adding external electric field

     Computed dipole along edir(3) : 
        Dipole               -0.7043 Ry au,         -1.7901 Debye
        Dipole field         -0.0004 Ry au, 
 
        Potential amp.        0.0462 Ry
        Total length         54.7057 bohr
 

     total cpu time spent up to now is      847.4 secs

     total energy              =   -8078.55947187 Ry
     estimated scf accuracy    <       0.06002220 Ry

     total magnetization       =    97.23 Bohr mag/cell
     absolute magnetization    =    98.24 Bohr mag/cell

     iteration # 48     ecut=    50.00 Ry     beta= 0.10
     Davidson diagonalization with overlap
     ethr =  4.56E-06,  avg # of iterations =  1.5

     negative rho (up, down):  7.244E-05 5.096E-05
 
     Adding external electric field

     Computed dipole along edir(3) : 
        Dipole               -0.6844 Ry au,         -1.7395 Debye
        Dipole field         -0.0004 Ry au, 
 
        Potential amp.        0.0449 Ry
        Total length         54.7057 bohr
 
 
     Adding external electric field

     Computed dipole along edir(3) : 
        Dipole               -0.6844 Ry au,         -1.7395 Debye
        Dipole field         -0.0004 Ry au, 
 
        Potential amp.        0.0449 Ry
        Total length         54.7057 bohr
 

     total cpu time spent up to now is      862.3 secs

     total energy              =   -8078.55827152 Ry
     estimated scf accuracy    <       0.04932190 Ry

     total magnetization       =    97.27 Bohr mag/cell
     absolute magnetization    =    98.31 Bohr mag/cell

     iteration # 49     ecut=    50.00 Ry     beta= 0.10
     Davidson diagonalization with overlap
     ethr =  4.45E-06,  avg # of iterations =  1.0

     negative rho (up, down):  1.227E-04 8.275E-05
 
     Adding external electric field

     Computed dipole along edir(3) : 
        Dipole               -0.6919 Ry au,         -1.7588 Debye
        Dipole field         -0.0004 Ry au, 
 
        Potential amp.        0.0454 Ry
        Total length         54.7057 bohr
 
 
     Adding external electric field

     Computed dipole along edir(3) : 
        Dipole               -0.6919 Ry au,         -1.7588 Debye
        Dipole field         -0.0004 Ry au, 
 
        Potential amp.        0.0454 Ry
        Total length         54.7057 bohr
 

     total cpu time spent up to now is      876.0 secs

     total energy              =   -8078.55792259 Ry
     estimated scf accuracy    <       0.05180843 Ry

     total magnetization       =    97.29 Bohr mag/cell
     absolute magnetization    =    98.28 Bohr mag/cell

     iteration # 50     ecut=    50.00 Ry     beta= 0.10
     Davidson diagonalization with overlap
     ethr =  4.45E-06,  avg # of iterations =  1.5

     negative rho (up, down):  1.633E-05 1.321E-05
 
     Adding external electric field

     Computed dipole along edir(3) : 
        Dipole               -0.6619 Ry au,         -1.6824 Debye
        Dipole field         -0.0004 Ry au, 
 
        Potential amp.        0.0434 Ry
        Total length         54.7057 bohr
 
 
     Adding external electric field

     Computed dipole along edir(3) : 
        Dipole               -0.6619 Ry au,         -1.6824 Debye
        Dipole field         -0.0004 Ry au, 
 
        Potential amp.        0.0434 Ry
        Total length         54.7057 bohr
 

     total cpu time spent up to now is      890.8 secs

     total energy              =   -8078.55974126 Ry
     estimated scf accuracy    <       0.05403158 Ry

     total magnetization       =    97.30 Bohr mag/cell
     absolute magnetization    =    98.28 Bohr mag/cell

     iteration # 51     ecut=    50.00 Ry     beta= 0.10
     Davidson diagonalization with overlap
     ethr =  4.45E-06,  avg # of iterations =  2.0

     negative rho (up, down):  3.752E-05 2.707E-05
 
     Adding external electric field

     Computed dipole along edir(3) : 
        Dipole               -0.6472 Ry au,         -1.6450 Debye
        Dipole field         -0.0004 Ry au, 
 
        Potential amp.        0.0424 Ry
        Total length         54.7057 bohr
 
 
     Adding external electric field

     Computed dipole along edir(3) : 
        Dipole               -0.6472 Ry au,         -1.6450 Debye
        Dipole field         -0.0004 Ry au, 
 
        Potential amp.        0.0424 Ry
        Total length         54.7057 bohr
 

     total cpu time spent up to now is      906.7 secs

     total energy              =   -8078.55825268 Ry
     estimated scf accuracy    <       0.06355126 Ry

     total magnetization       =    97.25 Bohr mag/cell
     absolute magnetization    =    98.33 Bohr mag/cell

     iteration # 52     ecut=    50.00 Ry     beta= 0.10
     Davidson diagonalization with overlap
     ethr =  4.45E-06,  avg # of iterations =  1.5

     negative rho (up, down):  3.748E-05 3.153E-05
 
     Adding external electric field

     Computed dipole along edir(3) : 
        Dipole               -0.6950 Ry au,         -1.7665 Debye
        Dipole field         -0.0004 Ry au, 
 
        Potential amp.        0.0456 Ry
        Total length         54.7057 bohr
 
 
     Adding external electric field

     Computed dipole along edir(3) : 
        Dipole               -0.6950 Ry au,         -1.7665 Debye
        Dipole field         -0.0004 Ry au, 
 
        Potential amp.        0.0456 Ry
        Total length         54.7057 bohr
 

     total cpu time spent up to now is      921.2 secs

     total energy              =   -8078.55960433 Ry
     estimated scf accuracy    <       0.04392341 Ry

     total magnetization       =    97.35 Bohr mag/cell
     absolute magnetization    =    98.40 Bohr mag/cell

     iteration # 53     ecut=    50.00 Ry     beta= 0.10
     Davidson diagonalization with overlap
     ethr =  3.96E-06,  avg # of iterations =  2.0

     negative rho (up, down):  6.287E-05 5.548E-05
 
     Adding external electric field

     Computed dipole along edir(3) : 
        Dipole               -0.7329 Ry au,         -1.8628 Debye
        Dipole field         -0.0004 Ry au, 
 
        Potential amp.        0.0481 Ry
        Total length         54.7057 bohr
 
 
     Adding external electric field

     Computed dipole along edir(3) : 
        Dipole               -0.7329 Ry au,         -1.8628 Debye
        Dipole field         -0.0004 Ry au, 
 
        Potential amp.        0.0481 Ry
        Total length         54.7057 bohr
 

     total cpu time spent up to now is      937.0 secs

     total energy              =   -8078.56022618 Ry
     estimated scf accuracy    <       0.04448312 Ry

     total magnetization       =    97.30 Bohr mag/cell
     absolute magnetization    =    98.35 Bohr mag/cell

     iteration # 54     ecut=    50.00 Ry     beta= 0.10
     Davidson diagonalization with overlap
     ethr =  3.96E-06,  avg # of iterations =  2.0

     negative rho (up, down):  1.558E-05 1.118E-05
 
     Adding external electric field

     Computed dipole along edir(3) : 
        Dipole               -0.6260 Ry au,         -1.5911 Debye
        Dipole field         -0.0004 Ry au, 
 
        Potential amp.        0.0411 Ry
        Total length         54.7057 bohr
 
 
     Adding external electric field

     Computed dipole along edir(3) : 
        Dipole               -0.6260 Ry au,         -1.5911 Debye
        Dipole field         -0.0004 Ry au, 
 
        Potential amp.        0.0411 Ry
        Total length         54.7057 bohr
 

     total cpu time spent up to now is      952.2 secs

     total energy              =   -8078.55923934 Ry
     estimated scf accuracy    <       0.03985735 Ry

     total magnetization       =    97.36 Bohr mag/cell
     absolute magnetization    =    98.44 Bohr mag/cell

     iteration # 55     ecut=    50.00 Ry     beta= 0.10
     Davidson diagonalization with overlap
     ethr =  3.60E-06,  avg # of iterations =  2.0

     negative rho (up, down):  2.773E-05 2.391E-05
 
     Adding external electric field

     Computed dipole along edir(3) : 
        Dipole               -0.6899 Ry au,         -1.7534 Debye
        Dipole field         -0.0004 Ry au, 
 
        Potential amp.        0.0452 Ry
        Total length         54.7057 bohr
 
 
     Adding external electric field

     Computed dipole along edir(3) : 
        Dipole               -0.6899 Ry au,         -1.7534 Debye
        Dipole field         -0.0004 Ry au, 
 
        Potential amp.        0.0452 Ry
        Total length         54.7057 bohr
 

     total cpu time spent up to now is      968.2 secs

     total energy              =   -8078.55947162 Ry
     estimated scf accuracy    <       0.04470511 Ry

     total magnetization       =    97.33 Bohr mag/cell
     absolute magnetization    =    98.41 Bohr mag/cell

     iteration # 56     ecut=    50.00 Ry     beta= 0.10
     Davidson diagonalization with overlap
     ethr =  3.60E-06,  avg # of iterations =  2.0

     negative rho (up, down):  5.093E-05 4.543E-05
 
     Adding external electric field

     Computed dipole along edir(3) : 
        Dipole               -0.7428 Ry au,         -1.8879 Debye
        Dipole field         -0.0004 Ry au, 
 
        Potential amp.        0.0487 Ry
        Total length         54.7057 bohr
 
 
     Adding external electric field

     Computed dipole along edir(3) : 
        Dipole               -0.7428 Ry au,         -1.8879 Debye
        Dipole field         -0.0004 Ry au, 
 
        Potential amp.        0.0487 Ry
        Total length         54.7057 bohr
 

     total cpu time spent up to now is      984.3 secs

     total energy              =   -8078.56050184 Ry
     estimated scf accuracy    <       0.04871069 Ry

     total magnetization       =    97.28 Bohr mag/cell
     absolute magnetization    =    98.33 Bohr mag/cell

     iteration # 57     ecut=    50.00 Ry     beta= 0.10
     Davidson diagonalization with overlap
     ethr =  3.60E-06,  avg # of iterations =  2.0

     negative rho (up, down):  2.536E-05 1.910E-05
 
     Adding external electric field

     Computed dipole along edir(3) : 
        Dipole               -0.5305 Ry au,         -1.3485 Debye
        Dipole field         -0.0003 Ry au, 
 
        Potential amp.        0.0348 Ry
        Total length         54.7057 bohr
 
 
     Adding external electric field

     Computed dipole along edir(3) : 
        Dipole               -0.5305 Ry au,         -1.3485 Debye
        Dipole field         -0.0003 Ry au, 
 
        Potential amp.        0.0348 Ry
        Total length         54.7057 bohr
 

     total cpu time spent up to now is     1000.3 secs

     total energy              =   -8078.55864081 Ry
     estimated scf accuracy    <       0.04312137 Ry

     total magnetization       =    97.38 Bohr mag/cell
     absolute magnetization    =    98.52 Bohr mag/cell

     iteration # 58     ecut=    50.00 Ry     beta= 0.10
     Davidson diagonalization with overlap
     ethr =  3.60E-06,  avg # of iterations =  2.0

     negative rho (up, down):  6.411E-06 4.453E-06
 
     Adding external electric field

     Computed dipole along edir(3) : 
        Dipole               -0.5627 Ry au,         -1.4302 Debye
        Dipole field         -0.0003 Ry au, 
 
        Potential amp.        0.0369 Ry
[...]
    -5.9891  -5.9849  -5.9558  -5.9331  -5.8974  -5.8828  -5.8591  -5.8490
    -5.8190  -5.8111  -5.7973  -5.7637  -5.7563  -5.7405  -5.7129  -5.6821
    -5.6708  -5.6425  -5.6341  -5.6130  -5.5784  -5.5670  -5.5641  -5.5374
    -5.5193  -5.5162  -5.4818  -5.4720  -5.4662  -5.4590  -5.3929  -5.3758
    -5.3622  -5.3141  -5.3018  -5.2862  -5.2364  -5.2047  -5.1747  -5.1708
    -5.1505  -5.1032  -5.1015  -4.9996  -4.9643  -4.9602  -4.9506  -4.9159
    -4.8929  -4.8633  -4.8045  -4.7986  -4.7917  -4.7313  -4.7186  -4.7061
    -4.6574  -4.6042  -4.5820  -4.5661  -4.5099  -4.4702  -4.4637  -4.3939
    -4.3760  -4.3579  -4.3225  -4.2971  -4.2791  -4.2503  -4.2148  -4.1881
    -4.1356  -4.1098  -4.0955  -4.0556  -4.0452  -4.0130  -3.9989  -3.9617
    -3.8718  -3.8670  -3.8323  -3.8105  -3.8029  -3.7785  -3.7505  -3.7208
    -3.7112  -3.7044  -3.6745  -3.6190  -3.6105  -3.5905  -3.5802  -3.5723
    -3.5495  -3.5381  -3.5028  -3.4990  -3.4887  -3.4857  -3.4451  -3.4287
    -3.4111  -3.3977  -3.3967  -3.3717  -3.3318  -3.3249  -3.3112  -3.3003
    -3.2915  -3.2870  -3.2659  -3.2440  -3.2259  -3.1931  -3.1791  -3.1495
    -3.1374  -3.1029  -3.0560  -3.0348  -3.0278  -3.0179  -3.0042  -2.9837
    -2.9806  -2.9706  -2.9475  -2.9008  -2.8791  -2.8663  -2.8414  -2.8124
    -2.8010  -2.7817  -2.7253  -2.7123  -2.7000  -2.6935  -2.6788  -2.6615
    -2.6585  -2.6405  -2.6329  -2.6129  -2.5967  -2.5950  -2.5869  -2.5780
    -2.5581  -2.5495  -2.5306  -2.5204  -2.5001  -2.4911  -2.4819  -2.4458
    -2.4317  -2.4203  -2.3852  -2.3715  -2.3510  -2.3423  -2.3246  -2.3048
    -2.2874  -2.2849  -2.2670  -2.2566  -2.2199  -2.2091  -2.1898  -2.1840
    -2.1580  -2.1261  -2.1050  -2.0888  -2.0856  -2.0652  -2.0497  -2.0298
    -2.0174  -1.9916  -1.9785  -1.9592  -1.9341  -1.9167  -1.9100  -1.8832
    -1.8709  -1.8607  -1.8461  -1.8414  -1.8319  -1.7981  -1.7632  -1.7495
    -1.7393  -1.7185  -1.7026  -1.6910  -1.6700  -1.6513  -1.6028  -1.5924
    -1.5711  -1.5587  -1.5287  -1.5178  -1.4982  -1.4877  -1.4731  -1.4578
    -1.4360  -1.4332  -1.4108  -1.3813  -1.3738  -1.3526  -1.3231  -1.3048
    -1.2971  -1.2907  -1.2322  -1.2069  -1.1874  -1.1526  -1.1437  -1.1365
    -1.0791  -1.0708  -1.0010  -0.9738  -0.9433  -0.8221  -0.8129  -0.7709
    -0.7093  -0.6802  -0.6722  -0.4878  -0.3392  -0.2775  -0.2449  -0.1764
     0.1815   0.1929   0.2389   0.2499   0.2577   0.2663   0.2724   0.2995
     0.3367   0.3509   0.3811   0.3913   0.3945   0.3959   0.3981   0.4094
     0.4148   0.4233   0.4404   0.4452   0.4512   0.4623   0.4679   0.4715
     0.4736   0.4837   0.4925   0.5022   0.5125   0.5204   0.5265   0.5366
     0.5455   0.5513   0.5776   0.5829   0.5848   0.5868   0.5938   0.6049
     0.6149   0.6219   0.6356   0.6414   0.6493   0.6622   0.6694   0.6784
     0.6901   0.7035   0.7097   0.7165   0.7261   0.7331   0.7377   0.7525
     0.7630   0.7751   0.7910   0.7919   0.8072   0.8137   0.8166   0.8241
     0.8329   0.8476   0.8625   0.8668   0.8774   0.8880   0.9091   0.9423
     0.9517   0.9937   1.0052   1.0249   1.0348   1.1020   1.1681   1.2182
     1.7015   1.7686   1.7796   1.7867   1.8119   1.8169   1.8406   1.8618
     1.8899   1.9026   1.9191   1.9286   1.9568   1.9762   2.0146   2.0444
     2.0521   2.0682   2.0904   2.0945   2.1197   2.1257   2.1452   2.1652
     2.1857   2.1994   2.2112   2.2356   2.2414   2.2804   2.2939   2.3052
     2.3344   2.3368   2.3463   2.3624   2.3810   2.3853   2.4182   2.4335
     2.4560   2.4729   2.4840   2.5279   2.5352   2.5462   2.5794   2.6062
     2.6462   2.6541   2.7569   2.7814   2.8174   2.8371   2.8935   3.4941
     3.5701   3.6742   3.7190   3.7429   3.7687   3.7891   3.7941   3.9140
     3.9236   3.9499   3.9767   3.9873   3.9909   3.9986   4.0015   4.0546
     4.0622   4.0809   4.0881   4.1216   4.1502   4.1605   4.2060   4.2246
     4.2343   4.2427   4.2489   4.2671   4.3130   4.6035   4.6955   4.7801
     4.8088   4.8620   4.8949   4.9137   4.9766   4.9977   5.0234   5.0703
     5.1028   5.1084   5.1416   5.1766   5.2200   5.2319   5.3823   6.2063
     6.3400   6.4470   6.5307   6.6855   6.7083   6.7776   6.8457   6.8998
     6.9367   6.9891   7.0089   7.0544   7.2461   7.2937   7.3104   7.3688
     7.4092   7.4221   7.5101   7.5184   7.5608   7.6567   7.7021   7.7582
     7.8246   7.8394   7.9125   7.9328   7.9459   8.0059   8.0209   8.0699
     8.0816   8.1072   8.1212   8.1407   8.1744   8.2497   8.2784   8.2927
     8.3257   8.3467   8.3757   8.3863   8.3935   8.4274   8.4417   8.4493
     8.4677   8.4976   8.5053   8.5523   8.5704   8.6035   8.6122   8.6332
     8.6751

     the Fermi energy is     1.6933 ev

!    total energy              =   -8078.55364800 Ry
     estimated scf accuracy    <       0.00000092 Ry
     smearing contrib. (-TS)   =      -0.02584818 Ry
     internal energy E=F+TS    =   -8078.52779983 Ry

     The total energy is F=E-TS. E is the sum of the following terms:
     one-electron contribution =  -94603.52341750 Ry
     hartree contribution      =   47886.36109381 Ry
     xc contribution           =   -2177.38550483 Ry
     ewald contribution        =   40817.78829634 Ry
     Dispersion Correction     =      -1.76832054 Ry
     electric field correction =       0.00005290 Ry

     total magnetization       =    97.20 Bohr mag/cell
     absolute magnetization    =    98.40 Bohr mag/cell

     convergence has been achieved in 109 iterations

     negative rho (up, down):  1.156E-03 6.234E-04

     Forces acting on atoms (cartesian axes, Ry/au):

     atom    1 type  1   force =     0.00083639   -0.00172198   -0.00084986
     atom    2 type  1   force =     0.00003900    0.00005519   -0.00045224
     atom    3 type  2   force =    -0.00026032    0.00100273   -0.00033621
     atom    4 type  1   force =    -0.00016851    0.00025054    0.00007140
     atom    5 type  1   force =     0.00002739    0.00024509   -0.00011336
     atom    6 type  1   force =    -0.00039042    0.00036647   -0.00004282
     atom    7 type  1   force =    -0.00072343    0.00029125   -0.00016220
     atom    8 type  2   force =     0.00038243    0.00022717   -0.00019079
     atom    9 type  2   force =     0.00013679    0.00012879    0.00006318
     atom   10 type  1   force =    -0.00020144    0.00003590    0.00031231
     atom   11 type  1   force =     0.00115164   -0.00030283   -0.00041517
     atom   12 type  1   force =    -0.00065520   -0.00009084    0.00019129
     atom   13 type  3   force =     0.00010270    0.00000497    0.00003680
     atom   14 type  3   force =    -0.00023548   -0.00047138    0.00015390
     atom   15 type  3   force =    -0.00029709    0.00029869    0.00038781
     atom   16 type  3   force =     0.00009689    0.00012811    0.00001547
     atom   17 type  4   force =    -0.00011290    0.00010506    0.00024895
     atom   18 type  4   force =    -0.00043767   -0.00045338   -0.00026582
     atom   19 type  4   force =    -0.00035557   -0.00017868   -0.00082283
     atom   20 type  4   force =     0.00010861   -0.00036411   -0.00011453
     atom   21 type  4   force =     0.00003260    0.00007135   -0.00010394
     atom   22 type  4   force =    -0.00046770    0.00048591    0.00069321
     atom   23 type  4   force =     0.00040756    0.00012181    0.00073997
     atom   24 type  4   force =     0.00003244    0.00014492   -0.00002582
     atom   25 type  4   force =     0.00030945    0.00033441    0.00011187
     atom   26 type  4   force =    -0.00006126   -0.00036624    0.00024075
     atom   27 type  4   force =    -0.00009045   -0.00005552    0.00027013
     atom   28 type  4   force =    -0.00053619   -0.00068882   -0.00028553
     atom   29 type  4   force =     0.00028018   -0.00037869   -0.00006073
     atom   30 type  4   force =    -0.00025610   -0.00048839   -0.00039575
     atom   31 type  4   force =    -0.00019267    0.00022765    0.00034206
     atom   32 type  4   force =     0.00006399    0.00031834    0.00007679
     atom   33 type  3   force =    -0.00045358    0.00013537    0.00005071
     atom   34 type  3   force =     0.00014966   -0.00018436    0.00019916
     atom   35 type  3   force =    -0.00092015   -0.00043368   -0.00002451
     atom   36 type  3   force =    -0.00013179   -0.00009929    0.00011975
     atom   37 type  4   force =    -0.00024378    0.00010717    0.00031311
     atom   38 type  4   force =    -0.00044464   -0.00042055   -0.00035192
     atom   39 type  4   force =     0.00008568   -0.00047835   -0.00008730
     atom   40 type  4   force =     0.00005052   -0.00038310    0.00015853
     atom   41 type  4   force =    -0.00011973    0.00015156    0.00011773
     atom   42 type  4   force =    -0.00058271    0.00047262   -0.00018117
     atom   43 type  4   force =     0.00089622    0.00061104    0.00057601
     atom   44 type  4   force =    -0.00024037    0.00005968    0.00017030
     atom   45 type  4   force =     0.00013649    0.00029376   -0.00008666
     atom   46 type  4   force =    -0.00002180   -0.00022902   -0.00008388
     atom   47 type  4   force =    -0.00018870   -0.00026025   -0.00016110
     atom   48 type  4   force =    -0.00031084   -0.00007294   -0.00001474
     atom   49 type  4   force =    -0.00014765    0.00020667    0.00019545
     atom   50 type  4   force =    -0.00029203   -0.00083194   -0.00010672
     atom   51 type  4   force =    -0.00026329    0.00019997    0.00018191
     atom   52 type  4   force =     0.00013420    0.00041757    0.00001298
     atom   53 type  1   force =    -0.00039459    0.00090587    0.00277376
     atom   54 type  1   force =     0.00078454    0.00045903   -0.00158756
     atom   55 type  2   force =     0.00164211    0.00131861    0.00574725
     atom   56 type  1   force =    -0.00062492   -0.00112184   -0.00131252
     atom   57 type  1   force =     0.00047797   -0.00008907   -0.00017742
     atom   58 type  1   force =    -0.00001414    0.00039198    0.00004084
     atom   59 type  1   force =     0.00211382   -0.00107251   -0.00115331
     atom   60 type  2   force =     0.00003364    0.00016423   -0.00202725
     atom   61 type  2   force =     0.00050219    0.00101216    0.00425080
     atom   62 type  1   force =    -0.00042882   -0.00076259   -0.00153108
     atom   63 type  1   force =    -0.00040335    0.00003657   -0.00022228
     atom   64 type  1   force =     0.00008333    0.00013297    0.00016131
     atom   65 type  3   force =    -0.00021099   -0.00102611   -0.00204707
     atom   66 type  3   force =    -0.00029351    0.00039096    0.00119957
     atom   67 type  3   force =    -0.00019898   -0.00151850    0.00165516
     atom   68 type  3   force =    -0.00070862    0.00083132   -0.00089267
     atom   69 type  4   force =    -0.00073082    0.00036675    0.00072895
     atom   70 type  4   force =     0.00057950   -0.00071650   -0.00109725
     atom   71 type  4   force =     0.00046920    0.00054606   -0.00034376
     atom   72 type  4   force =     0.00025711   -0.00051477    0.00167919
     atom   73 type  4   force =    -0.00077730    0.00070158    0.00174021
     atom   74 type  4   force =     0.00146746   -0.00265407   -0.00225986
     atom   75 type  4   force =    -0.00169786    0.00066859    0.00010806
     atom   76 type  4   force =     0.00010385   -0.00071177    0.00146325
     atom   77 type  4   force =    -0.00046024   -0.00008515    0.00061568
     atom   78 type  4   force =    -0.00095961    0.00060669   -0.00010196
     atom   79 type  4   force =     0.00025589    0.00025773    0.00065620
     atom   80 type  4   force =     0.00012653    0.00101999   -0.00019388
     atom   81 type  4   force =    -0.00037732   -0.00155347   -0.00100002
     atom   82 type  4   force =     0.00098109   -0.00153038    0.00082417
     atom   83 type  4   force =    -0.00007390    0.00078368    0.00040325
     atom   84 type  4   force =    -0.00054873    0.00027758    0.00057283
     atom   85 type  3   force =    -0.00027065   -0.00090048   -0.00257927
     atom   86 type  3   force =     0.00079283    0.00183762    0.00366672
     atom   87 type  3   force =    -0.00052410   -0.00062243   -0.00022241
     atom   88 type  3   force =    -0.00068211    0.00085978   -0.00074923
     atom   89 type  4   force =    -0.00013075   -0.00018435    0.00049888
     atom   90 type  4   force =    -0.00054438   -0.00037001   -0.00124992
     atom   91 type  4   force =     0.00034468    0.00030318   -0.00033835
     atom   92 type  4   force =     0.00039276   -0.00041910    0.00121673
     atom   93 type  4   force =    -0.00005862    0.00117091    0.00104540
     atom   94 type  4   force =     0.00171442    0.00076906    0.00325217
     atom   95 type  4   force =    -0.00029683    0.00004731   -0.00011691
     atom   96 type  4   force =    -0.00020714   -0.00026842    0.00115350
     atom   97 type  4   force =    -0.00001447   -0.00058648    0.00075386
     atom   98 type  4   force =    -0.00036930    0.00048656   -0.00004492
     atom   99 type  4   force =     0.00058654   -0.00009816    0.00075798
     atom  100 type  4   force =     0.00069516    0.00069457   -0.00023285
     atom  101 type  4   force =    -0.00021503   -0.00082843   -0.00071306
     atom  102 type  4   force =     0.00135160   -0.00188304    0.00043231
     atom  103 type  4   force =     0.00041225    0.00030479    0.00031201
     atom  104 type  4   force =    -0.00002886   -0.00055007   -0.00009437
     atom  105 type  1   force =    -0.00083016    0.00202505   -0.00688034
     atom  106 type  1   force =     0.02821451    0.01368666    0.02182468
     atom  107 type  2   force =     0.00166360    0.00027364   -0.01076935
     atom  108 type  1   force =    -0.03102931    0.02294828    0.01664896
     atom  109 type  1   force =     0.00410705   -0.00300004   -0.00363787
     atom  110 type  1   force =    -0.00133082   -0.00636537   -0.00567983
     atom  111 type  1   force =    -0.00364583    0.00231093   -0.00617567
     atom  112 type  2   force =     0.03235194    0.01658772   -0.01050995
     atom  113 type  2   force =     0.00143577    0.00103249   -0.01039294
     atom  114 type  1   force =    -0.03186088    0.02423313    0.01755969
     atom  115 type  1   force =     0.00352895   -0.00481183   -0.00459925
     atom  116 type  1   force =    -0.00483021   -0.00801033   -0.00683073
     atom  117 type  3   force =    -0.02899088   -0.03569541   -0.06270719
     atom  118 type  3   force =     0.00317891    0.00037099   -0.00687618
     atom  119 type  3   force =     0.00071827   -0.00066875   -0.00907506
     atom  120 type  3   force =     0.02796663   -0.05775500   -0.08368167
     atom  121 type  4   force =    -0.00647720   -0.00314723    0.03039459
     atom  122 type  4   force =    -0.00139943   -0.00117929    0.00268511
     atom  123 type  4   force =     0.00153633   -0.00106806    0.00491867
     atom  124 type  4   force =     0.00352054    0.00319468    0.03393986
     atom  125 type  4   force =    -0.00221963   -0.00215223    0.03437374
     atom  126 type  4   force =    -0.00083755    0.00066396    0.00295973
     atom  127 type  4   force =     0.00217776    0.00311818    0.00431171
     atom  128 type  4   force =    -0.00320690   -0.00159967    0.02256790
     atom  129 type  4   force =    -0.01256677    0.03625298    0.00500274
     atom  130 type  4   force =    -0.00152855    0.00040783    0.00233200
     atom  131 type  4   force =    -0.01929283    0.00357160    0.00996700
     atom  132 type  4   force =    -0.00101296    0.00352692    0.00432813
     atom  133 type  4   force =    -0.00299780    0.00064707    0.00239396
     atom  134 type  4   force =     0.00149118   -0.00430245    0.00351243
     atom  135 type  4   force =     0.01388333    0.02343697   -0.00086340
     atom  136 type  4   force =     0.01303745   -0.00066582    0.00242734
     atom  137 type  3   force =    -0.03818559   -0.04126730   -0.06613351
     atom  138 type  3   force =     0.00647477   -0.00302101   -0.00132048
     atom  139 type  3   force =     0.00029590   -0.00157436   -0.00933520
     atom  140 type  3   force =     0.02904926   -0.05118272   -0.08324730
     atom  141 type  4   force =    -0.00098028    0.00280383    0.02926225
     atom  142 type  4   force =     0.00050438    0.00231961   -0.00620646
     atom  143 type  4   force =     0.00159213   -0.00091848    0.00430730
     atom  144 type  4   force =     0.00418324    0.00187355    0.03454534
     atom  145 type  4   force =     0.00904090    0.00397535    0.03155161
     atom  146 type  4   force =    -0.00030363    0.00053496    0.00169452
     atom  147 type  4   force =     0.00269588    0.00343618    0.00397335
     atom  148 type  4   force =    -0.00400353   -0.00125463    0.02249631
     atom  149 type  4   force =    -0.01004063    0.03002971    0.00429470
     atom  150 type  4   force =    -0.00194690    0.00048140    0.00277725
     atom  151 type  4   force =    -0.01837222    0.00503841    0.00992699
     atom  152 type  4   force =    -0.00078433    0.00344690    0.00431667
     atom  153 type  4   force =    -0.00138043    0.00026993    0.00296218
     atom  154 type  4   force =     0.00214462   -0.00247287    0.00282043
     atom  155 type  4   force =     0.01483462    0.02446744    0.00020384
     atom  156 type  4   force =     0.02220190   -0.00369072    0.00146460
     atom  157 type  4   force =     0.00623054    0.00848333   -0.00080381
     atom  158 type  5   force =    -0.00758502   -0.00546990    0.00124373

     Total force =     0.237984     Total SCF correction =     0.004458
 
     init_run     :      9.62s CPU     10.40s WALL (       1 calls)
     electrons    :   1739.24s CPU   1818.06s WALL (       1 calls)
     forces       :      4.59s CPU      4.98s WALL (       1 calls)
     force_london :      0.11s CPU      0.11s WALL (       1 calls)

     Called by init_run:
     wfcinit      :      5.80s CPU      6.01s WALL (       1 calls)
     potinit      :      0.59s CPU      0.79s WALL (       1 calls)
     hinit0       :      1.65s CPU      1.80s WALL (       1 calls)

     Called by electrons:
     c_bands      :   1367.50s CPU   1409.05s WALL (     109 calls)
     sum_band     :    236.18s CPU    255.87s WALL (     109 calls)
     v_of_rho     :     32.72s CPU     34.19s WALL (     110 calls)
     newd         :     64.71s CPU     80.55s WALL (     110 calls)
     mix_rho      :     36.24s CPU     36.42s WALL (     109 calls)
     energy_londo :      0.11s CPU      0.11s WALL (       1 calls)

     Called by c_bands:
     init_us_2    :      4.00s CPU      4.11s WALL (     440 calls)
     init_us_2:cp :      3.99s CPU      4.11s WALL (     440 calls)
     regterg      :   1340.74s CPU   1381.85s WALL (     221 calls)

     Called by *egterg:
     rdiaghg      :    354.50s CPU    374.56s WALL (     841 calls)
     h_psi        :    548.22s CPU    557.85s WALL (     843 calls)
     s_psi        :     89.80s CPU     89.85s WALL (     843 calls)
     g_psi        :      0.65s CPU      0.65s WALL (     620 calls)

     Called by h_psi:
     h_psi:calbec :    127.02s CPU    134.68s WALL (     843 calls)
     vloc_psi     :    329.26s CPU    330.33s WALL (     843 calls)
     add_vuspsi   :     90.62s CPU     91.50s WALL (     843 calls)

     General routines
     calbec       :    188.77s CPU    200.06s WALL (    1069 calls)
     fft          :     35.74s CPU     38.02s WALL (    1993 calls)
     ffts         :     22.44s CPU     22.48s WALL (   13613 calls)
     fftw         :    375.65s CPU    376.80s WALL (  374544 calls)
     interpolate  :      2.24s CPU      2.58s WALL (     220 calls)
 
     Parallel routines
 
     PWSCF        :  29m15.75s CPU  30m36.31s WALL

 
   This run was terminated on:  22:33:42  17Nov2025            

=------------------------------------------------------------------------------=
   JOB DONE.
=------------------------------------------------------------------------------=
