
     Program PWSCF v.7.2 starts on 17Nov2025 at 21:16:10 

     This program is part of the open-source Quantum ESPRESSO suite
     for quantum simulation of materials; please cite
         "P. Giannozzi et al., J. Phys.:Condens. Matter 21 395502 (2009);
         "P. Giannozzi et al., J. Phys.:Condens. Matter 29 465901 (2017);
         "P. Giannozzi et al., J. Chem. Phys. 152 154105 (2020);
          URL http://www.quantum-espresso.org", 
     in publications or presentations arising from this work. More details at
     http://www.quantum-espresso.org/quote

     Parallel version (MPI), running on    64 processors

     MPI processes distributed on     4 nodes
     379763 MiB available memory on the printing compute node when the environment starts
 
     Reading input from PWINPUT_atm157_xm

     Current dimensions of program PWSCF are:
     Max number of different atomic species (ntypx) = 10
     Max number of k-points (npk) =  40000
     Max angular momentum in pseudopotentials (lmaxx) =  4
     Presently no symmetry can be used with electric field

     file Ni.pbe-n-rrkjus_psl.1.0.0.UPF: wavefunction(s)  3D renormalized
     file Mn.pbe-spn-rrkjus_psl.0.3.1.UPF: wavefunction(s)  3D renormalized
     file O.pbe-rrkjus.UPF: wavefunction(s)  2S renormalized
     file H.pbe-rrkjus.UPF: wavefunction(s)  1S renormalized

     gamma-point specific algorithms are used
 
     R & G space division:  proc/nbgrp/npool/nimage =      64
     Subspace diagonalization in iterative solution of the eigenvalue problem:
     one sub-group per band group will be used
     custom distributed-memory algorithm (size of sub-group:  7*  7 procs)

 
     Parallelization info
     --------------------
     sticks:   dense  smooth     PW     G-vecs:    dense   smooth      PW
     Min         214      85     20                61830    15614    1928
     Max         216      86     22                61864    15658    1982
     Sum       13727    5503   1375              3958051  1001255  125211
 
     Using Slab Decomposition
 


     bravais-lattice index     =            0
     lattice parameter (alat)  =      17.8532  a.u.
     unit-cell volume          =   20962.6682 (a.u.)^3
     number of atoms/cell      =          158
     number of atomic types    =            5
     number of electrons       =      1108.00
     number of Kohn-Sham states=          665
     kinetic-energy cutoff     =      50.0000  Ry
     charge density cutoff     =     500.0000  Ry
     scf convergence threshold =      1.0E-06
     mixing beta               =       0.1000
     number of iterations used =            8  local-TF  mixing
     Exchange-correlation=  SLA  PW   PBE  PBE
                           (   1   4   3   4   0   0   0)

     celldm(1)=  17.853155  celldm(2)=   0.000000  celldm(3)=   0.000000
     celldm(4)=   0.000000  celldm(5)=   0.000000  celldm(6)=   0.000000

     crystal axes: (cart. coord. in units of alat)
               a(1) = (   1.000000   0.000000   0.000000 )  
               a(2) = (   0.003237   1.081997   0.000000 )  
               a(3) = (   0.000000   0.000000   3.404673 )  

     reciprocal axes: (cart. coord. in units 2 pi/alat)
               b(1) = (  1.000000 -0.002992  0.000000 )  
               b(2) = (  0.000000  0.924217  0.000000 )  
               b(3) = (  0.000000  0.000000  0.293714 )  


     PseudoPot. # 1 for Ni read from file:
     ~/PSEUDO/Ni.pbe-n-rrkjus_psl.1.0.0.UPF
     MD5 check sum: Not computed, couldn't open file
     Pseudo is Ultrasoft + core correction, Zval = 10.0
     Generated using "atomic" code by A. Dal Corso  v.5.1.2
     Using radial grid of 1195 points,  6 beta functions with: 
                l(1) =   0
                l(2) =   0
                l(3) =   1
                l(4) =   1
                l(5) =   2
                l(6) =   2
     Q(r) pseudized with 0 coefficients 


     PseudoPot. # 2 for Mn read from file:
     ~/PSEUDO/Mn.pbe-spn-rrkjus_psl.0.3.1.UPF
     MD5 check sum: Not computed, couldn't open file
     Pseudo is Ultrasoft + core correction, Zval = 15.0
     Generated using &quot;atomic&quot; code by A. Dal Corso  v.6.2.2
     Using radial grid of 1187 points,  6 beta functions with: 
                l(1) =   0
                l(2) =   0
                l(3) =   1
                l(4) =   1
                l(5) =   2
                l(6) =   2
     Q(r) pseudized with 0 coefficients 


     PseudoPot. # 3 for P  read from file:
     ~/PSEUDO/P.pbe-n-rrkjus_psl.1.0.0.UPF
     MD5 check sum: Not computed, couldn't open file
     Pseudo is Ultrasoft + core correction, Zval =  5.0
     Generated using "atomic" code by A. Dal Corso  v.5.1
     Using radial grid of 1147 points,  6 beta functions with: 
                l(1) =   0
                l(2) =   0
                l(3) =   1
                l(4) =   1
                l(5) =   2
                l(6) =   2
     Q(r) pseudized with 0 coefficients 


     PseudoPot. # 4 for O  read from file:
     ~/PSEUDO/O.pbe-rrkjus.UPF
     MD5 check sum: Not computed, couldn't open file
     Pseudo is Ultrasoft, Zval =  6.0
     Generated by new atomic code, or converted to UPF format
     Using radial grid of 1269 points,  4 beta functions with: 
                l(1) =   0
                l(2) =   0
                l(3) =   1
                l(4) =   1
     Q(r) pseudized with 0 coefficients 


     PseudoPot. # 5 for H  read from file:
     ~/PSEUDO/H.pbe-rrkjus.UPF
     MD5 check sum: Not computed, couldn't open file
     Pseudo is Ultrasoft, Zval =  1.0
     Generated by new atomic code, or converted to UPF format
     Using radial grid of 1061 points,  2 beta functions with: 
                l(1) =   0
                l(2) =   0
     Q(r) pseudized with 0 coefficients 


     atomic species   valence    mass     pseudopotential
     Ni               10.00    58.69300     Ni( 1.00)
     Mn               15.00    54.93800     Mn( 1.00)
     P                 5.00    30.97300     P ( 1.00)
     O                 6.00    15.99900     O ( 1.00)
     H                 1.00     1.00790     H ( 1.00)

     Starting magnetic structure 
     atomic species   magnetization
     Ni              1.000
     Mn              1.000
     P               1.000
     O               1.000
     H               0.000

     No symmetry found



   Cartesian axes

     site n.     atom                  positions (alat units)
         1        Ni     tau(   1) = (   0.2422259   0.8412654   1.7135021  )
         2        Ni     tau(   2) = (   0.4939939   0.7703882   1.3745235  )
         3        Mn     tau(   3) = (   0.0000622   0.2881594   1.6998608  )
         4        Ni     tau(   4) = (   0.2575438   0.2247311   1.3772755  )
         5        Ni     tau(   5) = (   1.0001613   1.0688286   1.5379356  )
         6        Ni     tau(   6) = (   0.2547438   0.5337506   1.5423852  )
         7        Ni     tau(   7) = (   0.7513156   0.8294534   1.6816756  )
         8        Mn     tau(   8) = (   0.9892084   0.7665403   1.3736225  )
         9        Mn     tau(   9) = (   0.4989277   0.2948958   1.6996914  )
        10        Ni     tau(  10) = (   0.7551301   0.2242805   1.3768936  )
        11        Ni     tau(  11) = (   0.4972159   1.0711780   1.5373138  )
        12        Ni     tau(  12) = (   0.7540948   0.5300080   1.5408646  )
        13        P      tau(  13) = (   0.2134946   0.9657767   1.3822356  )
        14        P      tau(  14) = (   0.4661089   0.6500297   1.6909232  )
        15        P      tau(  15) = (   0.2845404   0.0987020   1.6930817  )
        16        P      tau(  16) = (   0.0413508   0.4217554   1.3879311  )
        17        O      tau(  17) = (   0.1375837   0.8978226   1.5176406  )
        18        O      tau(  18) = (   0.3887107   0.7011557   1.5470611  )
        19        O      tau(  19) = (   0.3618628   0.1611333   1.5509837  )
        20        O      tau(  20) = (   0.1189827   0.3568247   1.5240423  )
        21        O      tau(  21) = (   0.1540234   0.8767886   1.2572786  )
        22        O      tau(  22) = (   0.4110393   0.7496192   1.8050939  )
        23        O      tau(  23) = (   0.3377663   0.1986516   1.8089954  )
        24        O      tau(  24) = (   0.0997683   0.3312674   1.2645563  )
        25        O      tau(  25) = (   0.0989528   0.5758934   1.3854866  )
        26        O      tau(  26) = (   0.3497729   1.0280907   1.6930286  )
        27        O      tau(  27) = (   0.3790282   0.4183038   1.3960614  )
        28        O      tau(  28) = (   0.1208846   0.1037110   1.6793767  )
        29        O      tau(  29) = (   0.1286718   0.6449077   1.6890912  )
        30        O      tau(  30) = (   0.4112377   0.4929637   1.7009712  )
        31        O      tau(  31) = (   0.1495635   0.0377931   1.3821793  )
        32        O      tau(  32) = (   0.3765682   0.9602194   1.3906658  )
        33        P      tau(  33) = (   0.7075432   0.9666523   1.3784783  )
        34        P      tau(  34) = (   0.9652203   0.6409374   1.7033271  )
        35        P      tau(  35) = (   0.7832453   0.0931683   1.6926874  )
        36        P      tau(  36) = (   0.5417589   0.4270160   1.3849132  )
        37        O      tau(  37) = (   0.6313395   0.8958630   1.5135851  )
        38        O      tau(  38) = (   0.8885617   0.6990470   1.5595003  )
        39        O      tau(  39) = (   0.8598518   0.1543399   1.5504633  )
        40        O      tau(  40) = (   0.6193560   0.3582236   1.5201696  )
        41        O      tau(  41) = (   0.6486466   0.8777050   1.2536013  )
        42        O      tau(  42) = (   0.9019443   0.7356849   1.8178004  )
        43        O      tau(  43) = (   0.8422733   0.1897880   1.8089519  )
        44        O      tau(  44) = (   0.6013153   0.3355234   1.2622316  )
        45        O      tau(  45) = (   0.6019813   0.5803347   1.3826084  )
        46        O      tau(  46) = (   0.8418205   1.0195119   1.6947938  )
        47        O      tau(  47) = (   0.8784115   0.4141755   1.3983387  )
        48        O      tau(  48) = (   0.6198107   0.1022917   1.6830133  )
        49        O      tau(  49) = (   0.6307259   0.6490344   1.6799765  )
        50        O      tau(  50) = (   0.9102631   0.4838853   1.7042751  )
        51        O      tau(  51) = (   0.6452681   0.0385369   1.3812216  )
        52        O      tau(  52) = (   0.8702745   0.9586382   1.3915595  )
        53        Ni     tau(  53) = (   0.2420320   0.8169913   1.0699082  )
        54        Ni     tau(  54) = (   0.4893084   0.7542727   0.7477128  )
        55        Mn     tau(  55) = (   0.0085152   0.2729728   1.0755565  )
        56        Ni     tau(  56) = (   0.2558246   0.2079345   0.7498450  )
        57        Ni     tau(  57) = (   0.9991959   1.0516583   0.9080455  )
        58        Ni     tau(  58) = (   0.2490231   0.5149840   0.9092594  )
        59        Ni     tau(  59) = (   0.7373131   0.8159965   1.0690453  )
        60        Mn     tau(  60) = (   0.9859093   0.7511625   0.7423903  )
        61        Mn     tau(  61) = (   0.5085552   0.2755447   1.0757185  )
        62        Ni     tau(  62) = (   0.7532989   0.2074622   0.7493279  )
        63        Ni     tau(  63) = (   0.4981517   1.0523018   0.9093468  )
        64        Ni     tau(  64) = (   0.7469109   0.5147379   0.9081681  )
        65        P      tau(  65) = (   0.2119924   0.9497675   0.7533413  )
        66        P      tau(  66) = (   0.4579509   0.6252695   1.0650744  )
        67        P      tau(  67) = (   0.2855349   0.0724244   1.0650326  )
        68        P      tau(  68) = (   0.0381112   0.4032615   0.7561117  )
        69        O      tau(  69) = (   0.1352995   0.8818598   0.8892857  )
        70        O      tau(  70) = (   0.3789570   0.6924463   0.9291468  )
        71        O      tau(  71) = (   0.3610496   0.1419327   0.9291660  )
        72        O      tau(  72) = (   0.1179700   0.3356534   0.8894858  )
        73        O      tau(  73) = (   0.1524325   0.8608343   0.6290918  )
        74        O      tau(  74) = (   0.3994952   0.7128748   1.1905493  )
        75        O      tau(  75) = (   0.3426976   0.1634744   1.1889742  )
        76        O      tau(  76) = (   0.0989151   0.3155758   0.6321220  )
        77        O      tau(  77) = (   0.0942206   0.5581494   0.7569623  )
        78        O      tau(  78) = (   0.3506297   1.0014456   1.0645371  )
        79        O      tau(  79) = (   0.3750155   0.3983181   0.7655049  )
        80        O      tau(  80) = (   0.1228303   0.0764842   1.0543924  )
        81        O      tau(  81) = (   0.1204299   0.6293201   1.0530905  )
        82        O      tau(  82) = (   0.4000664   0.4708612   1.0626359  )
        83        O      tau(  83) = (   0.1483182   0.0216333   0.7546099  )
        84        O      tau(  84) = (   0.3748687   0.9435072   0.7627918  )
        85        P      tau(  85) = (   0.7056901   0.9492898   0.7521526  )
        86        P      tau(  86) = (   0.9575286   0.6220438   1.0623609  )
        87        P      tau(  87) = (   0.7847866   0.0710549   1.0641979  )
        88        P      tau(  88) = (   0.5377283   0.4083400   0.7551622  )
        89        O      tau(  89) = (   0.6295714   0.8788409   0.8879407  )
        90        O      tau(  90) = (   0.8781778   0.6902700   0.9288966  )
        91        O      tau(  91) = (   0.8603186   0.1398018   0.9279591  )
        92        O      tau(  92) = (   0.6174712   0.3389159   0.8881839  )
        93        O      tau(  93) = (   0.6471291   0.8583376   0.6285166  )
        94        O      tau(  94) = (   0.8962302   0.7094244   1.1861651  )
        95        O      tau(  95) = (   0.8420493   0.1616933   1.1885419  )
        96        O      tau(  96) = (   0.5995227   0.3203391   0.6315608  )
        97        O      tau(  97) = (   0.5932354   0.5636910   0.7569738  )
        98        O      tau(  98) = (   0.8487155   0.9994995   1.0634446  )
        99        O      tau(  99) = (   0.8751772   0.3959680   0.7655094  )
       100        O      tau( 100) = (   0.6223291   0.0767949   1.0539182  )
       101        O      tau( 101) = (   0.6209785   0.6292365   1.0537708  )
       102        O      tau( 102) = (   0.9010178   0.4674118   1.0608723  )
       103        O      tau( 103) = (   0.6430869   0.0213354   0.7538098  )
       104        O      tau( 104) = (   0.8684566   0.9446034   0.7630440  )
       105        Ni     tau( 105) = (   0.2392451   0.7980692   0.4424501  )
       106        Ni     tau( 106) = (   0.4865215   0.7353506   0.1202547  )
       107        Mn     tau( 107) = (   0.0057284   0.2540508   0.4480984  )
       108        Ni     tau( 108) = (   0.2530377   0.1890124   0.1223869  )
       109        Ni     tau( 109) = (   0.9964090   1.0327362   0.2805874  )
       110        Ni     tau( 110) = (   0.2462362   0.4960619   0.2818013  )
       111        Ni     tau( 111) = (   0.7345262   0.7970744   0.4415872  )
       112        Mn     tau( 112) = (   0.9831224   0.7322404   0.1149322  )
       113        Mn     tau( 113) = (   0.5057684   0.2566226   0.4482604  )
       114        Ni     tau( 114) = (   0.7505120   0.1885401   0.1218698  )
       115        Ni     tau( 115) = (   0.4953648   1.0333797   0.2818887  )
       116        Ni     tau( 116) = (   0.7441241   0.4958159   0.2807100  )
       117        P      tau( 117) = (   0.2092055   0.9308455   0.1258832  )
       118        P      tau( 118) = (   0.4551640   0.6063475   0.4376163  )
       119        P      tau( 119) = (   0.2827481   0.0535023   0.4375745  )
       120        P      tau( 120) = (   0.0353243   0.3843395   0.1286536  )
       121        O      tau( 121) = (   0.1325127   0.8629378   0.2618276  )
       122        O      tau( 122) = (   0.3761702   0.6735242   0.3016887  )
       123        O      tau( 123) = (   0.3582627   0.1230106   0.3017079  )
       124        O      tau( 124) = (   0.1151831   0.3167313   0.2620277  )
       125        O      tau( 125) = (   0.1496456   0.8419122   0.0016337  )
       126        O      tau( 126) = (   0.3967083   0.6939527   0.5630912  )
       127        O      tau( 127) = (   0.3399107   0.1445523   0.5615161  )
       128        O      tau( 128) = (   0.0961282   0.2966537   0.0046639  )
       129        O      tau( 129) = (   0.0914337   0.5392273   0.1295042  )
       130        O      tau( 130) = (   0.3478428   0.9825235   0.4370790  )
       131        O      tau( 131) = (   0.3722287   0.3793961   0.1380469  )
       132        O      tau( 132) = (   0.1200434   0.0575621   0.4269343  )
       133        O      tau( 133) = (   0.1176431   0.6103980   0.4256324  )
       134        O      tau( 134) = (   0.3972796   0.4519391   0.4351778  )
       135        O      tau( 135) = (   0.1455313   0.0027113   0.1271518  )
       136        O      tau( 136) = (   0.3720819   0.9245852   0.1353338  )
       137        P      tau( 137) = (   0.7029032   0.9303678   0.1246945  )
       138        P      tau( 138) = (   0.9547417   0.6031217   0.4349028  )
       139        P      tau( 139) = (   0.7819997   0.0521328   0.4367398  )
       140        P      tau( 140) = (   0.5349415   0.3894179   0.1277041  )
       141        O      tau( 141) = (   0.6267846   0.8599188   0.2604826  )
       142        O      tau( 142) = (   0.8753909   0.6713480   0.3014385  )
       143        O      tau( 143) = (   0.8575317   0.1208797   0.3005010  )
       144        O      tau( 144) = (   0.6146843   0.3199938   0.2607258  )
       145        O      tau( 145) = (   0.6443422   0.8394155   0.0010585  )
       146        O      tau( 146) = (   0.8934434   0.6905023   0.5587070  )
       147        O      tau( 147) = (   0.8392624   0.1427713   0.5610838  )
       148        O      tau( 148) = (   0.5967359   0.3014171   0.0041027  )
       149        O      tau( 149) = (   0.5904485   0.5447689   0.1295157  )
       150        O      tau( 150) = (   0.8459286   0.9805774   0.4359865  )
       151        O      tau( 151) = (   0.8723903   0.3770459   0.1380513  )
       152        O      tau( 152) = (   0.6195422   0.0578729   0.4264602  )
       153        O      tau( 153) = (   0.6181917   0.6103144   0.4263127  )
       154        O      tau( 154) = (   0.8982309   0.4484897   0.4334142  )
       155        O      tau( 155) = (   0.6403000   0.0024133   0.1263517  )
       156        O      tau( 156) = (   0.8656697   0.9256814   0.1355859  )
       157        O      tau( 157) = (   1.1298500   0.9213103   1.8489698  )
       158        H      tau( 158) = (   1.0479508   0.8617503   1.8725428  )

     -------------------------------------------------
     Parameters for Dispersion (Grimme-D2) Correction:
     -------------------------------------------------
       atom      VdW radius       C_6     

        Ni         2.952        374.666
        Mn         2.952        374.666
        P          3.222        271.980
        O          2.536         24.284
        H          1.892          4.857

     number of k points=     1  Gaussian smearing, width (Ry)=  0.0100
                       cart. coord. in units 2pi/alat
        k(    1) = (   0.0000000   0.0000000   0.0000000), wk =   1.0000000

     Dense  grid:  1979026 G-vectors     FFT dimensions: ( 128, 144, 450)

     Smooth grid:   500628 G-vectors     FFT dimensions: (  81,  90, 288)

     Estimated max dynamical RAM per process >     333.40 MB

     Estimated total dynamical RAM >      20.84 GB

     Check: negative core charge=   -0.000002
     Generating pointlists ...
     new r_m :   0.0798 (alat units)  1.4240 (a.u.) for type    1
     new r_m :   0.0884 (alat units)  1.5790 (a.u.) for type    2
     new r_m :   0.0665 (alat units)  1.1872 (a.u.) for type    3
     new r_m :   0.0429 (alat units)  0.7657 (a.u.) for type    4
     new r_m :   0.0429 (alat units)  0.7657 (a.u.) for type    5

     Initial potential from superposition of free atoms

     starting charge    1107.8886, renormalised to    1108.0000

     negative rho (up, down):  1.506E-03 4.674E-04
 
     Adding external electric field

     Computed dipole along edir(3) : 
        Dipole                1.6401 Ry au,          4.1686 Debye
        Dipole field          0.0010 Ry au, 
 
        Potential amp.       -0.1076 Ry
        Total length         54.7057 bohr
 
 
     Adding external electric field

     Computed dipole along edir(3) : 
        Dipole                1.6401 Ry au,          4.1686 Debye
        Dipole field          0.0010 Ry au, 
 
        Potential amp.       -0.1076 Ry
        Total length         54.7057 bohr
 
     Starting wfcs are  818 randomized atomic wfcs

     total cpu time spent up to now is       13.1 secs

     Self-consistent Calculation

     iteration #  1     ecut=    50.00 Ry     beta= 0.10
     Davidson diagonalization with overlap
     ethr =  1.00E-02,  avg # of iterations =  5.5

     negative rho (up, down):  4.654E-01 5.837E-07
 
     Adding external electric field

     Computed dipole along edir(3) : 
        Dipole               -3.0851 Ry au,         -7.8414 Debye
        Dipole field         -0.0018 Ry au, 
 
        Potential amp.        0.2023 Ry
        Total length         54.7057 bohr
 
 
     Adding external electric field

     Computed dipole along edir(3) : 
        Dipole               -3.0851 Ry au,         -7.8414 Debye
        Dipole field         -0.0018 Ry au, 
 
        Potential amp.        0.2023 Ry
        Total length         54.7057 bohr
 

     total cpu time spent up to now is       49.8 secs

     total energy              =   -7860.10134768 Ry
     estimated scf accuracy    <     733.24285701 Ry

     total magnetization       =   222.00 Bohr mag/cell
     absolute magnetization    =   320.07 Bohr mag/cell

     iteration #  2     ecut=    50.00 Ry     beta= 0.10
     Davidson diagonalization with overlap
     ethr =  1.00E-02,  avg # of iterations =  2.0

     negative rho (up, down):  4.197E-01 6.069E-07
 
     Adding external electric field

     Computed dipole along edir(3) : 
        Dipole               -2.4565 Ry au,         -6.2438 Debye
        Dipole field         -0.0015 Ry au, 
 
        Potential amp.        0.1611 Ry
        Total length         54.7057 bohr
 
 
     Adding external electric field

     Computed dipole along edir(3) : 
        Dipole               -2.4565 Ry au,         -6.2438 Debye
        Dipole field         -0.0015 Ry au, 
 
        Potential amp.        0.1611 Ry
        Total length         54.7057 bohr
 

     total cpu time spent up to now is       70.5 secs

     total energy              =   -7943.66479396 Ry
     estimated scf accuracy    <     140.07286221 Ry

     total magnetization       =   158.29 Bohr mag/cell
     absolute magnetization    =   208.08 Bohr mag/cell

     iteration #  3     ecut=    50.00 Ry     beta= 0.10
     Davidson diagonalization with overlap
     ethr =  1.00E-02,  avg # of iterations =  1.0

     negative rho (up, down):  3.606E-01 8.510E-07
 
     Adding external electric field

     Computed dipole along edir(3) : 
        Dipole               -1.9794 Ry au,         -5.0311 Debye
        Dipole field         -0.0012 Ry au, 
 
        Potential amp.        0.1298 Ry
        Total length         54.7057 bohr
 
 
     Adding external electric field

     Computed dipole along edir(3) : 
        Dipole               -1.9794 Ry au,         -5.0311 Debye
        Dipole field         -0.0012 Ry au, 
 
        Potential amp.        0.1298 Ry
        Total length         54.7057 bohr
 

     total cpu time spent up to now is       86.4 secs

     total energy              =   -7978.55590915 Ry
     estimated scf accuracy    <     102.02496109 Ry

     total magnetization       =   137.78 Bohr mag/cell
     absolute magnetization    =   188.54 Bohr mag/cell

     iteration #  4     ecut=    50.00 Ry     beta= 0.10
     Davidson diagonalization with overlap
     ethr =  9.21E-03,  avg # of iterations =  1.0

     negative rho (up, down):  2.894E-01 3.064E-08
 
     Adding external electric field

     Computed dipole along edir(3) : 
        Dipole               -1.9940 Ry au,         -5.0684 Debye
        Dipole field         -0.0012 Ry au, 
 
        Potential amp.        0.1308 Ry
        Total length         54.7057 bohr
 
 
     Adding external electric field

     Computed dipole along edir(3) : 
        Dipole               -1.9940 Ry au,         -5.0684 Debye
        Dipole field         -0.0012 Ry au, 
 
        Potential amp.        0.1308 Ry
        Total length         54.7057 bohr
 

     total cpu time spent up to now is      101.5 secs

     total energy              =   -8006.19452996 Ry
     estimated scf accuracy    <      80.33603420 Ry

     total magnetization       =   119.38 Bohr mag/cell
     absolute magnetization    =   173.04 Bohr mag/cell

     iteration #  5     ecut=    50.00 Ry     beta= 0.10
     Davidson diagonalization with overlap
     ethr =  7.25E-03,  avg # of iterations =  1.0

     negative rho (up, down):  1.225E-02 6.897E-09
 
     Adding external electric field

     Computed dipole along edir(3) : 
        Dipole               -1.3257 Ry au,         -3.3695 Debye
        Dipole field         -0.0008 Ry au, 
 
        Potential amp.        0.0869 Ry
        Total length         54.7057 bohr
 
 
     Adding external electric field

     Computed dipole along edir(3) : 
        Dipole               -1.3257 Ry au,         -3.3695 Debye
        Dipole field         -0.0008 Ry au, 
 
        Potential amp.        0.0869 Ry
        Total length         54.7057 bohr
 

     total cpu time spent up to now is      117.3 secs

     total energy              =   -8068.03590400 Ry
     estimated scf accuracy    <      64.51747927 Ry

     total magnetization       =   106.01 Bohr mag/cell
     absolute magnetization    =   158.57 Bohr mag/cell

     iteration #  6     ecut=    50.00 Ry     beta= 0.10
     Davidson diagonalization with overlap
     ethr =  5.82E-03,  avg # of iterations =  1.0

     negative rho (up, down):  9.600E-05 2.047E-04
 
     Adding external electric field

     Computed dipole along edir(3) : 
        Dipole               -0.9264 Ry au,         -2.3546 Debye
        Dipole field         -0.0006 Ry au, 
 
        Potential amp.        0.0608 Ry
        Total length         54.7057 bohr
 
 
     Adding external electric field

     Computed dipole along edir(3) : 
        Dipole               -0.9264 Ry au,         -2.3546 Debye
        Dipole field         -0.0006 Ry au, 
 
        Potential amp.        0.0608 Ry
        Total length         54.7057 bohr
 

     total cpu time spent up to now is      132.6 secs

     total energy              =   -8076.60756341 Ry
     estimated scf accuracy    <       9.56055376 Ry

     total magnetization       =    99.71 Bohr mag/cell
     absolute magnetization    =   128.40 Bohr mag/cell

     iteration #  7     ecut=    50.00 Ry     beta= 0.10
     Davidson diagonalization with overlap
     ethr =  8.63E-04,  avg # of iterations =  6.0

     negative rho (up, down):  9.659E-05 1.926E-04
 
     Adding external electric field

     Computed dipole along edir(3) : 
        Dipole               -0.9311 Ry au,         -2.3667 Debye
        Dipole field         -0.0006 Ry au, 
 
        Potential amp.        0.0611 Ry
        Total length         54.7057 bohr
 
 
     Adding external electric field

     Computed dipole along edir(3) : 
        Dipole               -0.9311 Ry au,         -2.3667 Debye
        Dipole field         -0.0006 Ry au, 
 
        Potential amp.        0.0611 Ry
        Total length         54.7057 bohr
 

     total cpu time spent up to now is      161.9 secs

     total energy              =   -8078.81913669 Ry
     estimated scf accuracy    <      30.61651436 Ry

     total magnetization       =    69.98 Bohr mag/cell
     absolute magnetization    =    87.65 Bohr mag/cell

     iteration #  8     ecut=    50.00 Ry     beta= 0.10
     Davidson diagonalization with overlap
     ethr =  8.63E-04,  avg # of iterations =  1.0

     negative rho (up, down):  9.037E-05 2.066E-04
 
     Adding external electric field

     Computed dipole along edir(3) : 
        Dipole               -0.9289 Ry au,         -2.3611 Debye
        Dipole field         -0.0006 Ry au, 
 
        Potential amp.        0.0609 Ry
        Total length         54.7057 bohr
 
 
     Adding external electric field

     Computed dipole along edir(3) : 
        Dipole               -0.9289 Ry au,         -2.3611 Debye
        Dipole field         -0.0006 Ry au, 
 
        Potential amp.        0.0609 Ry
        Total length         54.7057 bohr
 

     total cpu time spent up to now is      178.2 secs

     total energy              =   -8078.74235983 Ry
     estimated scf accuracy    <      30.98377182 Ry

     total magnetization       =    69.97 Bohr mag/cell
     absolute magnetization    =    87.28 Bohr mag/cell

     iteration #  9     ecut=    50.00 Ry     beta= 0.10
     Davidson diagonalization with overlap
     ethr =  8.63E-04,  avg # of iterations =  1.0

     negative rho (up, down):  1.104E-04 2.359E-04
 
     Adding external electric field

     Computed dipole along edir(3) : 
        Dipole               -0.9356 Ry au,         -2.3781 Debye
        Dipole field         -0.0006 Ry au, 
 
        Potential amp.        0.0614 Ry
        Total length         54.7057 bohr
 
 
     Adding external electric field

     Computed dipole along edir(3) : 
        Dipole               -0.9356 Ry au,         -2.3781 Debye
        Dipole field         -0.0006 Ry au, 
 
        Potential amp.        0.0614 Ry
        Total length         54.7057 bohr
 

     total cpu time spent up to now is      194.1 secs

     total energy              =   -8078.46780230 Ry
     estimated scf accuracy    <      29.47008879 Ry

     total magnetization       =    70.04 Bohr mag/cell
     absolute magnetization    =    86.91 Bohr mag/cell

     iteration # 10     ecut=    50.00 Ry     beta= 0.10
     Davidson diagonalization with overlap
     ethr =  8.63E-04,  avg # of iterations =  1.5

     negative rho (up, down):  1.046E-04 1.914E-04
 
     Adding external electric field

     Computed dipole along edir(3) : 
        Dipole               -0.9287 Ry au,         -2.3605 Debye
        Dipole field         -0.0006 Ry au, 
 
        Potential amp.        0.0609 Ry
        Total length         54.7057 bohr
 
 
     Adding external electric field

     Computed dipole along edir(3) : 
        Dipole               -0.9287 Ry au,         -2.3605 Debye
        Dipole field         -0.0006 Ry au, 
 
        Potential amp.        0.0609 Ry
        Total length         54.7057 bohr
 

     total cpu time spent up to now is      210.4 secs

     total energy              =   -8078.43210236 Ry
     estimated scf accuracy    <      22.76691694 Ry

     total magnetization       =    72.54 Bohr mag/cell
     absolute magnetization    =    88.61 Bohr mag/cell

     iteration # 11     ecut=    50.00 Ry     beta= 0.10
     Davidson diagonalization with overlap
     ethr =  8.63E-04,  avg # of iterations =  1.0

     negative rho (up, down):  1.248E-04 2.917E-04
 
     Adding external electric field

     Computed dipole along edir(3) : 
        Dipole               -0.8806 Ry au,         -2.2382 Debye
        Dipole field         -0.0005 Ry au, 
 
        Potential amp.        0.0578 Ry
        Total length         54.7057 bohr
 
 
     Adding external electric field

     Computed dipole along edir(3) : 
        Dipole               -0.8806 Ry au,         -2.2382 Debye
        Dipole field         -0.0005 Ry au, 
 
        Potential amp.        0.0578 Ry
        Total length         54.7057 bohr
 

     total cpu time spent up to now is      225.5 secs

     total energy              =   -8078.31814876 Ry
     estimated scf accuracy    <      20.35087699 Ry

     total magnetization       =    74.03 Bohr mag/cell
     absolute magnetization    =    89.83 Bohr mag/cell

     iteration # 12     ecut=    50.00 Ry     beta= 0.10
     Davidson diagonalization with overlap
     ethr =  8.63E-04,  avg # of iterations =  1.5

     negative rho (up, down):  8.710E-05 3.087E-04
 
     Adding external electric field

     Computed dipole along edir(3) : 
        Dipole               -0.8488 Ry au,         -2.1575 Debye
        Dipole field         -0.0005 Ry au, 
 
        Potential amp.        0.0557 Ry
        Total length         54.7057 bohr
 
 
     Adding external electric field

     Computed dipole along edir(3) : 
        Dipole               -0.8488 Ry au,         -2.1575 Debye
        Dipole field         -0.0005 Ry au, 
 
        Potential amp.        0.0557 Ry
        Total length         54.7057 bohr
 

     total cpu time spent up to now is      241.1 secs

     total energy              =   -8078.48256889 Ry
     estimated scf accuracy    <      14.55823264 Ry

     total magnetization       =    77.11 Bohr mag/cell
     absolute magnetization    =    91.97 Bohr mag/cell

     iteration # 13     ecut=    50.00 Ry     beta= 0.10
     Davidson diagonalization with overlap
     ethr =  8.63E-04,  avg # of iterations =  1.0

     negative rho (up, down):  1.944E-04 4.778E-04
 
     Adding external electric field

     Computed dipole along edir(3) : 
        Dipole               -0.8936 Ry au,         -2.2713 Debye
        Dipole field         -0.0005 Ry au, 
 
        Potential amp.        0.0586 Ry
        Total length         54.7057 bohr
 
 
     Adding external electric field

     Computed dipole along edir(3) : 
        Dipole               -0.8936 Ry au,         -2.2713 Debye
        Dipole field         -0.0005 Ry au, 
 
        Potential amp.        0.0586 Ry
        Total length         54.7057 bohr
 

     total cpu time spent up to now is      255.9 secs

     total energy              =   -8078.16370823 Ry
     estimated scf accuracy    <      21.73386806 Ry

     total magnetization       =    72.11 Bohr mag/cell
     absolute magnetization    =    87.51 Bohr mag/cell

     iteration # 14     ecut=    50.00 Ry     beta= 0.10
     Davidson diagonalization with overlap
     ethr =  8.63E-04,  avg # of iterations =  1.0

     negative rho (up, down):  7.610E-04 7.395E-04
 
     Adding external electric field

     Computed dipole along edir(3) : 
        Dipole               -0.6849 Ry au,         -1.7408 Debye
        Dipole field         -0.0004 Ry au, 
 
        Potential amp.        0.0449 Ry
        Total length         54.7057 bohr
 
 
     Adding external electric field

     Computed dipole along edir(3) : 
        Dipole               -0.6849 Ry au,         -1.7408 Debye
        Dipole field         -0.0004 Ry au, 
 
        Potential amp.        0.0449 Ry
        Total length         54.7057 bohr
 

     total cpu time spent up to now is      270.4 secs

     total energy              =   -8077.78752584 Ry
     estimated scf accuracy    <      10.06694294 Ry

     total magnetization       =    80.76 Bohr mag/cell
     absolute magnetization    =    94.56 Bohr mag/cell

     iteration # 15     ecut=    50.00 Ry     beta= 0.10
     Davidson diagonalization with overlap
     ethr =  8.63E-04,  avg # of iterations =  1.0

     negative rho (up, down):  5.484E-04 9.020E-04
 
     Adding external electric field

     Computed dipole along edir(3) : 
        Dipole               -0.7299 Ry au,         -1.8553 Debye
        Dipole field         -0.0004 Ry au, 
 
        Potential amp.        0.0479 Ry
        Total length         54.7057 bohr
 
 
     Adding external electric field

     Computed dipole along edir(3) : 
        Dipole               -0.7299 Ry au,         -1.8553 Debye
        Dipole field         -0.0004 Ry au, 
 
        Potential amp.        0.0479 Ry
        Total length         54.7057 bohr
 

     total cpu time spent up to now is      285.0 secs

     total energy              =   -8078.18653416 Ry
     estimated scf accuracy    <       1.67459837 Ry

     total magnetization       =    98.32 Bohr mag/cell
     absolute magnetization    =   108.94 Bohr mag/cell

     iteration # 16     ecut=    50.00 Ry     beta= 0.10
     Davidson diagonalization with overlap
     ethr =  1.51E-04,  avg # of iterations =  9.0

     negative rho (up, down):  1.163E-03 2.046E-03
 
     Adding external electric field

     Computed dipole along edir(3) : 
        Dipole               -0.9544 Ry au,         -2.4259 Debye
        Dipole field         -0.0006 Ry au, 
 
        Potential amp.        0.0626 Ry
        Total length         54.7057 bohr
 
 
     Adding external electric field

     Computed dipole along edir(3) : 
        Dipole               -0.9544 Ry au,         -2.4259 Debye
        Dipole field         -0.0006 Ry au, 
 
        Potential amp.        0.0626 Ry
        Total length         54.7057 bohr
 

     total cpu time spent up to now is      305.7 secs

     total energy              =   -8078.14602957 Ry
     estimated scf accuracy    <       1.61571979 Ry

     total magnetization       =    97.13 Bohr mag/cell
     absolute magnetization    =   107.13 Bohr mag/cell

     iteration # 17     ecut=    50.00 Ry     beta= 0.10
     Davidson diagonalization with overlap
     ethr =  1.46E-04,  avg # of iterations =  1.5

     negative rho (up, down):  4.628E-03 5.212E-03
 
     Adding external electric field

     Computed dipole along edir(3) : 
        Dipole               -1.0714 Ry au,         -2.7232 Debye
        Dipole field         -0.0006 Ry au, 
 
        Potential amp.        0.0703 Ry
        Total length         54.7057 bohr
 
 
     Adding external electric field

     Computed dipole along edir(3) : 
        Dipole               -1.0714 Ry au,         -2.7232 Debye
        Dipole field         -0.0006 Ry au, 
 
        Potential amp.        0.0703 Ry
        Total length         54.7057 bohr
 

     total cpu time spent up to now is      321.5 secs

     total energy              =   -8078.24690266 Ry
     estimated scf accuracy    <       4.47280927 Ry

     total magnetization       =    87.22 Bohr mag/cell
     absolute magnetization    =    97.24 Bohr mag/cell

     iteration # 18     ecut=    50.00 Ry     beta= 0.10
     Davidson diagonalization with overlap
     ethr =  1.46E-04,  avg # of iterations =  1.0

     negative rho (up, down):  2.323E-02 2.419E-02
 
     Adding external electric field

     Computed dipole along edir(3) : 
        Dipole               -1.4677 Ry au,         -3.7306 Debye
        Dipole field         -0.0009 Ry au, 
 
        Potential amp.        0.0963 Ry
        Total length         54.7057 bohr
 
 
     Adding external electric field

     Computed dipole along edir(3) : 
        Dipole               -1.4677 Ry au,         -3.7306 Debye
        Dipole field         -0.0009 Ry au, 
 
        Potential amp.        0.0963 Ry
        Total length         54.7057 bohr
 

     total cpu time spent up to now is      336.8 secs

     total energy              =   -8078.30480501 Ry
     estimated scf accuracy    <       2.71649667 Ry

     total magnetization       =    91.65 Bohr mag/cell
     absolute magnetization    =   100.41 Bohr mag/cell

     iteration # 19     ecut=    50.00 Ry     beta= 0.10
     Davidson diagonalization with overlap
     ethr =  1.46E-04,  avg # of iterations =  1.5

     negative rho (up, down):  2.308E-02 2.326E-02
 
     Adding external electric field

     Computed dipole along edir(3) : 
        Dipole               -1.4742 Ry au,         -3.7471 Debye
        Dipole field         -0.0009 Ry au, 
 
        Potential amp.        0.0967 Ry
        Total length         54.7057 bohr
 
 
     Adding external electric field

     Computed dipole along edir(3) : 
        Dipole               -1.4742 Ry au,         -3.7471 Debye
        Dipole field         -0.0009 Ry au, 
 
        Potential amp.        0.0967 Ry
        Total length         54.7057 bohr
 

     total cpu time spent up to now is      352.2 secs

     total energy              =   -8078.36228181 Ry
     estimated scf accuracy    <       0.99544079 Ry

     total magnetization       =    94.09 Bohr mag/cell
     absolute magnetization    =   101.70 Bohr mag/cell

     iteration # 20     ecut=    50.00 Ry     beta= 0.10
     Davidson diagonalization with overlap
     ethr =  8.98E-05,  avg # of iterations =  2.0

     negative rho (up, down):  4.462E-02 4.855E-02
 
     Adding external electric field

     Computed dipole along edir(3) : 
        Dipole               -1.7112 Ry au,         -4.3495 Debye
        Dipole field         -0.0010 Ry au, 
 
        Potential amp.        0.1122 Ry
        Total length         54.7057 bohr
 
 
     Adding external electric field

     Computed dipole along edir(3) : 
        Dipole               -1.7112 Ry au,         -4.3495 Debye
        Dipole field         -0.0010 Ry au, 
 
        Potential amp.        0.1122 Ry
        Total length         54.7057 bohr
 

     total cpu time spent up to now is      369.1 secs

     total energy              =   -8078.45544632 Ry
     estimated scf accuracy    <       0.58482686 Ry

     total magnetization       =    96.56 Bohr mag/cell
     absolute magnetization    =   103.18 Bohr mag/cell

     iteration # 21     ecut=    50.00 Ry     beta= 0.10
     Davidson diagonalization with overlap
     ethr =  5.28E-05,  avg # of iterations =  3.5

     negative rho (up, down):  3.429E-02 3.908E-02
 
     Adding external electric field

     Computed dipole along edir(3) : 
        Dipole               -1.5391 Ry au,         -3.9121 Debye
        Dipole field         -0.0009 Ry au, 
 
        Potential amp.        0.1010 Ry
        Total length         54.7057 bohr
 
 
     Adding external electric field

     Computed dipole along edir(3) : 
        Dipole               -1.5391 Ry au,         -3.9121 Debye
        Dipole field         -0.0009 Ry au, 
 
        Potential amp.        0.1010 Ry
        Total length         54.7057 bohr
 

     total cpu time spent up to now is      387.0 secs

     total energy              =   -8078.49259633 Ry
     estimated scf accuracy    <       1.47153427 Ry

     total magnetization       =    93.16 Bohr mag/cell
     absolute magnetization    =    97.77 Bohr mag/cell

     iteration # 22     ecut=    50.00 Ry     beta= 0.10
     Davidson diagonalization with overlap
     ethr =  5.28E-05,  avg # of iterations =  1.5

     negative rho (up, down):  1.346E-02 1.441E-02
 
     Adding external electric field

     Computed dipole along edir(3) : 
        Dipole               -1.2361 Ry au,         -3.1418 Debye
        Dipole field         -0.0007 Ry au, 
 
        Potential amp.        0.0811 Ry
        Total length         54.7057 bohr
 
 
     Adding external electric field

     Computed dipole along edir(3) : 
        Dipole               -1.2361 Ry au,         -3.1418 Debye
        Dipole field         -0.0007 Ry au, 
 
        Potential amp.        0.0811 Ry
        Total length         54.7057 bohr
 

     total cpu time spent up to now is      403.0 secs

     total energy              =   -8078.51712189 Ry
     estimated scf accuracy    <       0.82534015 Ry

     total magnetization       =    95.15 Bohr mag/cell
     absolute magnetization    =    98.89 Bohr mag/cell

     iteration # 23     ecut=    50.00 Ry     beta= 0.10
     Davidson diagonalization with overlap
     ethr =  5.28E-05,  avg # of iterations =  3.5

     negative rho (up, down):  1.806E-02 1.897E-02
 
     Adding external electric field

     Computed dipole along edir(3) : 
        Dipole               -1.2957 Ry au,         -3.2934 Debye
        Dipole field         -0.0008 Ry au, 
 
        Potential amp.        0.0850 Ry
        Total length         54.7057 bohr
 
 
     Adding external electric field

     Computed dipole along edir(3) : 
        Dipole               -1.2957 Ry au,         -3.2934 Debye
        Dipole field         -0.0008 Ry au, 
 
        Potential amp.        0.0850 Ry
        Total length         54.7057 bohr
 

     total cpu time spent up to now is      420.4 secs

     total energy              =   -8078.56109666 Ry
     estimated scf accuracy    <       0.50235108 Ry

     total magnetization       =    98.51 Bohr mag/cell
     absolute magnetization    =   101.11 Bohr mag/cell

     iteration # 24     ecut=    50.00 Ry     beta= 0.10
     Davidson diagonalization with overlap
     ethr =  4.53E-05,  avg # of iterations =  1.5

     negative rho (up, down):  2.020E-02 2.006E-02
 
     Adding external electric field

     Computed dipole along edir(3) : 
        Dipole               -1.3134 Ry au,         -3.3382 Debye
        Dipole field         -0.0008 Ry au, 
 
        Potential amp.        0.0861 Ry
        Total length         54.7057 bohr
 
 
     Adding external electric field

     Computed dipole along edir(3) : 
        Dipole               -1.3134 Ry au,         -3.3382 Debye
        Dipole field         -0.0008 Ry au, 
 
        Potential amp.        0.0861 Ry
        Total length         54.7057 bohr
 

     total cpu time spent up to now is      435.0 secs

     total energy              =   -8078.53396896 Ry
     estimated scf accuracy    <       0.33593857 Ry

     total magnetization       =    98.34 Bohr mag/cell
     absolute magnetization    =   100.45 Bohr mag/cell

     iteration # 25     ecut=    50.00 Ry     beta= 0.10
     Davidson diagonalization with overlap
     ethr =  3.03E-05,  avg # of iterations = 12.5

     negative rho (up, down):  1.997E-02 1.956E-02
 
     Adding external electric field

     Computed dipole along edir(3) : 
        Dipole               -1.3082 Ry au,         -3.3250 Debye
        Dipole field         -0.0008 Ry au, 
 
        Potential amp.        0.0858 Ry
        Total length         54.7057 bohr
 
 
     Adding external electric field

     Computed dipole along edir(3) : 
        Dipole               -1.3082 Ry au,         -3.3250 Debye
        Dipole field         -0.0008 Ry au, 
 
        Potential amp.        0.0858 Ry
        Total length         54.7057 bohr
 

     total cpu time spent up to now is      463.4 secs

     total energy              =   -8078.55848324 Ry
     estimated scf accuracy    <       0.78987870 Ry

     total magnetization       =    95.75 Bohr mag/cell
     absolute magnetization    =    97.79 Bohr mag/cell

     iteration # 26     ecut=    50.00 Ry     beta= 0.10
     Davidson diagonalization with overlap
     ethr =  3.03E-05,  avg # of iterations =  1.5

     negative rho (up, down):  2.317E-02 2.171E-02
 
     Adding external electric field

     Computed dipole along edir(3) : 
        Dipole               -1.3413 Ry au,         -3.4092 Debye
        Dipole field         -0.0008 Ry au, 
 
        Potential amp.        0.0880 Ry
        Total length         54.7057 bohr
 
 
     Adding external electric field

     Computed dipole along edir(3) : 
        Dipole               -1.3413 Ry au,         -3.4092 Debye
        Dipole field         -0.0008 Ry au, 
 
        Potential amp.        0.0880 Ry
        Total length         54.7057 bohr
 

     total cpu time spent up to now is      479.0 secs

     total energy              =   -8078.55065132 Ry
     estimated scf accuracy    <       0.56623444 Ry

     total magnetization       =    96.23 Bohr mag/cell
     absolute magnetization    =    98.17 Bohr mag/cell

     iteration # 27     ecut=    50.00 Ry     beta= 0.10
     Davidson diagonalization with overlap
     ethr =  3.03E-05,  avg # of iterations =  1.5

     negative rho (up, down):  2.118E-02 1.886E-02
 
     Adding external electric field

     Computed dipole along edir(3) : 
        Dipole               -1.2799 Ry au,         -3.2532 Debye
        Dipole field         -0.0008 Ry au, 
 
        Potential amp.        0.0839 Ry
        Total length         54.7057 bohr
 
 
     Adding external electric field

     Computed dipole along edir(3) : 
        Dipole               -1.2799 Ry au,         -3.2532 Debye
        Dipole field         -0.0008 Ry au, 
 
        Potential amp.        0.0839 Ry
        Total length         54.7057 bohr
 

     total cpu time spent up to now is      494.7 secs

     total energy              =   -8078.54473641 Ry
     estimated scf accuracy    <       0.33996151 Ry

     total magnetization       =    96.33 Bohr mag/cell
     absolute magnetization    =    98.26 Bohr mag/cell

     iteration # 28     ecut=    50.00 Ry     beta= 0.10
     Davidson diagonalization with overlap
     ethr =  3.03E-05,  avg # of iterations =  1.5

     negative rho (up, down):  2.278E-02 2.032E-02
 
     Adding external electric field

     Computed dipole along edir(3) : 
        Dipole               -1.2822 Ry au,         -3.2590 Debye
        Dipole field         -0.0008 Ry au, 
 
        Potential amp.        0.0841 Ry
        Total length         54.7057 bohr
 
 
     Adding external electric field

     Computed dipole along edir(3) : 
        Dipole               -1.2822 Ry au,         -3.2590 Debye
        Dipole field         -0.0008 Ry au, 
 
        Potential amp.        0.0841 Ry
        Total length         54.7057 bohr
 

     total cpu time spent up to now is      510.0 secs

     total energy              =   -8078.54803230 Ry
     estimated scf accuracy    <       0.23931139 Ry

     total magnetization       =    96.78 Bohr mag/cell
     absolute magnetization    =    98.64 Bohr mag/cell

     iteration # 29     ecut=    50.00 Ry     beta= 0.10
     Davidson diagonalization with overlap
     ethr =  2.16E-05,  avg # of iterations =  2.0

     negative rho (up, down):  2.422E-02 2.111E-02
 
     Adding external electric field

     Computed dipole along edir(3) : 
        Dipole               -1.2763 Ry au,         -3.2441 Debye
        Dipole field         -0.0008 Ry au, 
 
        Potential amp.        0.0837 Ry
        Total length         54.7057 bohr
 
 
     Adding external electric field

     Computed dipole along edir(3) : 
        Dipole               -1.2763 Ry au,         -3.2441 Debye
        Dipole field         -0.0008 Ry au, 
 
        Potential amp.        0.0837 Ry
        Total length         54.7057 bohr
 

     total cpu time spent up to now is      526.0 secs

     total energy              =   -8078.53910142 Ry
     estimated scf accuracy    <       0.74831004 Ry

     total magnetization       =    96.26 Bohr mag/cell
     absolute magnetization    =    98.10 Bohr mag/cell

     iteration # 30     ecut=    50.00 Ry     beta= 0.10
     Davidson diagonalization with overlap
     ethr =  2.16E-05,  avg # of iterations =  2.0

     negative rho (up, down):  2.532E-02 2.273E-02
 
     Adding external electric field

     Computed dipole along edir(3) : 
        Dipole               -1.3119 Ry au,         -3.3344 Debye
        Dipole field         -0.0008 Ry au, 
 
        Potential amp.        0.0860 Ry
        Total length         54.7057 bohr
 
 
     Adding external electric field

     Computed dipole along edir(3) : 
        Dipole               -1.3119 Ry au,         -3.3344 Debye
        Dipole field         -0.0008 Ry au, 
 
        Potential amp.        0.0860 Ry
        Total length         54.7057 bohr
 

     total cpu time spent up to now is      542.2 secs

     total energy              =   -8078.54866229 Ry
     estimated scf accuracy    <       0.20344604 Ry

     total magnetization       =    97.50 Bohr mag/cell
     absolute magnetization    =    99.09 Bohr mag/cell

     iteration # 31     ecut=    50.00 Ry     beta= 0.10
     Davidson diagonalization with overlap
     ethr =  1.84E-05,  avg # of iterations =  2.0

     negative rho (up, down):  2.745E-02 2.482E-02
 
     Adding external electric field

     Computed dipole along edir(3) : 
        Dipole               -1.3428 Ry au,         -3.4131 Debye
        Dipole field         -0.0008 Ry au, 
 
        Potential amp.        0.0881 Ry
        Total length         54.7057 bohr
 
 
     Adding external electric field

     Computed dipole along edir(3) : 
        Dipole               -1.3428 Ry au,         -3.4131 Debye
        Dipole field         -0.0008 Ry au, 
 
        Potential amp.        0.0881 Ry
        Total length         54.7057 bohr
 

     total cpu time spent up to now is      557.4 secs

     total energy              =   -8078.54621018 Ry
     estimated scf accuracy    <       0.26264431 Ry

     total magnetization       =    97.22 Bohr mag/cell
     absolute magnetization    =    98.84 Bohr mag/cell

     iteration # 32     ecut=    50.00 Ry     beta= 0.10
     Davidson diagonalization with overlap
     c_bands:  5 eigenvalues not converged
     ethr =  1.84E-05,  avg # of iterations = 11.0

     negative rho (up, down):  1.999E-02 1.698E-02
 
     Adding external electric field

     Computed dipole along edir(3) : 
        Dipole               -1.2523 Ry au,         -3.1830 Debye
        Dipole field         -0.0008 Ry au, 
 
        Potential amp.        0.0821 Ry
        Total length         54.7057 bohr
 
 
     Adding external electric field

     Computed dipole along edir(3) : 
        Dipole               -1.2523 Ry au,         -3.1830 Debye
        Dipole field         -0.0008 Ry au, 
 
        Potential amp.        0.0821 Ry
        Total length         54.7057 bohr
 

     total cpu time spent up to now is      579.4 secs

     total energy              =   -8078.54325078 Ry
     estimated scf accuracy    <       0.15422835 Ry

     total magnetization       =    97.36 Bohr mag/cell
     absolute magnetization    =    99.04 Bohr mag/cell

     iteration # 33     ecut=    50.00 Ry     beta= 0.10
     Davidson diagonalization with overlap
     ethr =  1.39E-05,  avg # of iterations =  2.0

     negative rho (up, down):  1.541E-02 1.268E-02
 
     Adding external electric field

     Computed dipole along edir(3) : 
        Dipole               -1.2183 Ry au,         -3.0965 Debye
        Dipole field         -0.0007 Ry au, 
 
        Potential amp.        0.0799 Ry
        Total length         54.7057 bohr
 
 
     Adding external electric field

     Computed dipole along edir(3) : 
        Dipole               -1.2183 Ry au,         -3.0965 Debye
        Dipole field         -0.0007 Ry au, 
 
        Potential amp.        0.0799 Ry
        Total length         54.7057 bohr
 

     total cpu time spent up to now is      595.5 secs

     total energy              =   -8078.54423602 Ry
     estimated scf accuracy    <       0.14379450 Ry

     total magnetization       =    97.96 Bohr mag/cell
     absolute magnetization    =    99.58 Bohr mag/cell

     iteration # 34     ecut=    50.00 Ry     beta= 0.10
     Davidson diagonalization with overlap
     ethr =  1.30E-05,  avg # of iterations =  2.0

     negative rho (up, down):  1.175E-02 9.481E-03
 
     Adding external electric field

     Computed dipole along edir(3) : 
        Dipole               -1.1902 Ry au,         -3.0253 Debye
        Dipole field         -0.0007 Ry au, 
 
        Potential amp.        0.0781 Ry
        Total length         54.7057 bohr
 
 
     Adding external electric field

     Computed dipole along edir(3) : 
        Dipole               -1.1902 Ry au,         -3.0253 Debye
        Dipole field         -0.0007 Ry au, 
 
        Potential amp.        0.0781 Ry
        Total length         54.7057 bohr
 

     total cpu time spent up to now is      610.9 secs

     total energy              =   -8078.54948353 Ry
     estimated scf accuracy    <       0.13566521 Ry

     total magnetization       =    97.67 Bohr mag/cell
     absolute magnetization    =    99.35 Bohr mag/cell

     iteration # 35     ecut=    50.00 Ry     beta= 0.10
     Davidson diagonalization with overlap
     ethr =  1.22E-05,  avg # of iterations =  2.0

     negative rho (up, down):  7.411E-03 5.938E-03
 
     Adding external electric field

     Computed dipole along edir(3) : 
        Dipole               -1.1484 Ry au,         -2.9189 Debye
        Dipole field         -0.0007 Ry au, 
 
        Potential amp.        0.0753 Ry
        Total length         54.7057 bohr
 
 
     Adding external electric field

     Computed dipole along edir(3) : 
        Dipole               -1.1484 Ry au,         -2.9189 Debye
        Dipole field         -0.0007 Ry au, 
 
        Potential amp.        0.0753 Ry
        Total length         54.7057 bohr
 

     total cpu time spent up to now is      627.6 secs

     total energy              =   -8078.55733892 Ry
     estimated scf accuracy    <       0.14185946 Ry

     total magnetization       =    97.31 Bohr mag/cell
     absolute magnetization    =    98.98 Bohr mag/cell

     iteration # 36     ecut=    50.00 Ry     beta= 0.10
     Davidson diagonalization with overlap
     ethr =  1.22E-05,  avg # of iterations =  2.0

     negative rho (up, down):  6.849E-03 5.496E-03
 
     Adding external electric field

     Computed dipole along edir(3) : 
        Dipole               -1.1316 Ry au,         -2.8761 Debye
        Dipole field         -0.0007 Ry au, 
 
        Potential amp.        0.0742 Ry
        Total length         54.7057 bohr
 
 
     Adding external electric field

     Computed dipole along edir(3) : 
        Dipole               -1.1316 Ry au,         -2.8761 Debye
        Dipole field         -0.0007 Ry au, 
 
        Potential amp.        0.0742 Ry
        Total length         54.7057 bohr
 

     total cpu time spent up to now is      644.5 secs

     total energy              =   -8078.55876379 Ry
     estimated scf accuracy    <       0.13165862 Ry

     total magnetization       =    97.40 Bohr mag/cell
     absolute magnetization    =    98.98 Bohr mag/cell

     iteration # 37     ecut=    50.00 Ry     beta= 0.10
     Davidson diagonalization with overlap
     ethr =  1.19E-05,  avg # of iterations =  2.0

     negative rho (up, down):  5.031E-03 3.664E-03
 
     Adding external electric field

     Computed dipole along edir(3) : 
        Dipole               -1.1364 Ry au,         -2.8884 Debye
        Dipole field         -0.0007 Ry au, 
 
        Potential amp.        0.0745 Ry
        Total length         54.7057 bohr
 
 
     Adding external electric field

     Computed dipole along edir(3) : 
        Dipole               -1.1364 Ry au,         -2.8884 Debye
        Dipole field         -0.0007 Ry au, 
 
        Potential amp.        0.0745 Ry
        Total length         54.7057 bohr
 

     total cpu time spent up to now is      660.1 secs

     total energy              =   -8078.55573128 Ry
     estimated scf accuracy    <       0.14563121 Ry

     total magnetization       =    97.38 Bohr mag/cell
     absolute magnetization    =    98.92 Bohr mag/cell

     iteration # 38     ecut=    50.00 Ry     beta= 0.10
     Davidson diagonalization with overlap
     c_bands:  1 eigenvalues not converged
     ethr =  1.19E-05,  avg # of iterations = 11.0

     negative rho (up, down):  5.091E-03 3.749E-03
 
     Adding external electric field

     Computed dipole along edir(3) : 
        Dipole               -1.1484 Ry au,         -2.9189 Debye
        Dipole field         -0.0007 Ry au, 
 
        Potential amp.        0.0753 Ry
        Total length         54.7057 bohr
 
 
     Adding external electric field

     Computed dipole along edir(3) : 
        Dipole               -1.1484 Ry au,         -2.9189 Debye
        Dipole field         -0.0007 Ry au, 
 
        Potential amp.        0.0753 Ry
        Total length         54.7057 bohr
 

     total cpu time spent up to now is      682.4 secs

     total energy              =   -8078.55380218 Ry
     estimated scf accuracy    <       0.13953672 Ry

     total magnetization       =    97.36 Bohr mag/cell
     absolute magnetization    =    98.97 Bohr mag/cell

     iteration # 39     ecut=    50.00 Ry     beta= 0.10
     Davidson diagonalization with overlap
     ethr =  1.19E-05,  avg # of iterations =  2.0

     negative rho (up, down):  3.834E-03 2.863E-03
 
     Adding external electric field

     Computed dipole along edir(3) : 
        Dipole               -1.1299 Ry au,         -2.8720 Debye
        Dipole field         -0.0007 Ry au, 
 
        Potential amp.        0.0741 Ry
        Total length         54.7057 bohr
 
 
     Adding external electric field

     Computed dipole along edir(3) : 
        Dipole               -1.1299 Ry au,         -2.8720 Debye
        Dipole field         -0.0007 Ry au, 
 
        Potential amp.        0.0741 Ry
        Total length         54.7057 bohr
 

     total cpu time spent up to now is      698.4 secs

     total energy              =   -8078.55880832 Ry
     estimated scf accuracy    <       0.12914147 Ry

     total magnetization       =    97.56 Bohr mag/cell
     absolute magnetization    =    99.25 Bohr mag/cell

     iteration # 40     ecut=    50.00 Ry     beta= 0.10
     Davidson diagonalization with overlap
     ethr =  1.17E-05,  avg # of iterations =  1.5

     negative rho (up, down):  8.656E-03 7.590E-03
 
     Adding external electric field

     Computed dipole along edir(3) : 
        Dipole               -1.2047 Ry au,         -3.0621 Debye
        Dipole field         -0.0007 Ry au, 
 
        Potential amp.        0.0790 Ry
        Total length         54.7057 bohr
 
 
     Adding external electric field

     Computed dipole along edir(3) : 
        Dipole               -1.2047 Ry au,         -3.0621 Debye
        Dipole field         -0.0007 Ry au, 
 
        Potential amp.        0.0790 Ry
        Total length         54.7057 bohr
 

     total cpu time spent up to now is      713.8 secs

     total energy              =   -8078.56103734 Ry
     estimated scf accuracy    <       0.13412683 Ry

     total magnetization       =    97.42 Bohr mag/cell
     absolute magnetization    =    98.93 Bohr mag/cell

     iteration # 41     ecut=    50.00 Ry     beta= 0.10
     Davidson diagonalization with overlap
     ethr =  1.17E-05,  avg # of iterations =  2.0

     negative rho (up, down):  4.217E-03 3.160E-03
 
     Adding external electric field

     Computed dipole along edir(3) : 
        Dipole               -1.1237 Ry au,         -2.8561 Debye
        Dipole field         -0.0007 Ry au, 
 
        Potential amp.        0.0737 Ry
        Total length         54.7057 bohr
 
 
     Adding external electric field

     Computed dipole along edir(3) : 
        Dipole               -1.1237 Ry au,         -2.8561 Debye
        Dipole field         -0.0007 Ry au, 
 
        Potential amp.        0.0737 Ry
        Total length         54.7057 bohr
 

     total cpu time spent up to now is      730.0 secs

     total energy              =   -8078.56016240 Ry
     estimated scf accuracy    <       0.14774614 Ry

     total magnetization       =    97.47 Bohr mag/cell
     absolute magnetization    =    98.88 Bohr mag/cell

     iteration # 42     ecut=    50.00 Ry     beta= 0.10
     Davidson diagonalization with overlap
     ethr =  1.17E-05,  avg # of iterations =  2.0

     negative rho (up, down):  1.878E-03 1.246E-03
 
     Adding external electric field

     Computed dipole along edir(3) : 
        Dipole               -1.0759 Ry au,         -2.7347 Debye
        Dipole field         -0.0006 Ry au, 
 
        Potential amp.        0.0706 Ry
        Total length         54.7057 bohr
 
 
     Adding external electric field

     Computed dipole along edir(3) : 
        Dipole               -1.0759 Ry au,         -2.7347 Debye
        Dipole field         -0.0006 Ry au, 
 
        Potential amp.        0.0706 Ry
        Total length         54.7057 bohr
 

     total cpu time spent up to now is      745.9 secs

     total energy              =   -8078.56119675 Ry
     estimated scf accuracy    <       0.13320650 Ry

     total magnetization       =    97.60 Bohr mag/cell
     absolute magnetization    =    99.05 Bohr mag/cell

     iteration # 43     ecut=    50.00 Ry     beta= 0.10
     Davidson diagonalization with overlap
     ethr =  1.17E-05,  avg # of iterations =  2.0

     negative rho (up, down):  4.825E-04 3.404E-04
 
     Adding external electric field

     Computed dipole along edir(3) : 
        Dipole               -1.0133 Ry au,         -2.5757 Debye
        Dipole field         -0.0006 Ry au, 
 
        Potential amp.        0.0665 Ry
        Total length         54.7057 bohr
 
 
     Adding external electric field

     Computed dipole along edir(3) : 
        Dipole               -1.0133 Ry au,         -2.5757 Debye
        Dipole field         -0.0006 Ry au, 
 
        Potential amp.        0.0665 Ry
        Total length         54.7057 bohr
 

     total cpu time spent up to now is      761.6 secs

     total energy              =   -8078.56276128 Ry
     estimated scf accuracy    <       0.12838087 Ry

     total magnetization       =    97.47 Bohr mag/cell
     absolute magnetization    =    98.94 Bohr mag/cell

     iteration # 44     ecut=    50.00 Ry     beta= 0.10
     Davidson diagonalization with overlap
     ethr =  1.16E-05,  avg # of iterations =  2.0

     negative rho (up, down):  1.037E-03 9.671E-04
 
     Adding external electric field

     Computed dipole along edir(3) : 
        Dipole               -0.9123 Ry au,         -2.3188 Debye
        Dipole field         -0.0005 Ry au, 
 
        Potential amp.        0.0598 Ry
        Total length         54.7057 bohr
 
 
     Adding external electric field

     Computed dipole along edir(3) : 
        Dipole               -0.9123 Ry au,         -2.3188 Debye
        Dipole field         -0.0005 Ry au, 
 
        Potential amp.        0.0598 Ry
        Total length         54.7057 bohr
 

     total cpu time spent up to now is      777.6 secs

     total energy              =   -8078.56106210 Ry
     estimated scf accuracy    <       0.10776307 Ry

     total magnetization       =    97.38 Bohr mag/cell
     absolute magnetization    =    98.86 Bohr mag/cell

     iteration # 45     ecut=    50.00 Ry     beta= 0.10
     Davidson diagonalization with overlap
     ethr =  9.73E-06,  avg # of iterations =  2.0

     negative rho (up, down):  3.210E-03 3.059E-03
 
     Adding external electric field

     Computed dipole along edir(3) : 
        Dipole               -0.8451 Ry au,         -2.1481 Debye
        Dipole field         -0.0005 Ry au, 
 
        Potential amp.        0.0554 Ry
        Total length         54.7057 bohr
 
 
     Adding external electric field

     Computed dipole along edir(3) : 
        Dipole               -0.8451 Ry au,         -2.1481 Debye
        Dipole field         -0.0005 Ry au, 
 
        Potential amp.        0.0554 Ry
        Total length         54.7057 bohr
 

     total cpu time spent up to now is      794.2 secs

     total energy              =   -8078.55630199 Ry
     estimated scf accuracy    <       0.05852033 Ry

     total magnetization       =    97.44 Bohr mag/cell
     absolute magnetization    =    98.81 Bohr mag/cell

     iteration # 46     ecut=    50.00 Ry     beta= 0.10
     Davidson diagonalization with overlap
     c_bands:  1 eigenvalues not converged
     ethr =  5.28E-06,  avg # of iterations = 11.0

     negative rho (up, down):  2.992E-03 2.839E-03
 
     Adding external electric field

     Computed dipole along edir(3) : 
        Dipole               -0.7855 Ry au,         -1.9965 Debye
        Dipole field         -0.0005 Ry au, 
 
        Potential amp.        0.0515 Ry
        Total length         54.7057 bohr
 
 
     Adding external electric field

     Computed dipole along edir(3) : 
        Dipole               -0.7855 Ry au,         -1.9965 Debye
        Dipole field         -0.0005 Ry au, 
 
        Potential amp.        0.0515 Ry
        Total length         54.7057 bohr
 

     total cpu time spent up to now is      819.4 secs

     total energy              =   -8078.55683800 Ry
     estimated scf accuracy    <       0.03998146 Ry

     total magnetization       =    97.40 Bohr mag/cell
     absolute magnetization    =    98.58 Bohr mag/cell

     iteration # 47     ecut=    50.00 Ry     beta= 0.10
     Davidson diagonalization with overlap
     ethr =  3.61E-06,  avg # of iterations =  2.0

     negative rho (up, down):  2.339E-03 2.220E-03
 
     Adding external electric field

     Computed dipole along edir(3) : 
        Dipole               -0.6983 Ry au,         -1.7750 Debye
        Dipole field         -0.0004 Ry au, 
 
        Potential amp.        0.0458 Ry
        Total length         54.7057 bohr
 
 
     Adding external electric field

     Computed dipole along edir(3) : 
        Dipole               -0.6983 Ry au,         -1.7750 Debye
        Dipole field         -0.0004 Ry au, 
 
        Potential amp.        0.0458 Ry
        Total length         54.7057 bohr
 

     total cpu time spent up to now is      835.3 secs

     total energy              =   -8078.55578352 Ry
     estimated scf accuracy    <       0.03756454 Ry

     total magnetization       =    97.37 Bohr mag/cell
     absolute magnetization    =    98.57 Bohr mag/cell

     iteration # 48     ecut=    50.00 Ry     beta= 0.10
     Davidson diagonalization with overlap
     c_bands:  1 eigenvalues not converged
     ethr =  3.39E-06,  avg # of iterations = 20.5

     negative rho (up, down):  2.404E-03 2.182E-03
 
     Adding external electric field

     Computed dipole along edir(3) : 
        Dipole               -0.5278 Ry au,         -1.3415 Debye
        Dipole field         -0.0003 Ry au, 
 
        Potential amp.        0.0346 Ry
        Total length         54.7057 bohr
 
 
     Adding external electric field

     Computed dipole along edir(3) : 
        Dipole               -0.5278 Ry au,         -1.3415 Debye
        Dipole field         -0.0003 Ry au, 
 
        Potential amp.        0.0346 Ry
        Total length         54.7057 bohr
 

     total cpu time spent up to now is      867.3 secs

     total energy              =   -8078.55338683 Ry
     estimated scf accuracy    <       0.03555496 Ry

     total magnetization       =    97.50 Bohr mag/cell
     absolute magnetization    =    98.68 Bohr mag/cell

     iteration # 49     ecut=    50.00 Ry     beta= 0.10
     Davidson diagonalization with overlap
     ethr =  3.21E-06,  avg # of iterations =  2.0

     negative rho (up, down):  2.388E-03 2.214E-03
 
     Adding external electric field

     Computed dipole along edir(3) : 
        Dipole               -0.3783 Ry au,         -0.9617 Debye
        Dipole field         -0.0002 Ry au, 
 
        Potential amp.        0.0248 Ry
        Total length         54.7057 bohr
 
 
     Adding external electric field

     Computed dipole along edir(3) : 
        Dipole               -0.3783 Ry au,         -0.9617 Debye
        Dipole field         -0.0002 Ry au, 
 
        Potential amp.        0.0248 Ry
        Total length         54.7057 bohr
 

     total cpu time spent up to now is      882.8 secs

     total energy              =   -8078.55286676 Ry
     estimated scf accuracy    <       0.03038678 Ry

     total magnetization       =    97.34 Bohr mag/cell
     absolute magnetization    =    98.54 Bohr mag/cell

     iteration # 50     ecut=    50.00 Ry     beta= 0.10
     Davidson diagonalization with overlap
     ethr =  2.74E-06,  avg # of iterations =  1.5

     negative rho (up, down):  2.212E-03 2.062E-03
 
     Adding external electric field

     Computed dipole along edir(3) : 
        Dipole               -0.3925 Ry au,         -0.9975 Debye
        Dipole field         -0.0002 Ry au, 
 
        Potential amp.        0.0257 Ry
        Total length         54.7057 bohr
 
 
     Adding external electric field

     Computed dipole along edir(3) : 
        Dipole               -0.3925 Ry au,         -0.9975 Debye
        Dipole field         -0.0002 Ry au, 
 
        Potential amp.        0.0257 Ry
        Total length         54.7057 bohr
 

     total cpu time spent up to now is      897.5 secs

     total energy              =   -8078.55365758 Ry
     estimated scf accuracy    <       0.02865393 Ry

     total magnetization       =    97.32 Bohr mag/cell
     absolute magnetization    =    98.45 Bohr mag/cell

     iteration # 51     ecut=    50.00 Ry     beta= 0.10
     Davidson diagonalization with overlap
     ethr =  2.59E-06,  avg # of iterations =  2.0

     negative rho (up, down):  2.287E-03 2.114E-03
 
     Adding external electric field

     Computed dipole along edir(3) : 
        Dipole               -0.3911 Ry au,         -0.9941 Debye
        Dipole field         -0.0002 Ry au, 
 
        Potential amp.        0.0257 Ry
        Total length         54.7057 bohr
 
 
     Adding external electric field

     Computed dipole along edir(3) : 
        Dipole               -0.3911 Ry au,         -0.9941 Debye
        Dipole field         -0.0002 Ry au, 
 
        Potential amp.        0.0257 Ry
        Total length         54.7057 bohr
 

     total cpu time spent up to now is      913.2 secs

     total energy              =   -8078.55318608 Ry
     estimated scf accuracy    <       0.02800626 Ry

     total magnetization       =    97.31 Bohr mag/cell
     absolute magnetization    =    98.44 Bohr mag/cell

     iteration # 52     ecut=    50.00 Ry     beta= 0.10
     Davidson diagonalization with overlap
     ethr =  2.53E-06,  avg # of iterations =  1.5

     negative rho (up, down):  9.879E-04 1.104E-03
 
     Adding external electric field

     Computed dipole along edir(3) : 
        Dipole               -0.2885 Ry au,         -0.7334 Debye
        Dipole field         -0.0002 Ry au, 
 
        Potential amp.        0.0189 Ry
        Total length         54.7057 bohr
 
 
     Adding external electric field

     Computed dipole along edir(3) : 
        Dipole               -0.2885 Ry au,         -0.7334 Debye
        Dipole field         -0.0002 Ry au, 
 
        Potential amp.        0.0189 Ry
        Total length         54.7057 bohr
 

     total cpu time spent up to now is      926.9 secs

     total energy              =   -8078.55482526 Ry
     estimated scf accuracy    <       0.02853947 Ry

     total magnetization       =    97.34 Bohr mag/cell
     absolute magnetization    =    98.46 Bohr mag/cell

     iteration # 53     ecut=    50.00 Ry     beta= 0.10
     Davidson diagonalization with overlap
     c_bands:  3 eigenvalues not converged
     ethr =  2.53E-06,  avg # of iterations = 11.0

     negative rho (up, down):  8.140E-04 9.255E-04
 
     Adding external electric field

     Computed dipole along edir(3) : 
        Dipole               -0.2437 Ry au,         -0.6193 Debye
        Dipole field         -0.0001 Ry au, 
 
        Potential amp.        0.0160 Ry
        Total length         54.7057 bohr
 
 
     Adding external electric field

     Computed dipole along edir(3) : 
        Dipole               -0.2437 Ry au,         -0.6193 Debye
        Dipole field         -0.0001 Ry au, 
 
        Potential amp.        0.0160 Ry
        Total length         54.7057 bohr
 

     total cpu time spent up to now is      948.5 secs

     total energy              =   -8078.55499232 Ry
     estimated scf accuracy    <       0.02219285 Ry

     total magnetization       =    97.23 Bohr mag/cell
     absolute magnetization    =    98.39 Bohr mag/cell

     iteration # 54     ecut=    50.00 Ry     beta= 0.10
     Davidson diagonalization with overlap
     ethr =  2.00E-06,  avg # of iterations =  8.5

     negative rho (up, down):  3.837E-04 4.372E-04
 
     Adding external electric field

     Computed dipole along edir(3) : 
        Dipole               -0.1505 Ry au,         -0.3825 Debye
        Dipole field         -0.0001 Ry au, 
 
        Potential amp.        0.0099 Ry
        Total length         54.7057 bohr
 
 
     Adding external electric field

     Computed dipole along edir(3) : 
        Dipole               -0.1505 Ry au,         -0.3825 Debye
        Dipole field         -0.0001 Ry au, 
 
        Potential amp.        0.0099 Ry
        Total length         54.7057 bohr
 

     total cpu time spent up to now is      966.8 secs

     total energy              =   -8078.55440053 Ry
     estimated scf accuracy    <       0.02067236 Ry

     total magnetization       =    97.18 Bohr mag/cell
     absolute magnetization    =    98.35 Bohr mag/cell

     iteration # 55     ecut=    50.00 Ry     beta= 0.10
     Davidson diagonalization with overlap
     ethr =  1.87E-06,  avg # of iterations =  2.0

     negative rho (up, down):  6.568E-04 7.456E-04
 
     Adding external electric field

     Computed dipole along edir(3) : 
        Dipole               -0.1976 Ry au,         -0.5023 Debye
        Dipole field         -0.0001 Ry au, 
 
        Potential amp.        0.0130 Ry
        Total length         54.7057 bohr
 
 
     Adding external electric field

     Computed dipole along edir(3) : 
        Dipole               -0.1976 Ry au,         -0.5023 Debye
        Dipole field         -0.0001 Ry au, 
 
        Potential amp.        0.0130 Ry
        Total length         54.7057 bohr
 

     total cpu time spent up to now is      982.0 secs

     total energy              =   -8078.55461749 Ry
     estimated scf accuracy    <       0.02265974 Ry

     total magnetization       =    97.12 Bohr mag/cell
     absolute magnetization    =    98.28 Bohr mag/cell

     iteration # 56     ecut=    50.00 Ry     beta= 0.10
     Davidson diagonalization with overlap
     ethr =  1.87E-06,  avg # of iterations =  1.5

     negative rho (up, down):  1.705E-05 2.139E-05
 
     Adding external electric field

     Computed dipole along edir(3) : 
        Dipole               -0.1092 Ry au,         -0.2775 Debye
        Dipole field         -0.0001 Ry au, 
 
        Potential amp.        0.0072 Ry
        Total length         54.7057 bohr
 
 
     Adding external electric field

     Computed dipole along edir(3) : 
        Dipole               -0.1092 Ry au,         -0.2775 Debye
        Dipole field         -0.0001 Ry au, 
 
        Potential amp.        0.0072 Ry
        Total length         54.7057 bohr
 

     total cpu time spent up to now is      996.8 secs

     total energy              =   -8078.55433687 Ry
     estimated scf accuracy    <       0.02413595 Ry

     total magnetization       =    97.14 Bohr mag/cell
     absolute magnetization    =    98.29 Bohr mag/cell

     iteration # 57     ecut=    50.00 Ry     beta= 0.10
     Davidson diagonalization with overlap
     ethr =  1.87E-06,  avg # of iterations =  2.0

     negative rho (up, down):  5.298E-05 7.926E-05
 
     Adding external electric field

     Computed dipole along edir(3) : 
        Dipole                0.0685 Ry au,          0.1741 Debye
        Dipole field          0.0000 Ry au, 
 
        Potential amp.       -0.0045 Ry
        Total length         54.7057 bohr
 
 
     Adding external electric field

     Computed dipole along edir(3) : 
        Dipole                0.0685 Ry au,          0.1741 Debye
        Dipole field          0.0000 Ry au, 
 
        Potential amp.       -0.0045 Ry
        Total length         54.7057 bohr
 

     total cpu time spent up to now is     1013.5 secs

     total energy              =   -8078.55337394 Ry
     estimated scf accuracy    <       0.01801191 Ry

     total magnetization       =    97.15 Bohr mag/cell
     absolute magnetization    =    98.33 Bohr mag/cell

     iteration # 58     ecut=    50.00 Ry     beta= 0.10
     Davidson diagonalization with overlap
     ethr =  1.63E-06,  avg # of iterations =  8.5

     negative rho (up, down):  6.492E-04 8.655E-04
 
     Adding external electric field

     Computed dipole along edir(3) : 
[...]
    -5.9887  -5.9848  -5.9554  -5.9329  -5.8969  -5.8826  -5.8586  -5.8487
    -5.8188  -5.8105  -5.7970  -5.7635  -5.7562  -5.7401  -5.7123  -5.6817
    -5.6707  -5.6414  -5.6336  -5.6129  -5.5780  -5.5665  -5.5636  -5.5371
    -5.5192  -5.5160  -5.4814  -5.4717  -5.4658  -5.4588  -5.3919  -5.3752
    -5.3619  -5.3134  -5.3010  -5.2852  -5.2361  -5.2039  -5.1748  -5.1709
    -5.1500  -5.1030  -5.0999  -4.9994  -4.9646  -4.9582  -4.9508  -4.9158
    -4.8908  -4.8625  -4.8031  -4.7980  -4.7898  -4.7313  -4.7187  -4.7060
    -4.6561  -4.6026  -4.5810  -4.5664  -4.5096  -4.4698  -4.4554  -4.3937
    -4.3758  -4.3566  -4.3216  -4.2961  -4.2724  -4.2496  -4.2064  -4.1876
    -4.1356  -4.1090  -4.0949  -4.0551  -4.0448  -4.0096  -3.9981  -3.9613
    -3.8715  -3.8661  -3.8319  -3.8082  -3.8031  -3.7767  -3.7502  -3.7201
    -3.7109  -3.7022  -3.6737  -3.6188  -3.6101  -3.5901  -3.5799  -3.5723
    -3.5487  -3.5376  -3.5023  -3.4988  -3.4882  -3.4852  -3.4444  -3.4279
    -3.4102  -3.3972  -3.3953  -3.3705  -3.3316  -3.3248  -3.3104  -3.2998
    -3.2903  -3.2859  -3.2650  -3.2433  -3.2255  -3.1930  -3.1781  -3.1486
    -3.1365  -3.1020  -3.0554  -3.0342  -3.0276  -3.0175  -3.0039  -2.9826
    -2.9801  -2.9702  -2.9467  -2.9005  -2.8785  -2.8660  -2.8404  -2.8120
    -2.8005  -2.7797  -2.7250  -2.7121  -2.6993  -2.6924  -2.6785  -2.6613
    -2.6583  -2.6403  -2.6323  -2.6123  -2.5959  -2.5948  -2.5865  -2.5774
    -2.5566  -2.5492  -2.5301  -2.5200  -2.4996  -2.4910  -2.4815  -2.4442
    -2.4314  -2.4199  -2.3845  -2.3705  -2.3502  -2.3418  -2.3242  -2.3039
    -2.2871  -2.2845  -2.2666  -2.2562  -2.2188  -2.2084  -2.1886  -2.1833
    -2.1574  -2.1259  -2.1050  -2.0880  -2.0846  -2.0640  -2.0494  -2.0289
    -2.0168  -1.9900  -1.9766  -1.9591  -1.9334  -1.9162  -1.9097  -1.8827
    -1.8701  -1.8602  -1.8456  -1.8410  -1.8316  -1.7980  -1.7630  -1.7486
    -1.7393  -1.7178  -1.7008  -1.6901  -1.6686  -1.6508  -1.6027  -1.5922
    -1.5708  -1.5567  -1.5265  -1.5171  -1.4983  -1.4857  -1.4725  -1.4574
    -1.4351  -1.4317  -1.4101  -1.3811  -1.3733  -1.3523  -1.3221  -1.3047
    -1.2962  -1.2904  -1.2321  -1.2053  -1.1860  -1.1510  -1.1412  -1.1362
    -1.0764  -1.0694  -1.0008  -0.9637  -0.9441  -0.8227  -0.8106  -0.7715
    -0.7036  -0.6731  -0.6695  -0.4887  -0.3399  -0.2783  -0.2092  -0.1771
     0.1816   0.1929   0.2389   0.2500   0.2576   0.2662   0.2726   0.2993
     0.3367   0.3513   0.3813   0.3916   0.3954   0.3966   0.3983   0.4095
     0.4149   0.4236   0.4404   0.4451   0.4516   0.4628   0.4682   0.4716
     0.4736   0.4839   0.4931   0.5022   0.5125   0.5206   0.5266   0.5365
     0.5457   0.5513   0.5778   0.5831   0.5850   0.5870   0.5942   0.6050
     0.6150   0.6224   0.6361   0.6419   0.6494   0.6626   0.6697   0.6785
     0.6909   0.7041   0.7098   0.7175   0.7262   0.7334   0.7380   0.7533
     0.7637   0.7761   0.7913   0.7920   0.8072   0.8140   0.8164   0.8240
     0.8330   0.8483   0.8627   0.8666   0.8776   0.8881   0.9091   0.9423
     0.9539   0.9935   1.0051   1.0240   1.0346   1.1017   1.1677   1.2178
     1.7008   1.7685   1.7797   1.7867   1.8119   1.8169   1.8406   1.8618
     1.8900   1.9026   1.9198   1.9287   1.9569   1.9762   2.0148   2.0452
     2.0529   2.0684   2.0906   2.0948   2.1202   2.1265   2.1453   2.1655
     2.1865   2.2000   2.2114   2.2361   2.2415   2.2808   2.2941   2.3059
     2.3345   2.3370   2.3464   2.3625   2.3813   2.3858   2.4185   2.4339
     2.4561   2.4737   2.4842   2.5287   2.5352   2.5465   2.5800   2.6062
     2.6463   2.6541   2.7569   2.7813   2.8171   2.8370   2.8934   3.4942
     3.5700   3.6742   3.7190   3.7429   3.7686   3.7892   3.7937   3.9141
     3.9236   3.9500   3.9767   3.9875   3.9909   3.9987   4.0013   4.0547
     4.0623   4.0812   4.0883   4.1219   4.1503   4.1608   4.2063   4.2247
     4.2345   4.2429   4.2492   4.2673   4.3133   4.6036   4.6949   4.7802
     4.8088   4.8622   4.8950   4.9138   4.9766   4.9976   5.0232   5.0704
     5.1028   5.1085   5.1417   5.1766   5.2199   5.2320   5.3825   6.2067
     6.3393   6.4472   6.5299   6.6860   6.7085   6.7788   6.8459   6.8999
     6.9366   6.9892   7.0092   7.0549   7.2468   7.2941   7.3108   7.3691
     7.4098   7.4238   7.5098   7.5185   7.5613   7.6564   7.7026   7.7582
     7.8250   7.8396   7.9126   7.9330   7.9464   8.0066   8.0212   8.0705
     8.0815   8.1079   8.1217   8.1413   8.1745   8.2496   8.2786   8.2932
     8.3263   8.3475   8.3773   8.3865   8.3941   8.4281   8.4418   8.4504
     8.4686   8.4993   8.5061   8.5533   8.5710   8.6040   8.6141   8.6303
     8.6498

     the Fermi energy is     1.6932 ev

!    total energy              =   -8078.55361458 Ry
     estimated scf accuracy    <       0.00000081 Ry
     smearing contrib. (-TS)   =      -0.02585134 Ry
     internal energy E=F+TS    =   -8078.52776323 Ry

     The total energy is F=E-TS. E is the sum of the following terms:
     one-electron contribution =  -94603.02998057 Ry
     hartree contribution      =   47885.99230523 Ry
     xc contribution           =   -2177.38260882 Ry
     ewald contribution        =   40817.66079698 Ry
     Dispersion Correction     =      -1.76833287 Ry
     electric field correction =       0.00005683 Ry

     total magnetization       =    97.19 Bohr mag/cell
     absolute magnetization    =    98.40 Bohr mag/cell

     convergence has been achieved in  81 iterations

     negative rho (up, down):  1.156E-03 6.234E-04

     Forces acting on atoms (cartesian axes, Ry/au):

     atom    1 type  1   force =    -0.00206472    0.00087728    0.00211468
     atom    2 type  1   force =     0.00002790    0.00000001   -0.00030826
     atom    3 type  2   force =    -0.00018525    0.00092841   -0.00048359
     atom    4 type  1   force =    -0.00017120    0.00032861    0.00016631
     atom    5 type  1   force =     0.00002910    0.00017322    0.00017357
     atom    6 type  1   force =    -0.00047912    0.00040730   -0.00003826
     atom    7 type  1   force =    -0.00054321    0.00035209   -0.00016243
     atom    8 type  2   force =     0.00036495    0.00018810    0.00007949
     atom    9 type  2   force =     0.00020286    0.00006330   -0.00003195
     atom   10 type  1   force =    -0.00015712    0.00008769    0.00038830
     atom   11 type  1   force =     0.00113084   -0.00024549   -0.00023023
     atom   12 type  1   force =    -0.00054543   -0.00000514    0.00020867
     atom   13 type  3   force =     0.00008185   -0.00001734    0.00016211
     atom   14 type  3   force =    -0.00031775   -0.00032370    0.00023074
     atom   15 type  3   force =    -0.00053666    0.00021891    0.00039119
     atom   16 type  3   force =     0.00008386    0.00011630   -0.00003366
     atom   17 type  4   force =    -0.00006402    0.00022559    0.00001579
     atom   18 type  4   force =    -0.00038837   -0.00058242   -0.00020415
     atom   19 type  4   force =    -0.00036544   -0.00022715   -0.00077101
     atom   20 type  4   force =     0.00000009   -0.00026742   -0.00025499
     atom   21 type  4   force =     0.00006182    0.00010725   -0.00005217
     atom   22 type  4   force =    -0.00055357    0.00041704    0.00056696
     atom   23 type  4   force =     0.00046856    0.00008718    0.00045794
     atom   24 type  4   force =    -0.00005246    0.00025161    0.00008368
     atom   25 type  4   force =     0.00017508    0.00017140    0.00012424
     atom   26 type  4   force =    -0.00029483   -0.00035027    0.00024191
     atom   27 type  4   force =     0.00008876   -0.00005617    0.00024415
     atom   28 type  4   force =    -0.00029010   -0.00039449   -0.00050927
     atom   29 type  4   force =     0.00018419   -0.00016817   -0.00001787
     atom   30 type  4   force =    -0.00017739   -0.00040272   -0.00050348
     atom   31 type  4   force =    -0.00011842    0.00010661    0.00031479
     atom   32 type  4   force =    -0.00007412    0.00031567    0.00004746
     atom   33 type  3   force =    -0.00044253    0.00015396    0.00004205
     atom   34 type  3   force =     0.00005169    0.00000354    0.00037766
     atom   35 type  3   force =    -0.00082733   -0.00062360   -0.00001987
     atom   36 type  3   force =    -0.00014770   -0.00009835    0.00007132
     atom   37 type  4   force =    -0.00017456    0.00016623    0.00014602
     atom   38 type  4   force =    -0.00039578   -0.00048091   -0.00033332
     atom   39 type  4   force =     0.00002953   -0.00050067   -0.00003119
     atom   40 type  4   force =    -0.00003152   -0.00030325    0.00002470
     atom   41 type  4   force =    -0.00006751    0.00019159    0.00016749
     atom   42 type  4   force =    -0.00059901    0.00005258   -0.00058459
     atom   43 type  4   force =     0.00088507    0.00060740    0.00026035
     atom   44 type  4   force =    -0.00033077    0.00015388    0.00025944
     atom   45 type  4   force =     0.00007501    0.00013545   -0.00008676
     atom   46 type  4   force =    -0.00026535    0.00001800   -0.00029129
     atom   47 type  4   force =     0.00000525   -0.00024349   -0.00017587
     atom   48 type  4   force =    -0.00018424   -0.00000004   -0.00008699
     atom   49 type  4   force =    -0.00028965    0.00021360    0.00010513
     atom   50 type  4   force =    -0.00018221   -0.00076957   -0.00025193
     atom   51 type  4   force =    -0.00018109    0.00006787    0.00016734
     atom   52 type  4   force =    -0.00006349    0.00035998   -0.00002412
     atom   53 type  1   force =    -0.00043319    0.00076882    0.00280744
     atom   54 type  1   force =     0.00085640    0.00032349   -0.00160607
     atom   55 type  2   force =     0.00161664    0.00149897    0.00566269
     atom   56 type  1   force =    -0.00064483   -0.00087898   -0.00125314
     atom   57 type  1   force =     0.00037267    0.00003026   -0.00021341
     atom   58 type  1   force =    -0.00001909    0.00025461   -0.00002053
     atom   59 type  1   force =     0.00211658   -0.00118848   -0.00116618
     atom   60 type  2   force =     0.00000400   -0.00001209   -0.00198483
     atom   61 type  2   force =     0.00058341    0.00114814    0.00413425
     atom   62 type  1   force =    -0.00038641   -0.00063739   -0.00146813
     atom   63 type  1   force =    -0.00029524    0.00014349   -0.00028850
     atom   64 type  1   force =     0.00007781    0.00000443    0.00009110
     atom   65 type  3   force =    -0.00021003   -0.00101818   -0.00211284
     atom   66 type  3   force =    -0.00029190    0.00038331    0.00114732
     atom   67 type  3   force =    -0.00020813   -0.00150916    0.00160874
     atom   68 type  3   force =    -0.00071536    0.00082375   -0.00094753
     atom   69 type  4   force =    -0.00069776    0.00040227    0.00063882
     atom   70 type  4   force =     0.00061871   -0.00076554   -0.00105358
     atom   71 type  4   force =     0.00042861    0.00051011   -0.00028064
     atom   72 type  4   force =     0.00019659   -0.00043450    0.00153589
     atom   73 type  4   force =    -0.00074722    0.00073403    0.00179326
     atom   74 type  4   force =     0.00151324   -0.00271784   -0.00238908
     atom   75 type  4   force =    -0.00175607    0.00061744   -0.00004997
     atom   76 type  4   force =     0.00003234   -0.00065089    0.00154795
     atom   77 type  4   force =    -0.00053824   -0.00020131    0.00062117
     atom   78 type  4   force =    -0.00099827    0.00067816   -0.00015532
     atom   79 type  4   force =     0.00040353    0.00025604    0.00065290
     atom   80 type  4   force =     0.00024965    0.00103474   -0.00024277
     atom   81 type  4   force =    -0.00051885   -0.00155137   -0.00104497
     atom   82 type  4   force =     0.00106573   -0.00138449    0.00075916
     atom   83 type  4   force =    -0.00004133    0.00071953    0.00039425
     atom   84 type  4   force =    -0.00063679    0.00027073    0.00055546
     atom   85 type  3   force =    -0.00028118   -0.00089785   -0.00264318
     atom   86 type  3   force =     0.00078135    0.00182995    0.00361362
     atom   87 type  3   force =    -0.00052418   -0.00061171   -0.00026943
     atom   88 type  3   force =    -0.00068465    0.00085877   -0.00080956
     atom   89 type  4   force =    -0.00009093   -0.00014982    0.00040221
     atom   90 type  4   force =    -0.00048853   -0.00043608   -0.00119896
     atom   91 type  4   force =     0.00028672    0.00025631   -0.00027776
     atom   92 type  4   force =     0.00032361   -0.00033446    0.00107728
     atom   93 type  4   force =    -0.00002615    0.00120382    0.00109852
     atom   94 type  4   force =     0.00181305    0.00068562    0.00310289
     atom   95 type  4   force =    -0.00037141   -0.00001397   -0.00027465
     atom   96 type  4   force =    -0.00026172   -0.00021280    0.00124560
     atom   97 type  4   force =    -0.00006782   -0.00071822    0.00076070
     atom   98 type  4   force =    -0.00041691    0.00057608   -0.00009824
     atom   99 type  4   force =     0.00074233   -0.00009930    0.00075227
     atom  100 type  4   force =     0.00084452    0.00073037   -0.00028746
     atom  101 type  4   force =    -0.00035902   -0.00083053   -0.00076846
     atom  102 type  4   force =     0.00142147   -0.00170983    0.00036575
     atom  103 type  4   force =     0.00046281    0.00022787    0.00030970
     atom  104 type  4   force =    -0.00012936   -0.00057028   -0.00011287
     atom  105 type  1   force =    -0.00079176    0.00191704   -0.00660219
     atom  106 type  1   force =     0.02810091    0.01363180    0.02232069
     atom  107 type  2   force =     0.00164559    0.00035476   -0.01034070
     atom  108 type  1   force =    -0.03098432    0.02287146    0.01707321
     atom  109 type  1   force =     0.00406336   -0.00294891   -0.00314747
     atom  110 type  1   force =    -0.00137250   -0.00633760   -0.00514748
     atom  111 type  1   force =    -0.00367034    0.00227084   -0.00581769
     atom  112 type  2   force =     0.03224717    0.01647314   -0.00992689
     atom  113 type  2   force =     0.00151254    0.00110268   -0.00994116
     atom  114 type  1   force =    -0.03173345    0.02415665    0.01802784
     atom  115 type  1   force =     0.00355424   -0.00482643   -0.00411385
     atom  116 type  1   force =    -0.00479207   -0.00797463   -0.00627401
     atom  117 type  3   force =    -0.02899391   -0.03569252   -0.06275949
     atom  118 type  3   force =     0.00318222    0.00036505   -0.00694133
     atom  119 type  3   force =     0.00072676   -0.00066192   -0.00913454
     atom  120 type  3   force =     0.02797274   -0.05775104   -0.08372833
     atom  121 type  4   force =    -0.00651141   -0.00319361    0.03046079
     atom  122 type  4   force =    -0.00143662   -0.00114649    0.00266219
     atom  123 type  4   force =     0.00156468   -0.00102799    0.00489656
     atom  124 type  4   force =     0.00352493    0.00316838    0.03402485
     atom  125 type  4   force =    -0.00227351   -0.00228409    0.03406012
     atom  126 type  4   force =    -0.00080288    0.00062827    0.00290482
     atom  127 type  4   force =     0.00214482    0.00309954    0.00426387
     atom  128 type  4   force =    -0.00314642   -0.00173873    0.02223004
     atom  129 type  4   force =    -0.01250615    0.03639549    0.00498297
     atom  130 type  4   force =    -0.00152218    0.00040287    0.00234569
     atom  131 type  4   force =    -0.01946765    0.00357997    0.00996091
     atom  132 type  4   force =    -0.00101297    0.00355662    0.00433839
     atom  133 type  4   force =    -0.00301469    0.00064536    0.00240951
     atom  134 type  4   force =     0.00149938   -0.00427523    0.00352475
     atom  135 type  4   force =     0.01378514    0.02359372   -0.00089261
     atom  136 type  4   force =     0.01320545   -0.00064689    0.00241936
     atom  137 type  3   force =    -0.03818893   -0.04126121   -0.06617616
     atom  138 type  3   force =     0.00647483   -0.00301457   -0.00139258
     atom  139 type  3   force =     0.00028233   -0.00156771   -0.00939942
     atom  140 type  3   force =     0.02905727   -0.05119031   -0.08329079
     atom  141 type  4   force =    -0.00101322    0.00275800    0.02934891
     atom  142 type  4   force =     0.00049057    0.00233685   -0.00620529
     atom  143 type  4   force =     0.00162536   -0.00088347    0.00430822
     atom  144 type  4   force =     0.00420777    0.00184112    0.03463438
     atom  145 type  4   force =     0.00897960    0.00382014    0.03119179
     atom  146 type  4   force =    -0.00026201    0.00049209    0.00163821
     atom  147 type  4   force =     0.00266220    0.00341130    0.00389624
     atom  148 type  4   force =    -0.00393705   -0.00139797    0.02214163
     atom  149 type  4   force =    -0.00995280    0.03019419    0.00426924
     atom  150 type  4   force =    -0.00194778    0.00049126    0.00278617
     atom  151 type  4   force =    -0.01853119    0.00505082    0.00992885
     atom  152 type  4   force =    -0.00076018    0.00345483    0.00432631
     atom  153 type  4   force =    -0.00139893    0.00027156    0.00297712
     atom  154 type  4   force =     0.00217361   -0.00244029    0.00282926
     atom  155 type  4   force =     0.01473841    0.02462589    0.00017554
     atom  156 type  4   force =     0.02235066   -0.00368177    0.00146140
     atom  157 type  4   force =     0.01291094    0.00721005   -0.00589376
     atom  158 type  5   force =    -0.01101430   -0.00715170    0.00249879

     Total force =     0.238433     Total SCF correction =     0.003834
 
     init_run     :      9.77s CPU     10.60s WALL (       1 calls)
     electrons    :   1330.45s CPU   1390.89s WALL (       1 calls)
     forces       :      4.23s CPU      4.68s WALL (       1 calls)
     force_london :      0.11s CPU      0.11s WALL (       1 calls)

     Called by init_run:
     wfcinit      :      5.62s CPU      5.82s WALL (       1 calls)
     potinit      :      0.60s CPU      0.82s WALL (       1 calls)
     hinit0       :      1.69s CPU      1.82s WALL (       1 calls)

     Called by electrons:
     c_bands      :   1052.45s CPU   1084.86s WALL (      81 calls)
     sum_band     :    174.60s CPU    189.66s WALL (      81 calls)
     v_of_rho     :     24.40s CPU     25.70s WALL (      82 calls)
     newd         :     49.96s CPU     61.50s WALL (      82 calls)
     mix_rho      :     27.77s CPU     28.17s WALL (      81 calls)
     energy_londo :      0.12s CPU      0.12s WALL (       1 calls)

     Called by c_bands:
     init_us_2    :      2.97s CPU      3.04s WALL (     328 calls)
     init_us_2:cp :      2.97s CPU      3.04s WALL (     328 calls)
     regterg      :   1032.64s CPU   1064.78s WALL (     165 calls)

     Called by *egterg:
     rdiaghg      :    283.53s CPU    299.16s WALL (     669 calls)
     h_psi        :    418.74s CPU    426.63s WALL (     671 calls)
     s_psi        :     67.57s CPU     67.62s WALL (     671 calls)
     g_psi        :      0.49s CPU      0.49s WALL (     504 calls)

     Called by h_psi:
     h_psi:calbec :     96.56s CPU    103.07s WALL (     671 calls)
     vloc_psi     :    253.21s CPU    253.93s WALL (     671 calls)
     add_vuspsi   :     67.96s CPU     68.61s WALL (     671 calls)

     General routines
     calbec       :    142.12s CPU    151.84s WALL (     841 calls)
     fft          :     27.09s CPU     29.23s WALL (    1489 calls)
     ffts         :     16.91s CPU     16.95s WALL (   10085 calls)
     fftw         :    287.27s CPU    288.07s WALL (  281112 calls)
     interpolate  :      1.86s CPU      1.94s WALL (     164 calls)
 
     Parallel routines
 
     PWSCF        :  22m26.79s CPU  23m28.77s WALL

 
   This run was terminated on:  21:39:38  17Nov2025            

=------------------------------------------------------------------------------=
   JOB DONE.
=------------------------------------------------------------------------------=
