
     Program PWSCF v.7.2 starts on 18Nov2025 at  0:14:36 

     This program is part of the open-source Quantum ESPRESSO suite
     for quantum simulation of materials; please cite
         "P. Giannozzi et al., J. Phys.:Condens. Matter 21 395502 (2009);
         "P. Giannozzi et al., J. Phys.:Condens. Matter 29 465901 (2017);
         "P. Giannozzi et al., J. Chem. Phys. 152 154105 (2020);
          URL http://www.quantum-espresso.org", 
     in publications or presentations arising from this work. More details at
     http://www.quantum-espresso.org/quote

     Parallel version (MPI), running on    64 processors

     MPI processes distributed on     4 nodes
     380528 MiB available memory on the printing compute node when the environment starts
 
     Reading input from PWINPUT_atm158_xm

     Current dimensions of program PWSCF are:
     Max number of different atomic species (ntypx) = 10
     Max number of k-points (npk) =  40000
     Max angular momentum in pseudopotentials (lmaxx) =  4
     Presently no symmetry can be used with electric field

     file Ni.pbe-n-rrkjus_psl.1.0.0.UPF: wavefunction(s)  3D renormalized
     file Mn.pbe-spn-rrkjus_psl.0.3.1.UPF: wavefunction(s)  3D renormalized
     file O.pbe-rrkjus.UPF: wavefunction(s)  2S renormalized
     file H.pbe-rrkjus.UPF: wavefunction(s)  1S renormalized

     gamma-point specific algorithms are used
 
     R & G space division:  proc/nbgrp/npool/nimage =      64
     Subspace diagonalization in iterative solution of the eigenvalue problem:
     one sub-group per band group will be used
     custom distributed-memory algorithm (size of sub-group:  7*  7 procs)

 
     Parallelization info
     --------------------
     sticks:   dense  smooth     PW     G-vecs:    dense   smooth      PW
     Min         214      85     20                61830    15614    1928
     Max         216      86     22                61864    15658    1982
     Sum       13727    5503   1375              3958051  1001255  125211
 
     Using Slab Decomposition
 


     bravais-lattice index     =            0
     lattice parameter (alat)  =      17.8532  a.u.
     unit-cell volume          =   20962.6682 (a.u.)^3
     number of atoms/cell      =          158
     number of atomic types    =            5
     number of electrons       =      1108.00
     number of Kohn-Sham states=          665
     kinetic-energy cutoff     =      50.0000  Ry
     charge density cutoff     =     500.0000  Ry
     scf convergence threshold =      1.0E-06
     mixing beta               =       0.1000
     number of iterations used =            8  local-TF  mixing
     Exchange-correlation=  SLA  PW   PBE  PBE
                           (   1   4   3   4   0   0   0)

     celldm(1)=  17.853155  celldm(2)=   0.000000  celldm(3)=   0.000000
     celldm(4)=   0.000000  celldm(5)=   0.000000  celldm(6)=   0.000000

     crystal axes: (cart. coord. in units of alat)
               a(1) = (   1.000000   0.000000   0.000000 )  
               a(2) = (   0.003237   1.081997   0.000000 )  
               a(3) = (   0.000000   0.000000   3.404673 )  

     reciprocal axes: (cart. coord. in units 2 pi/alat)
               b(1) = (  1.000000 -0.002992  0.000000 )  
               b(2) = (  0.000000  0.924217  0.000000 )  
               b(3) = (  0.000000  0.000000  0.293714 )  


     PseudoPot. # 1 for Ni read from file:
     ~/PSEUDO/Ni.pbe-n-rrkjus_psl.1.0.0.UPF
     MD5 check sum: Not computed, couldn't open file
     Pseudo is Ultrasoft + core correction, Zval = 10.0
     Generated using "atomic" code by A. Dal Corso  v.5.1.2
     Using radial grid of 1195 points,  6 beta functions with: 
                l(1) =   0
                l(2) =   0
                l(3) =   1
                l(4) =   1
                l(5) =   2
                l(6) =   2
     Q(r) pseudized with 0 coefficients 


     PseudoPot. # 2 for Mn read from file:
     ~/PSEUDO/Mn.pbe-spn-rrkjus_psl.0.3.1.UPF
     MD5 check sum: Not computed, couldn't open file
     Pseudo is Ultrasoft + core correction, Zval = 15.0
     Generated using &quot;atomic&quot; code by A. Dal Corso  v.6.2.2
     Using radial grid of 1187 points,  6 beta functions with: 
                l(1) =   0
                l(2) =   0
                l(3) =   1
                l(4) =   1
                l(5) =   2
                l(6) =   2
     Q(r) pseudized with 0 coefficients 


     PseudoPot. # 3 for P  read from file:
     ~/PSEUDO/P.pbe-n-rrkjus_psl.1.0.0.UPF
     MD5 check sum: Not computed, couldn't open file
     Pseudo is Ultrasoft + core correction, Zval =  5.0
     Generated using "atomic" code by A. Dal Corso  v.5.1
     Using radial grid of 1147 points,  6 beta functions with: 
                l(1) =   0
                l(2) =   0
                l(3) =   1
                l(4) =   1
                l(5) =   2
                l(6) =   2
     Q(r) pseudized with 0 coefficients 


     PseudoPot. # 4 for O  read from file:
     ~/PSEUDO/O.pbe-rrkjus.UPF
     MD5 check sum: Not computed, couldn't open file
     Pseudo is Ultrasoft, Zval =  6.0
     Generated by new atomic code, or converted to UPF format
     Using radial grid of 1269 points,  4 beta functions with: 
                l(1) =   0
                l(2) =   0
                l(3) =   1
                l(4) =   1
     Q(r) pseudized with 0 coefficients 


     PseudoPot. # 5 for H  read from file:
     ~/PSEUDO/H.pbe-rrkjus.UPF
     MD5 check sum: Not computed, couldn't open file
     Pseudo is Ultrasoft, Zval =  1.0
     Generated by new atomic code, or converted to UPF format
     Using radial grid of 1061 points,  2 beta functions with: 
                l(1) =   0
                l(2) =   0
     Q(r) pseudized with 0 coefficients 


     atomic species   valence    mass     pseudopotential
     Ni               10.00    58.69300     Ni( 1.00)
     Mn               15.00    54.93800     Mn( 1.00)
     P                 5.00    30.97300     P ( 1.00)
     O                 6.00    15.99900     O ( 1.00)
     H                 1.00     1.00790     H ( 1.00)

     Starting magnetic structure 
     atomic species   magnetization
     Ni              1.000
     Mn              1.000
     P               1.000
     O               1.000
     H               0.000

     No symmetry found



   Cartesian axes

     site n.     atom                  positions (alat units)
         1        Ni     tau(   1) = (   0.2422259   0.8412654   1.7135021  )
         2        Ni     tau(   2) = (   0.4939939   0.7703882   1.3745235  )
         3        Mn     tau(   3) = (   0.0000622   0.2881594   1.6998608  )
         4        Ni     tau(   4) = (   0.2575438   0.2247311   1.3772755  )
         5        Ni     tau(   5) = (   1.0001613   1.0688286   1.5379356  )
         6        Ni     tau(   6) = (   0.2547438   0.5337506   1.5423852  )
         7        Ni     tau(   7) = (   0.7513156   0.8294534   1.6816756  )
         8        Mn     tau(   8) = (   0.9892084   0.7665403   1.3736225  )
         9        Mn     tau(   9) = (   0.4989277   0.2948958   1.6996914  )
        10        Ni     tau(  10) = (   0.7551301   0.2242805   1.3768936  )
        11        Ni     tau(  11) = (   0.4972159   1.0711780   1.5373138  )
        12        Ni     tau(  12) = (   0.7540948   0.5300080   1.5408646  )
        13        P      tau(  13) = (   0.2134946   0.9657767   1.3822356  )
        14        P      tau(  14) = (   0.4661089   0.6500297   1.6909232  )
        15        P      tau(  15) = (   0.2845404   0.0987020   1.6930817  )
        16        P      tau(  16) = (   0.0413508   0.4217554   1.3879311  )
        17        O      tau(  17) = (   0.1375837   0.8978226   1.5176406  )
        18        O      tau(  18) = (   0.3887107   0.7011557   1.5470611  )
        19        O      tau(  19) = (   0.3618628   0.1611333   1.5509837  )
        20        O      tau(  20) = (   0.1189827   0.3568247   1.5240423  )
        21        O      tau(  21) = (   0.1540234   0.8767886   1.2572786  )
        22        O      tau(  22) = (   0.4110393   0.7496192   1.8050939  )
        23        O      tau(  23) = (   0.3377663   0.1986516   1.8089954  )
        24        O      tau(  24) = (   0.0997683   0.3312674   1.2645563  )
        25        O      tau(  25) = (   0.0989528   0.5758934   1.3854866  )
        26        O      tau(  26) = (   0.3497729   1.0280907   1.6930286  )
        27        O      tau(  27) = (   0.3790282   0.4183038   1.3960614  )
        28        O      tau(  28) = (   0.1208846   0.1037110   1.6793767  )
        29        O      tau(  29) = (   0.1286718   0.6449077   1.6890912  )
        30        O      tau(  30) = (   0.4112377   0.4929637   1.7009712  )
        31        O      tau(  31) = (   0.1495635   0.0377931   1.3821793  )
        32        O      tau(  32) = (   0.3765682   0.9602194   1.3906658  )
        33        P      tau(  33) = (   0.7075432   0.9666523   1.3784783  )
        34        P      tau(  34) = (   0.9652203   0.6409374   1.7033271  )
        35        P      tau(  35) = (   0.7832453   0.0931683   1.6926874  )
        36        P      tau(  36) = (   0.5417589   0.4270160   1.3849132  )
        37        O      tau(  37) = (   0.6313395   0.8958630   1.5135851  )
        38        O      tau(  38) = (   0.8885617   0.6990470   1.5595003  )
        39        O      tau(  39) = (   0.8598518   0.1543399   1.5504633  )
        40        O      tau(  40) = (   0.6193560   0.3582236   1.5201696  )
        41        O      tau(  41) = (   0.6486466   0.8777050   1.2536013  )
        42        O      tau(  42) = (   0.9019443   0.7356849   1.8178004  )
        43        O      tau(  43) = (   0.8422733   0.1897880   1.8089519  )
        44        O      tau(  44) = (   0.6013153   0.3355234   1.2622316  )
        45        O      tau(  45) = (   0.6019813   0.5803347   1.3826084  )
        46        O      tau(  46) = (   0.8418205   1.0195119   1.6947938  )
        47        O      tau(  47) = (   0.8784115   0.4141755   1.3983387  )
        48        O      tau(  48) = (   0.6198107   0.1022917   1.6830133  )
        49        O      tau(  49) = (   0.6307259   0.6490344   1.6799765  )
        50        O      tau(  50) = (   0.9102631   0.4838853   1.7042751  )
        51        O      tau(  51) = (   0.6452681   0.0385369   1.3812216  )
        52        O      tau(  52) = (   0.8702745   0.9586382   1.3915595  )
        53        Ni     tau(  53) = (   0.2420320   0.8169913   1.0699082  )
        54        Ni     tau(  54) = (   0.4893084   0.7542727   0.7477128  )
        55        Mn     tau(  55) = (   0.0085152   0.2729728   1.0755565  )
        56        Ni     tau(  56) = (   0.2558246   0.2079345   0.7498450  )
        57        Ni     tau(  57) = (   0.9991959   1.0516583   0.9080455  )
        58        Ni     tau(  58) = (   0.2490231   0.5149840   0.9092594  )
        59        Ni     tau(  59) = (   0.7373131   0.8159965   1.0690453  )
        60        Mn     tau(  60) = (   0.9859093   0.7511625   0.7423903  )
        61        Mn     tau(  61) = (   0.5085552   0.2755447   1.0757185  )
        62        Ni     tau(  62) = (   0.7532989   0.2074622   0.7493279  )
        63        Ni     tau(  63) = (   0.4981517   1.0523018   0.9093468  )
        64        Ni     tau(  64) = (   0.7469109   0.5147379   0.9081681  )
        65        P      tau(  65) = (   0.2119924   0.9497675   0.7533413  )
        66        P      tau(  66) = (   0.4579509   0.6252695   1.0650744  )
        67        P      tau(  67) = (   0.2855349   0.0724244   1.0650326  )
        68        P      tau(  68) = (   0.0381112   0.4032615   0.7561117  )
        69        O      tau(  69) = (   0.1352995   0.8818598   0.8892857  )
        70        O      tau(  70) = (   0.3789570   0.6924463   0.9291468  )
        71        O      tau(  71) = (   0.3610496   0.1419327   0.9291660  )
        72        O      tau(  72) = (   0.1179700   0.3356534   0.8894858  )
        73        O      tau(  73) = (   0.1524325   0.8608343   0.6290918  )
        74        O      tau(  74) = (   0.3994952   0.7128748   1.1905493  )
        75        O      tau(  75) = (   0.3426976   0.1634744   1.1889742  )
        76        O      tau(  76) = (   0.0989151   0.3155758   0.6321220  )
        77        O      tau(  77) = (   0.0942206   0.5581494   0.7569623  )
        78        O      tau(  78) = (   0.3506297   1.0014456   1.0645371  )
        79        O      tau(  79) = (   0.3750155   0.3983181   0.7655049  )
        80        O      tau(  80) = (   0.1228303   0.0764842   1.0543924  )
        81        O      tau(  81) = (   0.1204299   0.6293201   1.0530905  )
        82        O      tau(  82) = (   0.4000664   0.4708612   1.0626359  )
        83        O      tau(  83) = (   0.1483182   0.0216333   0.7546099  )
        84        O      tau(  84) = (   0.3748687   0.9435072   0.7627918  )
        85        P      tau(  85) = (   0.7056901   0.9492898   0.7521526  )
        86        P      tau(  86) = (   0.9575286   0.6220438   1.0623609  )
        87        P      tau(  87) = (   0.7847866   0.0710549   1.0641979  )
        88        P      tau(  88) = (   0.5377283   0.4083400   0.7551622  )
        89        O      tau(  89) = (   0.6295714   0.8788409   0.8879407  )
        90        O      tau(  90) = (   0.8781778   0.6902700   0.9288966  )
        91        O      tau(  91) = (   0.8603186   0.1398018   0.9279591  )
        92        O      tau(  92) = (   0.6174712   0.3389159   0.8881839  )
        93        O      tau(  93) = (   0.6471291   0.8583376   0.6285166  )
        94        O      tau(  94) = (   0.8962302   0.7094244   1.1861651  )
        95        O      tau(  95) = (   0.8420493   0.1616933   1.1885419  )
        96        O      tau(  96) = (   0.5995227   0.3203391   0.6315608  )
        97        O      tau(  97) = (   0.5932354   0.5636910   0.7569738  )
        98        O      tau(  98) = (   0.8487155   0.9994995   1.0634446  )
        99        O      tau(  99) = (   0.8751772   0.3959680   0.7655094  )
       100        O      tau( 100) = (   0.6223291   0.0767949   1.0539182  )
       101        O      tau( 101) = (   0.6209785   0.6292365   1.0537708  )
       102        O      tau( 102) = (   0.9010178   0.4674118   1.0608723  )
       103        O      tau( 103) = (   0.6430869   0.0213354   0.7538098  )
       104        O      tau( 104) = (   0.8684566   0.9446034   0.7630440  )
       105        Ni     tau( 105) = (   0.2392451   0.7980692   0.4424501  )
       106        Ni     tau( 106) = (   0.4865215   0.7353506   0.1202547  )
       107        Mn     tau( 107) = (   0.0057284   0.2540508   0.4480984  )
       108        Ni     tau( 108) = (   0.2530377   0.1890124   0.1223869  )
       109        Ni     tau( 109) = (   0.9964090   1.0327362   0.2805874  )
       110        Ni     tau( 110) = (   0.2462362   0.4960619   0.2818013  )
       111        Ni     tau( 111) = (   0.7345262   0.7970744   0.4415872  )
       112        Mn     tau( 112) = (   0.9831224   0.7322404   0.1149322  )
       113        Mn     tau( 113) = (   0.5057684   0.2566226   0.4482604  )
       114        Ni     tau( 114) = (   0.7505120   0.1885401   0.1218698  )
       115        Ni     tau( 115) = (   0.4953648   1.0333797   0.2818887  )
       116        Ni     tau( 116) = (   0.7441241   0.4958159   0.2807100  )
       117        P      tau( 117) = (   0.2092055   0.9308455   0.1258832  )
       118        P      tau( 118) = (   0.4551640   0.6063475   0.4376163  )
       119        P      tau( 119) = (   0.2827481   0.0535023   0.4375745  )
       120        P      tau( 120) = (   0.0353243   0.3843395   0.1286536  )
       121        O      tau( 121) = (   0.1325127   0.8629378   0.2618276  )
       122        O      tau( 122) = (   0.3761702   0.6735242   0.3016887  )
       123        O      tau( 123) = (   0.3582627   0.1230106   0.3017079  )
       124        O      tau( 124) = (   0.1151831   0.3167313   0.2620277  )
       125        O      tau( 125) = (   0.1496456   0.8419122   0.0016337  )
       126        O      tau( 126) = (   0.3967083   0.6939527   0.5630912  )
       127        O      tau( 127) = (   0.3399107   0.1445523   0.5615161  )
       128        O      tau( 128) = (   0.0961282   0.2966537   0.0046639  )
       129        O      tau( 129) = (   0.0914337   0.5392273   0.1295042  )
       130        O      tau( 130) = (   0.3478428   0.9825235   0.4370790  )
       131        O      tau( 131) = (   0.3722287   0.3793961   0.1380469  )
       132        O      tau( 132) = (   0.1200434   0.0575621   0.4269343  )
       133        O      tau( 133) = (   0.1176431   0.6103980   0.4256324  )
       134        O      tau( 134) = (   0.3972796   0.4519391   0.4351778  )
       135        O      tau( 135) = (   0.1455313   0.0027113   0.1271518  )
       136        O      tau( 136) = (   0.3720819   0.9245852   0.1353338  )
       137        P      tau( 137) = (   0.7029032   0.9303678   0.1246945  )
       138        P      tau( 138) = (   0.9547417   0.6031217   0.4349028  )
       139        P      tau( 139) = (   0.7819997   0.0521328   0.4367398  )
       140        P      tau( 140) = (   0.5349415   0.3894179   0.1277041  )
       141        O      tau( 141) = (   0.6267846   0.8599188   0.2604826  )
       142        O      tau( 142) = (   0.8753909   0.6713480   0.3014385  )
       143        O      tau( 143) = (   0.8575317   0.1208797   0.3005010  )
       144        O      tau( 144) = (   0.6146843   0.3199938   0.2607258  )
       145        O      tau( 145) = (   0.6443422   0.8394155   0.0010585  )
       146        O      tau( 146) = (   0.8934434   0.6905023   0.5587070  )
       147        O      tau( 147) = (   0.8392624   0.1427713   0.5610838  )
       148        O      tau( 148) = (   0.5967359   0.3014171   0.0041027  )
       149        O      tau( 149) = (   0.5904485   0.5447689   0.1295157  )
       150        O      tau( 150) = (   0.8459286   0.9805774   0.4359865  )
       151        O      tau( 151) = (   0.8723903   0.3770459   0.1380513  )
       152        O      tau( 152) = (   0.6195422   0.0578729   0.4264602  )
       153        O      tau( 153) = (   0.6181917   0.6103144   0.4263127  )
       154        O      tau( 154) = (   0.8982309   0.4484897   0.4334142  )
       155        O      tau( 155) = (   0.6403000   0.0024133   0.1263517  )
       156        O      tau( 156) = (   0.8656697   0.9256814   0.1355859  )
       157        O      tau( 157) = (   1.1309085   0.9213103   1.8489698  )
       158        H      tau( 158) = (   1.0468923   0.8617503   1.8725428  )

     -------------------------------------------------
     Parameters for Dispersion (Grimme-D2) Correction:
     -------------------------------------------------
       atom      VdW radius       C_6     

        Ni         2.952        374.666
        Mn         2.952        374.666
        P          3.222        271.980
        O          2.536         24.284
        H          1.892          4.857

     number of k points=     1  Gaussian smearing, width (Ry)=  0.0100
                       cart. coord. in units 2pi/alat
        k(    1) = (   0.0000000   0.0000000   0.0000000), wk =   1.0000000

     Dense  grid:  1979026 G-vectors     FFT dimensions: ( 128, 144, 450)

     Smooth grid:   500628 G-vectors     FFT dimensions: (  81,  90, 288)

     Estimated max dynamical RAM per process >     333.40 MB

     Estimated total dynamical RAM >      20.84 GB

     Check: negative core charge=   -0.000002
     Generating pointlists ...
     new r_m :   0.0795 (alat units)  1.4194 (a.u.) for type    1
     new r_m :   0.0884 (alat units)  1.5790 (a.u.) for type    2
     new r_m :   0.0665 (alat units)  1.1872 (a.u.) for type    3
     new r_m :   0.0436 (alat units)  0.7780 (a.u.) for type    4
     new r_m :   0.0436 (alat units)  0.7780 (a.u.) for type    5

     Initial potential from superposition of free atoms

     starting charge    1107.8886, renormalised to    1108.0000

     negative rho (up, down):  1.506E-03 4.665E-04
 
     Adding external electric field

     Computed dipole along edir(3) : 
        Dipole                1.6401 Ry au,          4.1686 Debye
        Dipole field          0.0010 Ry au, 
 
        Potential amp.       -0.1076 Ry
        Total length         54.7057 bohr
 
 
     Adding external electric field

     Computed dipole along edir(3) : 
        Dipole                1.6401 Ry au,          4.1686 Debye
        Dipole field          0.0010 Ry au, 
 
        Potential amp.       -0.1076 Ry
        Total length         54.7057 bohr
 
     Starting wfcs are  818 randomized atomic wfcs

     total cpu time spent up to now is       17.9 secs

     Self-consistent Calculation

     iteration #  1     ecut=    50.00 Ry     beta= 0.10
     Davidson diagonalization with overlap
     ethr =  1.00E-02,  avg # of iterations =  5.5

     negative rho (up, down):  4.555E-01 5.006E-07
 
     Adding external electric field

     Computed dipole along edir(3) : 
        Dipole               -3.3503 Ry au,         -8.5157 Debye
        Dipole field         -0.0020 Ry au, 
 
        Potential amp.        0.2197 Ry
        Total length         54.7057 bohr
 
 
     Adding external electric field

     Computed dipole along edir(3) : 
        Dipole               -3.3503 Ry au,         -8.5157 Debye
        Dipole field         -0.0020 Ry au, 
 
        Potential amp.        0.2197 Ry
        Total length         54.7057 bohr
 

     total cpu time spent up to now is       53.4 secs

     total energy              =   -7858.98209401 Ry
     estimated scf accuracy    <     733.18341151 Ry

     total magnetization       =   222.00 Bohr mag/cell
     absolute magnetization    =   320.12 Bohr mag/cell

     iteration #  2     ecut=    50.00 Ry     beta= 0.10
     Davidson diagonalization with overlap
     ethr =  1.00E-02,  avg # of iterations =  2.0

     negative rho (up, down):  4.168E-01 4.344E-07
 
     Adding external electric field

     Computed dipole along edir(3) : 
        Dipole               -2.5164 Ry au,         -6.3961 Debye
        Dipole field         -0.0015 Ry au, 
 
        Potential amp.        0.1650 Ry
        Total length         54.7057 bohr
 
 
     Adding external electric field

     Computed dipole along edir(3) : 
        Dipole               -2.5164 Ry au,         -6.3961 Debye
        Dipole field         -0.0015 Ry au, 
 
        Potential amp.        0.1650 Ry
        Total length         54.7057 bohr
 

     total cpu time spent up to now is       73.6 secs

     total energy              =   -7942.04339775 Ry
     estimated scf accuracy    <     159.85865415 Ry

     total magnetization       =   161.05 Bohr mag/cell
     absolute magnetization    =   209.83 Bohr mag/cell

     iteration #  3     ecut=    50.00 Ry     beta= 0.10
     Davidson diagonalization with overlap
     ethr =  1.00E-02,  avg # of iterations =  1.0

     negative rho (up, down):  3.629E-01 4.012E-07
 
     Adding external electric field

     Computed dipole along edir(3) : 
        Dipole               -2.0464 Ry au,         -5.2015 Debye
        Dipole field         -0.0012 Ry au, 
 
        Potential amp.        0.1342 Ry
        Total length         54.7057 bohr
 
 
     Adding external electric field

     Computed dipole along edir(3) : 
        Dipole               -2.0464 Ry au,         -5.2015 Debye
        Dipole field         -0.0012 Ry au, 
 
        Potential amp.        0.1342 Ry
        Total length         54.7057 bohr
 

     total cpu time spent up to now is       89.2 secs

     total energy              =   -7975.38010493 Ry
     estimated scf accuracy    <     103.97623560 Ry

     total magnetization       =   139.66 Bohr mag/cell
     absolute magnetization    =   189.96 Bohr mag/cell

     iteration #  4     ecut=    50.00 Ry     beta= 0.10
     Davidson diagonalization with overlap
     ethr =  9.38E-03,  avg # of iterations =  1.0

     negative rho (up, down):  2.921E-01 2.254E-07
 
     Adding external electric field

     Computed dipole along edir(3) : 
        Dipole               -2.0895 Ry au,         -5.3109 Debye
        Dipole field         -0.0013 Ry au, 
 
        Potential amp.        0.1370 Ry
        Total length         54.7057 bohr
 
 
     Adding external electric field

     Computed dipole along edir(3) : 
        Dipole               -2.0895 Ry au,         -5.3109 Debye
        Dipole field         -0.0013 Ry au, 
 
        Potential amp.        0.1370 Ry
        Total length         54.7057 bohr
 

     total cpu time spent up to now is      105.0 secs

     total energy              =   -8003.23162804 Ry
     estimated scf accuracy    <      82.03068479 Ry

     total magnetization       =   122.24 Bohr mag/cell
     absolute magnetization    =   174.90 Bohr mag/cell

     iteration #  5     ecut=    50.00 Ry     beta= 0.10
     Davidson diagonalization with overlap
     ethr =  7.40E-03,  avg # of iterations =  1.0

     negative rho (up, down):  3.169E-02 9.067E-08
 
     Adding external electric field

     Computed dipole along edir(3) : 
        Dipole               -1.5250 Ry au,         -3.8762 Debye
        Dipole field         -0.0009 Ry au, 
 
        Potential amp.        0.1000 Ry
        Total length         54.7057 bohr
 
 
     Adding external electric field

     Computed dipole along edir(3) : 
        Dipole               -1.5250 Ry au,         -3.8762 Debye
        Dipole field         -0.0009 Ry au, 
 
        Potential amp.        0.1000 Ry
        Total length         54.7057 bohr
 

     total cpu time spent up to now is      121.3 secs

     total energy              =   -8064.23876494 Ry
     estimated scf accuracy    <      67.44089903 Ry

     total magnetization       =   106.16 Bohr mag/cell
     absolute magnetization    =   159.55 Bohr mag/cell

     iteration #  6     ecut=    50.00 Ry     beta= 0.10
     Davidson diagonalization with overlap
     ethr =  6.09E-03,  avg # of iterations =  1.0

     negative rho (up, down):  3.033E-05 5.566E-05
 
     Adding external electric field

     Computed dipole along edir(3) : 
        Dipole               -1.0461 Ry au,         -2.6590 Debye
        Dipole field         -0.0006 Ry au, 
 
        Potential amp.        0.0686 Ry
        Total length         54.7057 bohr
 
 
     Adding external electric field

     Computed dipole along edir(3) : 
        Dipole               -1.0461 Ry au,         -2.6590 Debye
        Dipole field         -0.0006 Ry au, 
 
        Potential amp.        0.0686 Ry
        Total length         54.7057 bohr
 

     total cpu time spent up to now is      136.6 secs

     total energy              =   -8076.34459523 Ry
     estimated scf accuracy    <      14.72926483 Ry

     total magnetization       =   100.00 Bohr mag/cell
     absolute magnetization    =   131.85 Bohr mag/cell

     iteration #  7     ecut=    50.00 Ry     beta= 0.10
     Davidson diagonalization with overlap
     ethr =  1.33E-03,  avg # of iterations =  6.5

     negative rho (up, down):  2.884E-05 5.359E-05
 
     Adding external electric field

     Computed dipole along edir(3) : 
        Dipole               -1.0402 Ry au,         -2.6439 Debye
        Dipole field         -0.0006 Ry au, 
 
        Potential amp.        0.0682 Ry
        Total length         54.7057 bohr
 
 
     Adding external electric field

     Computed dipole along edir(3) : 
        Dipole               -1.0402 Ry au,         -2.6439 Debye
        Dipole field         -0.0006 Ry au, 
 
        Potential amp.        0.0682 Ry
        Total length         54.7057 bohr
 

     total cpu time spent up to now is      164.2 secs

     total energy              =   -8078.80797964 Ry
     estimated scf accuracy    <      33.06054354 Ry

     total magnetization       =    69.91 Bohr mag/cell
     absolute magnetization    =    87.74 Bohr mag/cell

     iteration #  8     ecut=    50.00 Ry     beta= 0.10
     Davidson diagonalization with overlap
     ethr =  1.33E-03,  avg # of iterations =  1.0

     negative rho (up, down):  2.740E-05 5.826E-05
 
     Adding external electric field

     Computed dipole along edir(3) : 
        Dipole               -1.0334 Ry au,         -2.6266 Debye
        Dipole field         -0.0006 Ry au, 
 
        Potential amp.        0.0678 Ry
        Total length         54.7057 bohr
 
 
     Adding external electric field

     Computed dipole along edir(3) : 
        Dipole               -1.0334 Ry au,         -2.6266 Debye
        Dipole field         -0.0006 Ry au, 
 
        Potential amp.        0.0678 Ry
        Total length         54.7057 bohr
 

     total cpu time spent up to now is      179.3 secs

     total energy              =   -8078.97525654 Ry
     estimated scf accuracy    <      32.79215216 Ry

     total magnetization       =    69.92 Bohr mag/cell
     absolute magnetization    =    87.34 Bohr mag/cell

     iteration #  9     ecut=    50.00 Ry     beta= 0.10
     Davidson diagonalization with overlap
     ethr =  1.33E-03,  avg # of iterations =  1.0

     negative rho (up, down):  2.407E-05 5.799E-05
 
     Adding external electric field

     Computed dipole along edir(3) : 
        Dipole               -1.0232 Ry au,         -2.6006 Debye
        Dipole field         -0.0006 Ry au, 
 
        Potential amp.        0.0671 Ry
        Total length         54.7057 bohr
 
 
     Adding external electric field

     Computed dipole along edir(3) : 
        Dipole               -1.0232 Ry au,         -2.6006 Debye
        Dipole field         -0.0006 Ry au, 
 
        Potential amp.        0.0671 Ry
        Total length         54.7057 bohr
 

     total cpu time spent up to now is      194.5 secs

     total energy              =   -8078.80481629 Ry
     estimated scf accuracy    <      34.22053040 Ry

     total magnetization       =    69.44 Bohr mag/cell
     absolute magnetization    =    86.57 Bohr mag/cell

     iteration # 10     ecut=    50.00 Ry     beta= 0.10
     Davidson diagonalization with overlap
     ethr =  1.33E-03,  avg # of iterations =  1.0

     negative rho (up, down):  6.451E-05 1.190E-04
 
     Adding external electric field

     Computed dipole along edir(3) : 
        Dipole               -1.0126 Ry au,         -2.5738 Debye
        Dipole field         -0.0006 Ry au, 
 
        Potential amp.        0.0664 Ry
        Total length         54.7057 bohr
 
 
     Adding external electric field

     Computed dipole along edir(3) : 
        Dipole               -1.0126 Ry au,         -2.5738 Debye
        Dipole field         -0.0006 Ry au, 
 
        Potential amp.        0.0664 Ry
        Total length         54.7057 bohr
 

     total cpu time spent up to now is      208.9 secs

     total energy              =   -8077.67335481 Ry
     estimated scf accuracy    <      31.07625425 Ry

     total magnetization       =    69.97 Bohr mag/cell
     absolute magnetization    =    86.40 Bohr mag/cell

     iteration # 11     ecut=    50.00 Ry     beta= 0.10
     Davidson diagonalization with overlap
     ethr =  1.33E-03,  avg # of iterations =  1.0

     negative rho (up, down):  9.183E-05 1.711E-04
 
     Adding external electric field

     Computed dipole along edir(3) : 
        Dipole               -0.9388 Ry au,         -2.3861 Debye
        Dipole field         -0.0006 Ry au, 
 
        Potential amp.        0.0616 Ry
        Total length         54.7057 bohr
 
 
     Adding external electric field

     Computed dipole along edir(3) : 
        Dipole               -0.9388 Ry au,         -2.3861 Debye
        Dipole field         -0.0006 Ry au, 
 
        Potential amp.        0.0616 Ry
        Total length         54.7057 bohr
 

     total cpu time spent up to now is      223.8 secs

     total energy              =   -8078.14857746 Ry
     estimated scf accuracy    <       6.65267712 Ry

     total magnetization       =    90.33 Bohr mag/cell
     absolute magnetization    =   101.46 Bohr mag/cell

     iteration # 12     ecut=    50.00 Ry     beta= 0.10
     Davidson diagonalization with overlap
     ethr =  6.00E-04,  avg # of iterations =  2.0

     negative rho (up, down):  8.710E-05 1.883E-04
 
     Adding external electric field

     Computed dipole along edir(3) : 
        Dipole               -0.9228 Ry au,         -2.3456 Debye
        Dipole field         -0.0006 Ry au, 
 
        Potential amp.        0.0605 Ry
        Total length         54.7057 bohr
 
 
     Adding external electric field

     Computed dipole along edir(3) : 
        Dipole               -0.9228 Ry au,         -2.3456 Debye
        Dipole field         -0.0006 Ry au, 
 
        Potential amp.        0.0605 Ry
        Total length         54.7057 bohr
 

     total cpu time spent up to now is      241.5 secs

     total energy              =   -8078.22104634 Ry
     estimated scf accuracy    <       3.39379747 Ry

     total magnetization       =    95.73 Bohr mag/cell
     absolute magnetization    =   104.28 Bohr mag/cell

     iteration # 13     ecut=    50.00 Ry     beta= 0.10
     Davidson diagonalization with overlap
     ethr =  3.06E-04,  avg # of iterations =  3.5

     negative rho (up, down):  8.289E-05 2.006E-04
 
     Adding external electric field

     Computed dipole along edir(3) : 
        Dipole               -0.8681 Ry au,         -2.2066 Debye
        Dipole field         -0.0005 Ry au, 
 
        Potential amp.        0.0569 Ry
        Total length         54.7057 bohr
 
 
     Adding external electric field

     Computed dipole along edir(3) : 
        Dipole               -0.8681 Ry au,         -2.2066 Debye
        Dipole field         -0.0005 Ry au, 
 
        Potential amp.        0.0569 Ry
        Total length         54.7057 bohr
 

     total cpu time spent up to now is      259.8 secs

     total energy              =   -8078.18703089 Ry
     estimated scf accuracy    <       3.01596560 Ry

     total magnetization       =    95.38 Bohr mag/cell
     absolute magnetization    =   103.53 Bohr mag/cell

     iteration # 14     ecut=    50.00 Ry     beta= 0.10
     Davidson diagonalization with overlap
     ethr =  2.72E-04,  avg # of iterations =  3.5

     negative rho (up, down):  6.648E-05 1.550E-04
 
     Adding external electric field

     Computed dipole along edir(3) : 
        Dipole               -0.8405 Ry au,         -2.1363 Debye
        Dipole field         -0.0005 Ry au, 
 
        Potential amp.        0.0551 Ry
        Total length         54.7057 bohr
 
 
     Adding external electric field

     Computed dipole along edir(3) : 
        Dipole               -0.8405 Ry au,         -2.1363 Debye
        Dipole field         -0.0005 Ry au, 
 
        Potential amp.        0.0551 Ry
        Total length         54.7057 bohr
 

     total cpu time spent up to now is      278.2 secs

     total energy              =   -8078.27979129 Ry
     estimated scf accuracy    <       1.09091338 Ry

     total magnetization       =    98.69 Bohr mag/cell
     absolute magnetization    =   105.31 Bohr mag/cell

     iteration # 15     ecut=    50.00 Ry     beta= 0.10
     Davidson diagonalization with overlap
     ethr =  9.85E-05,  avg # of iterations =  3.0

     negative rho (up, down):  5.663E-05 1.390E-04
 
     Adding external electric field

     Computed dipole along edir(3) : 
        Dipole               -0.8274 Ry au,         -2.1031 Debye
        Dipole field         -0.0005 Ry au, 
 
        Potential amp.        0.0543 Ry
        Total length         54.7057 bohr
 
 
     Adding external electric field

     Computed dipole along edir(3) : 
        Dipole               -0.8274 Ry au,         -2.1031 Debye
        Dipole field         -0.0005 Ry au, 
 
        Potential amp.        0.0543 Ry
        Total length         54.7057 bohr
 

     total cpu time spent up to now is      296.3 secs

     total energy              =   -8078.27325672 Ry
     estimated scf accuracy    <       0.89422851 Ry

     total magnetization       =    97.96 Bohr mag/cell
     absolute magnetization    =   104.38 Bohr mag/cell

     iteration # 16     ecut=    50.00 Ry     beta= 0.10
     Davidson diagonalization with overlap
     c_bands:  4 eigenvalues not converged
     ethr =  8.07E-05,  avg # of iterations = 10.5

     negative rho (up, down):  3.697E-05 8.571E-05
 
     Adding external electric field

     Computed dipole along edir(3) : 
        Dipole               -0.8263 Ry au,         -2.1003 Debye
        Dipole field         -0.0005 Ry au, 
 
        Potential amp.        0.0542 Ry
        Total length         54.7057 bohr
 
 
     Adding external electric field

     Computed dipole along edir(3) : 
        Dipole               -0.8263 Ry au,         -2.1003 Debye
        Dipole field         -0.0005 Ry au, 
 
        Potential amp.        0.0542 Ry
        Total length         54.7057 bohr
 

     total cpu time spent up to now is      321.7 secs

     total energy              =   -8078.27933579 Ry
     estimated scf accuracy    <       0.81366674 Ry

     total magnetization       =    97.45 Bohr mag/cell
     absolute magnetization    =   103.66 Bohr mag/cell

     iteration # 17     ecut=    50.00 Ry     beta= 0.10
     Davidson diagonalization with overlap
     ethr =  7.34E-05,  avg # of iterations =  2.0

     negative rho (up, down):  7.418E-06 2.080E-05
 
     Adding external electric field

     Computed dipole along edir(3) : 
        Dipole               -0.7499 Ry au,         -1.9062 Debye
        Dipole field         -0.0004 Ry au, 
 
        Potential amp.        0.0492 Ry
        Total length         54.7057 bohr
 
 
     Adding external electric field

     Computed dipole along edir(3) : 
        Dipole               -0.7499 Ry au,         -1.9062 Debye
        Dipole field         -0.0004 Ry au, 
 
        Potential amp.        0.0492 Ry
        Total length         54.7057 bohr
 

     total cpu time spent up to now is      339.2 secs

     total energy              =   -8078.39190362 Ry
     estimated scf accuracy    <       0.87582127 Ry

     total magnetization       =    96.63 Bohr mag/cell
     absolute magnetization    =   102.68 Bohr mag/cell

     iteration # 18     ecut=    50.00 Ry     beta= 0.10
     Davidson diagonalization with overlap
     ethr =  7.34E-05,  avg # of iterations =  1.0

     negative rho (up, down):  1.776E-06 1.277E-05
 
     Adding external electric field

     Computed dipole along edir(3) : 
        Dipole               -0.6802 Ry au,         -1.7289 Debye
        Dipole field         -0.0004 Ry au, 
 
        Potential amp.        0.0446 Ry
        Total length         54.7057 bohr
 
 
     Adding external electric field

     Computed dipole along edir(3) : 
        Dipole               -0.6802 Ry au,         -1.7289 Debye
        Dipole field         -0.0004 Ry au, 
 
        Potential amp.        0.0446 Ry
        Total length         54.7057 bohr
 

     total cpu time spent up to now is      354.4 secs

     total energy              =   -8078.47661637 Ry
     estimated scf accuracy    <       0.39963716 Ry

     total magnetization       =    96.37 Bohr mag/cell
     absolute magnetization    =   101.12 Bohr mag/cell

     iteration # 19     ecut=    50.00 Ry     beta= 0.10
     Davidson diagonalization with overlap
     ethr =  3.61E-05,  avg # of iterations =  2.0

     negative rho (up, down):  2.177E-06 1.211E-05
 
     Adding external electric field

     Computed dipole along edir(3) : 
        Dipole               -0.6712 Ry au,         -1.7061 Debye
        Dipole field         -0.0004 Ry au, 
 
        Potential amp.        0.0440 Ry
        Total length         54.7057 bohr
 
 
     Adding external electric field

     Computed dipole along edir(3) : 
        Dipole               -0.6712 Ry au,         -1.7061 Debye
        Dipole field         -0.0004 Ry au, 
 
        Potential amp.        0.0440 Ry
        Total length         54.7057 bohr
 

     total cpu time spent up to now is      371.5 secs

     total energy              =   -8078.49716124 Ry
     estimated scf accuracy    <       0.57699483 Ry

     total magnetization       =    95.49 Bohr mag/cell
     absolute magnetization    =    98.97 Bohr mag/cell

     iteration # 20     ecut=    50.00 Ry     beta= 0.10
     Davidson diagonalization with overlap
     ethr =  3.61E-05,  avg # of iterations =  1.0

     negative rho (up, down):  2.277E-06 3.811E-05
 
     Adding external electric field

     Computed dipole along edir(3) : 
        Dipole               -0.6205 Ry au,         -1.5770 Debye
        Dipole field         -0.0004 Ry au, 
 
        Potential amp.        0.0407 Ry
        Total length         54.7057 bohr
 
 
     Adding external electric field

     Computed dipole along edir(3) : 
        Dipole               -0.6205 Ry au,         -1.5770 Debye
        Dipole field         -0.0004 Ry au, 
 
        Potential amp.        0.0407 Ry
        Total length         54.7057 bohr
 

     total cpu time spent up to now is      386.8 secs

     total energy              =   -8078.54949757 Ry
     estimated scf accuracy    <       1.04610511 Ry

     total magnetization       =    94.35 Bohr mag/cell
     absolute magnetization    =    97.94 Bohr mag/cell

     iteration # 21     ecut=    50.00 Ry     beta= 0.10
     Davidson diagonalization with overlap
     ethr =  3.61E-05,  avg # of iterations =  1.5

     negative rho (up, down):  2.264E-06 6.773E-06
 
     Adding external electric field

     Computed dipole along edir(3) : 
        Dipole               -0.6392 Ry au,         -1.6246 Debye
        Dipole field         -0.0004 Ry au, 
 
        Potential amp.        0.0419 Ry
        Total length         54.7057 bohr
 
 
     Adding external electric field

     Computed dipole along edir(3) : 
        Dipole               -0.6392 Ry au,         -1.6246 Debye
        Dipole field         -0.0004 Ry au, 
 
        Potential amp.        0.0419 Ry
        Total length         54.7057 bohr
 

     total cpu time spent up to now is      403.2 secs

     total energy              =   -8078.55012008 Ry
     estimated scf accuracy    <       1.10327928 Ry

     total magnetization       =    93.59 Bohr mag/cell
     absolute magnetization    =    95.91 Bohr mag/cell

     iteration # 22     ecut=    50.00 Ry     beta= 0.10
     Davidson diagonalization with overlap
     ethr =  3.61E-05,  avg # of iterations =  1.0

     negative rho (up, down):  3.043E-06 4.906E-06
 
     Adding external electric field

     Computed dipole along edir(3) : 
        Dipole               -0.6310 Ry au,         -1.6039 Debye
        Dipole field         -0.0004 Ry au, 
 
        Potential amp.        0.0414 Ry
        Total length         54.7057 bohr
 
 
     Adding external electric field

     Computed dipole along edir(3) : 
        Dipole               -0.6310 Ry au,         -1.6039 Debye
        Dipole field         -0.0004 Ry au, 
 
        Potential amp.        0.0414 Ry
        Total length         54.7057 bohr
 

     total cpu time spent up to now is      418.7 secs

     total energy              =   -8078.55581305 Ry
     estimated scf accuracy    <       0.63357132 Ry

     total magnetization       =    94.95 Bohr mag/cell
     absolute magnetization    =    97.29 Bohr mag/cell

     iteration # 23     ecut=    50.00 Ry     beta= 0.10
     Davidson diagonalization with overlap
     ethr =  3.61E-05,  avg # of iterations =  1.0

     negative rho (up, down):  2.966E-06 3.309E-06
 
     Adding external electric field

     Computed dipole along edir(3) : 
        Dipole               -0.6133 Ry au,         -1.5588 Debye
        Dipole field         -0.0004 Ry au, 
 
        Potential amp.        0.0402 Ry
        Total length         54.7057 bohr
 
 
     Adding external electric field

     Computed dipole along edir(3) : 
        Dipole               -0.6133 Ry au,         -1.5588 Debye
        Dipole field         -0.0004 Ry au, 
 
        Potential amp.        0.0402 Ry
        Total length         54.7057 bohr
 

     total cpu time spent up to now is      432.5 secs

     total energy              =   -8078.55563379 Ry
     estimated scf accuracy    <       0.32812982 Ry

     total magnetization       =    95.57 Bohr mag/cell
     absolute magnetization    =    97.57 Bohr mag/cell

     iteration # 24     ecut=    50.00 Ry     beta= 0.10
     Davidson diagonalization with overlap
     ethr =  2.96E-05,  avg # of iterations =  1.5

     negative rho (up, down):  2.661E-06 2.332E-06
 
     Adding external electric field

     Computed dipole along edir(3) : 
        Dipole               -0.5698 Ry au,         -1.4484 Debye
        Dipole field         -0.0003 Ry au, 
 
        Potential amp.        0.0374 Ry
        Total length         54.7057 bohr
 
 
     Adding external electric field

     Computed dipole along edir(3) : 
        Dipole               -0.5698 Ry au,         -1.4484 Debye
        Dipole field         -0.0003 Ry au, 
 
        Potential amp.        0.0374 Ry
        Total length         54.7057 bohr
 

     total cpu time spent up to now is      447.3 secs

     total energy              =   -8078.55387200 Ry
     estimated scf accuracy    <       0.28785644 Ry

     total magnetization       =    95.74 Bohr mag/cell
     absolute magnetization    =    97.64 Bohr mag/cell

     iteration # 25     ecut=    50.00 Ry     beta= 0.10
     Davidson diagonalization with overlap
     ethr =  2.60E-05,  avg # of iterations =  1.5

     negative rho (up, down):  2.970E-06 2.691E-06
 
     Adding external electric field

     Computed dipole along edir(3) : 
        Dipole               -0.5677 Ry au,         -1.4430 Debye
        Dipole field         -0.0003 Ry au, 
 
        Potential amp.        0.0372 Ry
        Total length         54.7057 bohr
 
 
     Adding external electric field

     Computed dipole along edir(3) : 
        Dipole               -0.5677 Ry au,         -1.4430 Debye
        Dipole field         -0.0003 Ry au, 
 
        Potential amp.        0.0372 Ry
        Total length         54.7057 bohr
 

     total cpu time spent up to now is      463.1 secs

     total energy              =   -8078.55998988 Ry
     estimated scf accuracy    <       0.23751671 Ry

     total magnetization       =    96.81 Bohr mag/cell
     absolute magnetization    =    98.34 Bohr mag/cell

     iteration # 26     ecut=    50.00 Ry     beta= 0.10
     Davidson diagonalization with overlap
     ethr =  2.14E-05,  avg # of iterations =  1.0

     negative rho (up, down):  1.506E-06 1.411E-06
 
     Adding external electric field

     Computed dipole along edir(3) : 
        Dipole               -0.5026 Ry au,         -1.2775 Debye
        Dipole field         -0.0003 Ry au, 
 
        Potential amp.        0.0330 Ry
        Total length         54.7057 bohr
 
 
     Adding external electric field

     Computed dipole along edir(3) : 
        Dipole               -0.5026 Ry au,         -1.2775 Debye
        Dipole field         -0.0003 Ry au, 
 
        Potential amp.        0.0330 Ry
        Total length         54.7057 bohr
 

     total cpu time spent up to now is      477.5 secs

     total energy              =   -8078.55441521 Ry
     estimated scf accuracy    <       0.16078168 Ry

     total magnetization       =    96.84 Bohr mag/cell
     absolute magnetization    =    98.29 Bohr mag/cell

     iteration # 27     ecut=    50.00 Ry     beta= 0.10
     Davidson diagonalization with overlap
     ethr =  1.45E-05,  avg # of iterations =  2.0

     negative rho (up, down):  1.269E-06 1.201E-06
 
     Adding external electric field

     Computed dipole along edir(3) : 
        Dipole               -0.4646 Ry au,         -1.1809 Debye
        Dipole field         -0.0003 Ry au, 
 
        Potential amp.        0.0305 Ry
        Total length         54.7057 bohr
 
 
     Adding external electric field

     Computed dipole along edir(3) : 
        Dipole               -0.4646 Ry au,         -1.1809 Debye
        Dipole field         -0.0003 Ry au, 
 
        Potential amp.        0.0305 Ry
        Total length         54.7057 bohr
 

     total cpu time spent up to now is      494.0 secs

     total energy              =   -8078.55630875 Ry
     estimated scf accuracy    <       0.05015445 Ry

     total magnetization       =    97.37 Bohr mag/cell
     absolute magnetization    =    98.63 Bohr mag/cell

     iteration # 28     ecut=    50.00 Ry     beta= 0.10
     Davidson diagonalization with overlap
     c_bands:  2 eigenvalues not converged
     ethr =  4.53E-06,  avg # of iterations = 11.0

     negative rho (up, down):  1.510E-06 1.402E-06
 
     Adding external electric field

     Computed dipole along edir(3) : 
        Dipole               -0.4210 Ry au,         -1.0700 Debye
        Dipole field         -0.0003 Ry au, 
 
        Potential amp.        0.0276 Ry
        Total length         54.7057 bohr
 
 
     Adding external electric field

     Computed dipole along edir(3) : 
        Dipole               -0.4210 Ry au,         -1.0700 Debye
        Dipole field         -0.0003 Ry au, 
 
        Potential amp.        0.0276 Ry
        Total length         54.7057 bohr
 

     total cpu time spent up to now is      522.9 secs

     total energy              =   -8078.55625255 Ry
     estimated scf accuracy    <       0.04719120 Ry

     total magnetization       =    97.31 Bohr mag/cell
     absolute magnetization    =    98.51 Bohr mag/cell

     iteration # 29     ecut=    50.00 Ry     beta= 0.10
     Davidson diagonalization with overlap
     c_bands:  4 eigenvalues not converged
     ethr =  4.26E-06,  avg # of iterations = 10.5

     negative rho (up, down):  1.394E-06 1.171E-06
 
     Adding external electric field

     Computed dipole along edir(3) : 
        Dipole               -0.4048 Ry au,         -1.0290 Debye
        Dipole field         -0.0002 Ry au, 
 
        Potential amp.        0.0266 Ry
        Total length         54.7057 bohr
 
 
     Adding external electric field

     Computed dipole along edir(3) : 
        Dipole               -0.4048 Ry au,         -1.0290 Debye
        Dipole field         -0.0002 Ry au, 
 
        Potential amp.        0.0266 Ry
        Total length         54.7057 bohr
 

     total cpu time spent up to now is      545.3 secs

     total energy              =   -8078.55521015 Ry
     estimated scf accuracy    <       0.06778070 Ry

     total magnetization       =    97.07 Bohr mag/cell
     absolute magnetization    =    98.23 Bohr mag/cell

     iteration # 30     ecut=    50.00 Ry     beta= 0.10
     Davidson diagonalization with overlap
     c_bands:  4 eigenvalues not converged
     ethr =  4.26E-06,  avg # of iterations = 10.5

     negative rho (up, down):  1.901E-06 1.157E-06
 
     Adding external electric field

     Computed dipole along edir(3) : 
        Dipole               -0.3587 Ry au,         -0.9117 Debye
        Dipole field         -0.0002 Ry au, 
 
        Potential amp.        0.0235 Ry
        Total length         54.7057 bohr
 
 
     Adding external electric field

     Computed dipole along edir(3) : 
        Dipole               -0.3587 Ry au,         -0.9117 Debye
        Dipole field         -0.0002 Ry au, 
 
        Potential amp.        0.0235 Ry
        Total length         54.7057 bohr
 

     total cpu time spent up to now is      566.3 secs

     total energy              =   -8078.55688902 Ry
     estimated scf accuracy    <       0.04757191 Ry

     total magnetization       =    97.32 Bohr mag/cell
     absolute magnetization    =    98.44 Bohr mag/cell

     iteration # 31     ecut=    50.00 Ry     beta= 0.10
     Davidson diagonalization with overlap
     ethr =  4.26E-06,  avg # of iterations =  2.5

     negative rho (up, down):  1.153E-06 9.304E-07
 
     Adding external electric field

     Computed dipole along edir(3) : 
        Dipole               -0.3728 Ry au,         -0.9474 Debye
        Dipole field         -0.0002 Ry au, 
 
        Potential amp.        0.0244 Ry
        Total length         54.7057 bohr
 
 
     Adding external electric field

     Computed dipole along edir(3) : 
        Dipole               -0.3728 Ry au,         -0.9474 Debye
        Dipole field         -0.0002 Ry au, 
 
        Potential amp.        0.0244 Ry
        Total length         54.7057 bohr
 

     total cpu time spent up to now is      583.4 secs

     total energy              =   -8078.55766481 Ry
     estimated scf accuracy    <       0.05376736 Ry

     total magnetization       =    97.36 Bohr mag/cell
     absolute magnetization    =    98.48 Bohr mag/cell

     iteration # 32     ecut=    50.00 Ry     beta= 0.10
     Davidson diagonalization with overlap
     ethr =  4.26E-06,  avg # of iterations =  1.5

     negative rho (up, down):  8.593E-07 8.055E-07
 
     Adding external electric field

     Computed dipole along edir(3) : 
        Dipole               -0.3942 Ry au,         -1.0020 Debye
        Dipole field         -0.0002 Ry au, 
 
        Potential amp.        0.0259 Ry
        Total length         54.7057 bohr
 
 
     Adding external electric field

     Computed dipole along edir(3) : 
        Dipole               -0.3942 Ry au,         -1.0020 Debye
        Dipole field         -0.0002 Ry au, 
 
        Potential amp.        0.0259 Ry
        Total length         54.7057 bohr
 

     total cpu time spent up to now is      599.2 secs

     total energy              =   -8078.55802175 Ry
     estimated scf accuracy    <       0.05411814 Ry

     total magnetization       =    97.37 Bohr mag/cell
     absolute magnetization    =    98.51 Bohr mag/cell

     iteration # 33     ecut=    50.00 Ry     beta= 0.10
     Davidson diagonalization with overlap
     ethr =  4.26E-06,  avg # of iterations =  1.0

     negative rho (up, down):  1.041E-06 9.448E-07
 
     Adding external electric field

     Computed dipole along edir(3) : 
        Dipole               -0.4299 Ry au,         -1.0928 Debye
        Dipole field         -0.0003 Ry au, 
 
        Potential amp.        0.0282 Ry
        Total length         54.7057 bohr
 
 
     Adding external electric field

     Computed dipole along edir(3) : 
        Dipole               -0.4299 Ry au,         -1.0928 Debye
        Dipole field         -0.0003 Ry au, 
 
        Potential amp.        0.0282 Ry
        Total length         54.7057 bohr
 

     total cpu time spent up to now is      613.2 secs

     total energy              =   -8078.55735207 Ry
     estimated scf accuracy    <       0.05363252 Ry

     total magnetization       =    97.36 Bohr mag/cell
     absolute magnetization    =    98.51 Bohr mag/cell

     iteration # 34     ecut=    50.00 Ry     beta= 0.10
     Davidson diagonalization with overlap
     ethr =  4.26E-06,  avg # of iterations =  1.5

     negative rho (up, down):  1.101E-06 8.892E-07
 
     Adding external electric field

     Computed dipole along edir(3) : 
        Dipole               -0.4320 Ry au,         -1.0981 Debye
        Dipole field         -0.0003 Ry au, 
 
        Potential amp.        0.0283 Ry
        Total length         54.7057 bohr
 
 
     Adding external electric field

     Computed dipole along edir(3) : 
        Dipole               -0.4320 Ry au,         -1.0981 Debye
        Dipole field         -0.0003 Ry au, 
 
        Potential amp.        0.0283 Ry
        Total length         54.7057 bohr
 

     total cpu time spent up to now is      628.7 secs

     total energy              =   -8078.55671474 Ry
     estimated scf accuracy    <       0.05133000 Ry

     total magnetization       =    97.31 Bohr mag/cell
     absolute magnetization    =    98.41 Bohr mag/cell

     iteration # 35     ecut=    50.00 Ry     beta= 0.10
     Davidson diagonalization with overlap
     ethr =  4.26E-06,  avg # of iterations =  1.5

     negative rho (up, down):  1.189E-06 9.335E-07
 
     Adding external electric field

     Computed dipole along edir(3) : 
        Dipole               -0.5623 Ry au,         -1.4291 Debye
        Dipole field         -0.0003 Ry au, 
 
        Potential amp.        0.0369 Ry
        Total length         54.7057 bohr
 
 
     Adding external electric field

     Computed dipole along edir(3) : 
        Dipole               -0.5623 Ry au,         -1.4291 Debye
        Dipole field         -0.0003 Ry au, 
 
        Potential amp.        0.0369 Ry
        Total length         54.7057 bohr
 

     total cpu time spent up to now is      644.9 secs

     total energy              =   -8078.55418489 Ry
     estimated scf accuracy    <       0.04796221 Ry

     total magnetization       =    97.35 Bohr mag/cell
     absolute magnetization    =    98.45 Bohr mag/cell

     iteration # 36     ecut=    50.00 Ry     beta= 0.10
     Davidson diagonalization with overlap
     ethr =  4.26E-06,  avg # of iterations =  2.0

     negative rho (up, down):  1.649E-06 1.226E-06
 
     Adding external electric field

     Computed dipole along edir(3) : 
        Dipole               -0.5069 Ry au,         -1.2885 Debye
        Dipole field         -0.0003 Ry au, 
 
        Potential amp.        0.0332 Ry
        Total length         54.7057 bohr
 
 
     Adding external electric field

     Computed dipole along edir(3) : 
        Dipole               -0.5069 Ry au,         -1.2885 Debye
        Dipole field         -0.0003 Ry au, 
 
        Potential amp.        0.0332 Ry
        Total length         54.7057 bohr
 

     total cpu time spent up to now is      662.1 secs

     total energy              =   -8078.55829518 Ry
     estimated scf accuracy    <       0.08653170 Ry

     total magnetization       =    97.06 Bohr mag/cell
     absolute magnetization    =    98.17 Bohr mag/cell

     iteration # 37     ecut=    50.00 Ry     beta= 0.10
     Davidson diagonalization with overlap
     ethr =  4.26E-06,  avg # of iterations =  2.0

     negative rho (up, down):  4.191E-06 2.136E-06
 
     Adding external electric field

     Computed dipole along edir(3) : 
        Dipole               -0.4471 Ry au,         -1.1364 Debye
        Dipole field         -0.0003 Ry au, 
 
        Potential amp.        0.0293 Ry
        Total length         54.7057 bohr
 
 
     Adding external electric field

     Computed dipole along edir(3) : 
        Dipole               -0.4471 Ry au,         -1.1364 Debye
        Dipole field         -0.0003 Ry au, 
 
        Potential amp.        0.0293 Ry
        Total length         54.7057 bohr
 

     total cpu time spent up to now is      679.2 secs

     total energy              =   -8078.55100530 Ry
     estimated scf accuracy    <       0.31081770 Ry

     total magnetization       =    96.57 Bohr mag/cell
     absolute magnetization    =    97.74 Bohr mag/cell

     iteration # 38     ecut=    50.00 Ry     beta= 0.10
     Davidson diagonalization with overlap
     ethr =  4.26E-06,  avg # of iterations =  2.0

     negative rho (up, down):  1.064E-05 5.459E-06
 
     Adding external electric field

     Computed dipole along edir(3) : 
        Dipole               -0.4277 Ry au,         -1.0872 Debye
        Dipole field         -0.0003 Ry au, 
 
        Potential amp.        0.0281 Ry
        Total length         54.7057 bohr
 
 
     Adding external electric field

     Computed dipole along edir(3) : 
        Dipole               -0.4277 Ry au,         -1.0872 Debye
        Dipole field         -0.0003 Ry au, 
 
        Potential amp.        0.0281 Ry
        Total length         54.7057 bohr
 

     total cpu time spent up to now is      695.4 secs

     total energy              =   -8078.55552536 Ry
     estimated scf accuracy    <       0.04496765 Ry

     total magnetization       =    97.28 Bohr mag/cell
     absolute magnetization    =    98.41 Bohr mag/cell

     iteration # 39     ecut=    50.00 Ry     beta= 0.10
     Davidson diagonalization with overlap
     ethr =  4.06E-06,  avg # of iterations =  1.0

     negative rho (up, down):  8.230E-06 4.749E-06
 
     Adding external electric field

     Computed dipole along edir(3) : 
        Dipole               -0.3752 Ry au,         -0.9538 Debye
        Dipole field         -0.0002 Ry au, 
 
        Potential amp.        0.0246 Ry
        Total length         54.7057 bohr
 
 
     Adding external electric field

     Computed dipole along edir(3) : 
        Dipole               -0.3752 Ry au,         -0.9538 Debye
        Dipole field         -0.0002 Ry au, 
 
        Potential amp.        0.0246 Ry
        Total length         54.7057 bohr
 

     total cpu time spent up to now is      710.8 secs

     total energy              =   -8078.55581625 Ry
     estimated scf accuracy    <       0.06100276 Ry

     total magnetization       =    97.25 Bohr mag/cell
     absolute magnetization    =    98.45 Bohr mag/cell

     iteration # 40     ecut=    50.00 Ry     beta= 0.10
     Davidson diagonalization with overlap
     ethr =  4.06E-06,  avg # of iterations =  1.5

     negative rho (up, down):  2.560E-06 2.022E-06
 
     Adding external electric field

     Computed dipole along edir(3) : 
        Dipole               -0.4040 Ry au,         -1.0270 Debye
        Dipole field         -0.0002 Ry au, 
 
        Potential amp.        0.0265 Ry
        Total length         54.7057 bohr
 
 
     Adding external electric field

     Computed dipole along edir(3) : 
        Dipole               -0.4040 Ry au,         -1.0270 Debye
        Dipole field         -0.0002 Ry au, 
 
        Potential amp.        0.0265 Ry
        Total length         54.7057 bohr
 

     total cpu time spent up to now is      726.4 secs

     total energy              =   -8078.55761444 Ry
     estimated scf accuracy    <       0.04011815 Ry

     total magnetization       =    97.34 Bohr mag/cell
     absolute magnetization    =    98.44 Bohr mag/cell

     iteration # 41     ecut=    50.00 Ry     beta= 0.10
     Davidson diagonalization with overlap
     ethr =  3.62E-06,  avg # of iterations =  1.0

     negative rho (up, down):  3.606E-05 1.820E-05
 
     Adding external electric field

     Computed dipole along edir(3) : 
        Dipole               -0.2866 Ry au,         -0.7284 Debye
        Dipole field         -0.0002 Ry au, 
 
        Potential amp.        0.0188 Ry
        Total length         54.7057 bohr
 
 
     Adding external electric field

     Computed dipole along edir(3) : 
        Dipole               -0.2866 Ry au,         -0.7284 Debye
        Dipole field         -0.0002 Ry au, 
 
        Potential amp.        0.0188 Ry
        Total length         54.7057 bohr
 

     total cpu time spent up to now is      741.1 secs

     total energy              =   -8078.55552488 Ry
     estimated scf accuracy    <       0.03897755 Ry

     total magnetization       =    97.30 Bohr mag/cell
     absolute magnetization    =    98.44 Bohr mag/cell

     iteration # 42     ecut=    50.00 Ry     beta= 0.10
     Davidson diagonalization with overlap
     ethr =  3.52E-06,  avg # of iterations =  2.0

     negative rho (up, down):  6.546E-06 3.751E-06
 
     Adding external electric field

     Computed dipole along edir(3) : 
        Dipole               -0.3812 Ry au,         -0.9690 Debye
        Dipole field         -0.0002 Ry au, 
 
        Potential amp.        0.0250 Ry
        Total length         54.7057 bohr
 
 
     Adding external electric field

     Computed dipole along edir(3) : 
        Dipole               -0.3812 Ry au,         -0.9690 Debye
        Dipole field         -0.0002 Ry au, 
 
        Potential amp.        0.0250 Ry
        Total length         54.7057 bohr
 

     total cpu time spent up to now is      757.7 secs

     total energy              =   -8078.55686377 Ry
     estimated scf accuracy    <       0.04116439 Ry

     total magnetization       =    97.39 Bohr mag/cell
     absolute magnetization    =    98.50 Bohr mag/cell

     iteration # 43     ecut=    50.00 Ry     beta= 0.10
     Davidson diagonalization with overlap
     ethr =  3.52E-06,  avg # of iterations =  1.0

     negative rho (up, down):  1.340E-05 6.552E-06
 
     Adding external electric field

     Computed dipole along edir(3) : 
        Dipole               -0.3069 Ry au,         -0.7800 Debye
        Dipole field         -0.0002 Ry au, 
 
        Potential amp.        0.0201 Ry
        Total length         54.7057 bohr
 
 
     Adding external electric field

     Computed dipole along edir(3) : 
        Dipole               -0.3069 Ry au,         -0.7800 Debye
        Dipole field         -0.0002 Ry au, 
 
        Potential amp.        0.0201 Ry
        Total length         54.7057 bohr
 

     total cpu time spent up to now is      771.0 secs

     total energy              =   -8078.55646874 Ry
     estimated scf accuracy    <       0.03906625 Ry

     total magnetization       =    97.36 Bohr mag/cell
     absolute magnetization    =    98.45 Bohr mag/cell

     iteration # 44     ecut=    50.00 Ry     beta= 0.10
     Davidson diagonalization with overlap
     ethr =  3.52E-06,  avg # of iterations =  1.5

     negative rho (up, down):  5.475E-05 3.999E-05
 
     Adding external electric field

     Computed dipole along edir(3) : 
        Dipole               -0.1938 Ry au,         -0.4927 Debye
        Dipole field         -0.0001 Ry au, 
 
        Potential amp.        0.0127 Ry
        Total length         54.7057 bohr
 
 
     Adding external electric field

     Computed dipole along edir(3) : 
        Dipole               -0.1938 Ry au,         -0.4927 Debye
        Dipole field         -0.0001 Ry au, 
 
        Potential amp.        0.0127 Ry
        Total length         54.7057 bohr
 

     total cpu time spent up to now is      787.0 secs

     total energy              =   -8078.55574706 Ry
     estimated scf accuracy    <       0.03793427 Ry

     total magnetization       =    97.32 Bohr mag/cell
     absolute magnetization    =    98.45 Bohr mag/cell

     iteration # 45     ecut=    50.00 Ry     beta= 0.10
     Davidson diagonalization with overlap
     ethr =  3.42E-06,  avg # of iterations =  2.0

     negative rho (up, down):  8.306E-06 5.033E-06
 
     Adding external electric field

     Computed dipole along edir(3) : 
        Dipole               -0.2996 Ry au,         -0.7616 Debye
        Dipole field         -0.0002 Ry au, 
 
        Potential amp.        0.0197 Ry
        Total length         54.7057 bohr
 
 
     Adding external electric field

     Computed dipole along edir(3) : 
        Dipole               -0.2996 Ry au,         -0.7616 Debye
        Dipole field         -0.0002 Ry au, 
 
        Potential amp.        0.0197 Ry
        Total length         54.7057 bohr
 

     total cpu time spent up to now is      803.2 secs

     total energy              =   -8078.55616054 Ry
     estimated scf accuracy    <       0.04023654 Ry

     total magnetization       =    97.21 Bohr mag/cell
     absolute magnetization    =    98.37 Bohr mag/cell

     iteration # 46     ecut=    50.00 Ry     beta= 0.10
     Davidson diagonalization with overlap
     ethr =  3.42E-06,  avg # of iterations =  1.5

     negative rho (up, down):  1.030E-04 8.907E-05
 
     Adding external electric field

     Computed dipole along edir(3) : 
        Dipole               -0.1407 Ry au,         -0.3577 Debye
        Dipole field         -0.0001 Ry au, 
 
        Potential amp.        0.0092 Ry
        Total length         54.7057 bohr
 
 
     Adding external electric field

     Computed dipole along edir(3) : 
        Dipole               -0.1407 Ry au,         -0.3577 Debye
        Dipole field         -0.0001 Ry au, 
 
        Potential amp.        0.0092 Ry
        Total length         54.7057 bohr
 

     total cpu time spent up to now is      817.5 secs

     total energy              =   -8078.55616764 Ry
     estimated scf accuracy    <       0.06881850 Ry

     total magnetization       =    97.05 Bohr mag/cell
     absolute magnetization    =    98.25 Bohr mag/cell

     iteration # 47     ecut=    50.00 Ry     beta= 0.10
     Davidson diagonalization with overlap
     ethr =  3.42E-06,  avg # of iterations =  2.0

     negative rho (up, down):  1.447E-04 1.504E-04
 
     Adding external electric field

     Computed dipole along edir(3) : 
        Dipole               -0.0820 Ry au,         -0.2085 Debye
        Dipole field         -0.0000 Ry au, 
 
        Potential amp.        0.0054 Ry
        Total length         54.7057 bohr
 
 
     Adding external electric field

     Computed dipole along edir(3) : 
        Dipole               -0.0820 Ry au,         -0.2085 Debye
        Dipole field         -0.0000 Ry au, 
 
        Potential amp.        0.0054 Ry
        Total length         54.7057 bohr
 

     total cpu time spent up to now is      833.6 secs

     total energy              =   -8078.55442991 Ry
     estimated scf accuracy    <       0.08762911 Ry

     total magnetization       =    96.87 Bohr mag/cell
     absolute magnetization    =    98.03 Bohr mag/cell

     iteration # 48     ecut=    50.00 Ry     beta= 0.10
     Davidson diagonalization with overlap
     ethr =  3.42E-06,  avg # of iterations =  2.0

     negative rho (up, down):  1.958E-04 1.721E-04
 
     Adding external electric field

     Computed dipole along edir(3) : 
        Dipole               -0.1107 Ry au,         -0.2813 Debye
        Dipole field         -0.0001 Ry au, 
 
        Potential amp.        0.0073 Ry
        Total length         54.7057 bohr
 
 
     Adding external electric field

     Computed dipole along edir(3) : 
        Dipole               -0.1107 Ry au,         -0.2813 Debye
        Dipole field         -0.0001 Ry au, 
 
        Potential amp.        0.0073 Ry
        Total length         54.7057 bohr
 

     total cpu time spent up to now is      850.6 secs

     total energy              =   -8078.55527139 Ry
     estimated scf accuracy    <       0.04760602 Ry

     total magnetization       =    97.12 Bohr mag/cell
     absolute magnetization    =    98.26 Bohr mag/cell

     iteration # 49     ecut=    50.00 Ry     beta= 0.10
     Davidson diagonalization with overlap
     ethr =  3.42E-06,  avg # of iterations =  1.5

     negative rho (up, down):  4.511E-04 3.682E-04
 
     Adding external electric field

     Computed dipole along edir(3) : 
        Dipole               -0.1462 Ry au,         -0.3717 Debye
        Dipole field         -0.0001 Ry au, 
 
        Potential amp.        0.0096 Ry
        Total length         54.7057 bohr
 
 
     Adding external electric field

     Computed dipole along edir(3) : 
        Dipole               -0.1462 Ry au,         -0.3717 Debye
        Dipole field         -0.0001 Ry au, 
 
        Potential amp.        0.0096 Ry
        Total length         54.7057 bohr
 

     total cpu time spent up to now is      866.6 secs

     total energy              =   -8078.55472918 Ry
     estimated scf accuracy    <       0.03918342 Ry

     total magnetization       =    97.20 Bohr mag/cell
     absolute magnetization    =    98.35 Bohr mag/cell

     iteration # 50     ecut=    50.00 Ry     beta= 0.10
     Davidson diagonalization with overlap
     ethr =  3.42E-06,  avg # of iterations =  5.0

     negative rho (up, down):  6.302E-05 5.962E-05
 
     Adding external electric field

     Computed dipole along edir(3) : 
        Dipole               -0.1941 Ry au,         -0.4933 Debye
        Dipole field         -0.0001 Ry au, 
 
        Potential amp.        0.0127 Ry
        Total length         54.7057 bohr
 
 
     Adding external electric field

     Computed dipole along edir(3) : 
        Dipole               -0.1941 Ry au,         -0.4933 Debye
        Dipole field         -0.0001 Ry au, 
 
        Potential amp.        0.0127 Ry
        Total length         54.7057 bohr
 

     total cpu time spent up to now is      884.0 secs

     total energy              =   -8078.55533358 Ry
     estimated scf accuracy    <       0.04312643 Ry

     total magnetization       =    97.31 Bohr mag/cell
     absolute magnetization    =    98.45 Bohr mag/cell

     iteration # 51     ecut=    50.00 Ry     beta= 0.10
     Davidson diagonalization with overlap
     ethr =  3.42E-06,  avg # of iterations =  2.0

     negative rho (up, down):  3.461E-04 2.230E-04
 
     Adding external electric field

     Computed dipole along edir(3) : 
        Dipole               -0.0679 Ry au,         -0.1727 Debye
        Dipole field         -0.0000 Ry au, 
 
        Potential amp.        0.0045 Ry
        Total length         54.7057 bohr
 
 
     Adding external electric field

     Computed dipole along edir(3) : 
        Dipole               -0.0679 Ry au,         -0.1727 Debye
        Dipole field         -0.0000 Ry au, 
 
        Potential amp.        0.0045 Ry
        Total length         54.7057 bohr
 

     total cpu time spent up to now is      899.7 secs

     total energy              =   -8078.55310051 Ry
     estimated scf accuracy    <       0.03905981 Ry

     total magnetization       =    97.19 Bohr mag/cell
     absolute magnetization    =    98.45 Bohr mag/cell

     iteration # 52     ecut=    50.00 Ry     beta= 0.10
     Davidson diagonalization with overlap
     ethr =  3.42E-06,  avg # of iterations =  1.5

     negative rho (up, down):  1.188E-04 9.383E-05
 
     Adding external electric field

     Computed dipole along edir(3) : 
        Dipole               -0.1908 Ry au,         -0.4848 Debye
        Dipole field         -0.0001 Ry au, 
 
        Potential amp.        0.0125 Ry
        Total length         54.7057 bohr
 
 
     Adding external electric field

     Computed dipole along edir(3) : 
        Dipole               -0.1908 Ry au,         -0.4848 Debye
        Dipole field         -0.0001 Ry au, 
 
        Potential amp.        0.0125 Ry
        Total length         54.7057 bohr
 

     total cpu time spent up to now is      915.3 secs

     total energy              =   -8078.55519531 Ry
     estimated scf accuracy    <       0.03442788 Ry

     total magnetization       =    97.36 Bohr mag/cell
     absolute magnetization    =    98.54 Bohr mag/cell

     iteration # 53     ecut=    50.00 Ry     beta= 0.10
     Davidson diagonalization with overlap
     ethr =  3.11E-06,  avg # of iterations =  1.5

     negative rho (up, down):  2.676E-04 2.213E-04
 
     Adding external electric field

     Computed dipole along edir(3) : 
        Dipole               -0.0888 Ry au,         -0.2257 Debye
        Dipole field         -0.0001 Ry au, 
 
        Potential amp.        0.0058 Ry
        Total length         54.7057 bohr
 
 
     Adding external electric field

     Computed dipole along edir(3) : 
        Dipole               -0.0888 Ry au,         -0.2257 Debye
        Dipole field         -0.0001 Ry au, 
 
        Potential amp.        0.0058 Ry
        Total length         54.7057 bohr
 

     total cpu time spent up to now is      930.8 secs

     total energy              =   -8078.55506224 Ry
     estimated scf accuracy    <       0.03328541 Ry

     total magnetization       =    97.33 Bohr mag/cell
     absolute magnetization    =    98.45 Bohr mag/cell

     iteration # 54     ecut=    50.00 Ry     beta= 0.10
     Davidson diagonalization with overlap
     ethr =  3.00E-06,  avg # of iterations =  1.0

     negative rho (up, down):  3.553E-04 3.014E-04
 
     Adding external electric field

     Computed dipole along edir(3) : 
        Dipole               -0.0610 Ry au,         -0.1551 Debye
        Dipole field         -0.0000 Ry au, 
 
        Potential amp.        0.0040 Ry
        Total length         54.7057 bohr
 
 
     Adding external electric field

     Computed dipole along edir(3) : 
        Dipole               -0.0610 Ry au,         -0.1551 Debye
        Dipole field         -0.0000 Ry au, 
 
        Potential amp.        0.0040 Ry
        Total length         54.7057 bohr
 

     total cpu time spent up to now is      944.5 secs

     total energy              =   -8078.55490461 Ry
     estimated scf accuracy    <       0.03311903 Ry

     total magnetization       =    97.30 Bohr mag/cell
     absolute magnetization    =    98.46 Bohr mag/cell

     iteration # 55     ecut=    50.00 Ry     beta= 0.10
     Davidson diagonalization with overlap
     ethr =  2.99E-06,  avg # of iterations =  1.5

     negative rho (up, down):  3.162E-04 2.695E-04
 
     Adding external electric field

     Computed dipole along edir(3) : 
        Dipole               -0.0607 Ry au,         -0.1542 Debye
        Dipole field         -0.0000 Ry au, 
 
        Potential amp.        0.0040 Ry
        Total length         54.7057 bohr
 
 
     Adding external electric field

     Computed dipole along edir(3) : 
        Dipole               -0.0607 Ry au,         -0.1542 Debye
        Dipole field         -0.0000 Ry au, 
 
        Potential amp.        0.0040 Ry
        Total length         54.7057 bohr
 

     total cpu time spent up to now is      965.2 secs

     total energy              =   -8078.55473289 Ry
     estimated scf accuracy    <       0.03114869 Ry

     total magnetization       =    97.31 Bohr mag/cell
     absolute magnetization    =    98.49 Bohr mag/cell

     iteration # 56     ecut=    50.00 Ry     beta= 0.10
     Davidson diagonalization with overlap
     ethr =  2.81E-06,  avg # of iterations =  1.0

     negative rho (up, down):  6.330E-05 5.469E-05
 
     Adding external electric field

     Computed dipole along edir(3) : 
        Dipole               -0.0791 Ry au,         -0.2012 Debye
        Dipole field         -0.0000 Ry au, 
 
        Potential amp.        0.0052 Ry
        Total length         54.7057 bohr
 
 
     Adding external electric field

     Computed dipole along edir(3) : 
        Dipole               -0.0791 Ry au,         -0.2012 Debye
        Dipole field         -0.0000 Ry au, 
 
        Potential amp.        0.0052 Ry
        Total length         54.7057 bohr
 

     total cpu time spent up to now is      978.6 secs

     total energy              =   -8078.55379277 Ry
     estimated scf accuracy    <       0.02853120 Ry

     total magnetization       =    97.31 Bohr mag/cell
     absolute magnetization    =    98.51 Bohr mag/cell

     iteration # 57     ecut=    50.00 Ry     beta= 0.10
     Davidson diagonalization with overlap
     ethr =  2.58E-06,  avg # of iterations =  2.0

     negative rho (up, down):  2.474E-05 1.616E-05
 
     Adding external electric field

     Computed dipole along edir(3) : 
        Dipole                0.0070 Ry au,          0.0177 Debye
        Dipole field          0.0000 Ry au, 
 
        Potential amp.       -0.0005 Ry
        Total length         54.7057 bohr
 
 
     Adding external electric field

     Computed dipole along edir(3) : 
        Dipole                0.0070 Ry au,          0.0177 Debye
        Dipole field          0.0000 Ry au, 
 
        Potential amp.       -0.0005 Ry
        Total length         54.7057 bohr
 

     total cpu time spent up to now is      993.8 secs

     total energy              =   -8078.55350632 Ry
     estimated scf accuracy    <       0.01684698 Ry

     total magnetization       =    97.28 Bohr mag/cell
     absolute magnetization    =    98.58 Bohr mag/cell

     iteration # 58     ecut=    50.00 Ry     beta= 0.10
     Davidson diagonalization with overlap
     ethr =  1.52E-06,  avg # of iterations = 12.0

     negative rho (up, down):  3.362E-04 3.110E-04
 
     Adding external electric field

     Computed dipole along edir(3) : 
        Dipole                0.1565 Ry au,          0.3978 Debye
[...]
    -5.9873  -5.9831  -5.9538  -5.9312  -5.8958  -5.8809  -5.8577  -5.8473
    -5.8171  -5.8094  -5.7954  -5.7619  -5.7546  -5.7387  -5.7113  -5.6802
    -5.6689  -5.6412  -5.6323  -5.6112  -5.5765  -5.5655  -5.5624  -5.5356
    -5.5175  -5.5145  -5.4800  -5.4701  -5.4644  -5.4571  -5.3910  -5.3739
    -5.3603  -5.3124  -5.3005  -5.2841  -5.2344  -5.2033  -5.1729  -5.1691
    -5.1487  -5.1014  -5.0996  -4.9975  -4.9626  -4.9598  -4.9491  -4.9139
    -4.8911  -4.8620  -4.8032  -4.7967  -4.7891  -4.7294  -4.7168  -4.7044
    -4.6564  -4.6005  -4.5795  -4.5644  -4.5081  -4.4685  -4.4533  -4.3919
    -4.3740  -4.3547  -4.3205  -4.2945  -4.2709  -4.2484  -4.2041  -4.1860
    -4.1338  -4.1077  -4.0932  -4.0536  -4.0434  -4.0091  -3.9968  -3.9596
    -3.8698  -3.8657  -3.8304  -3.8075  -3.8011  -3.7757  -3.7488  -3.7192
    -3.7090  -3.7009  -3.6726  -3.6169  -3.6086  -3.5886  -3.5782  -3.5706
    -3.5478  -3.5364  -3.5009  -3.4971  -3.4867  -3.4838  -3.4429  -3.4267
    -3.4086  -3.3959  -3.3945  -3.3701  -3.3299  -3.3230  -3.3089  -3.2985
    -3.2892  -3.2846  -3.2636  -3.2420  -3.2239  -3.1911  -3.1771  -3.1480
    -3.1356  -3.1009  -3.0541  -3.0328  -3.0259  -3.0160  -3.0025  -2.9817
    -2.9788  -2.9686  -2.9461  -2.8989  -2.8771  -2.8644  -2.8390  -2.8104
    -2.7989  -2.7789  -2.7235  -2.7102  -2.6978  -2.6912  -2.6769  -2.6595
    -2.6565  -2.6386  -2.6309  -2.6109  -2.5946  -2.5931  -2.5849  -2.5758
    -2.5558  -2.5475  -2.5288  -2.5183  -2.4979  -2.4892  -2.4798  -2.4425
    -2.4296  -2.4186  -2.3836  -2.3687  -2.3495  -2.3406  -2.3227  -2.3030
    -2.2856  -2.2831  -2.2650  -2.2548  -2.2183  -2.2075  -2.1878  -2.1821
    -2.1562  -2.1240  -2.1033  -2.0873  -2.0835  -2.0633  -2.0477  -2.0278
    -2.0156  -1.9897  -1.9756  -1.9573  -1.9318  -1.9148  -1.9082  -1.8814
    -1.8689  -1.8587  -1.8440  -1.8396  -1.8298  -1.7963  -1.7614  -1.7483
    -1.7377  -1.7165  -1.7008  -1.6897  -1.6679  -1.6491  -1.6008  -1.5905
    -1.5699  -1.5590  -1.5283  -1.5163  -1.4963  -1.4862  -1.4711  -1.4558
    -1.4343  -1.4308  -1.4089  -1.3792  -1.3718  -1.3507  -1.3217  -1.3029
    -1.2955  -1.2890  -1.2302  -1.2052  -1.1854  -1.1513  -1.1417  -1.1346
    -1.0767  -1.0692  -0.9992  -0.9702  -0.9420  -0.8204  -0.8116  -0.7695
    -0.7074  -0.6760  -0.6706  -0.4865  -0.3378  -0.2760  -0.2283  -0.1748
     0.1836   0.1949   0.2410   0.2513   0.2596   0.2682   0.2740   0.3014
     0.3386   0.3524   0.3829   0.3934   0.3966   0.3980   0.4002   0.4116
     0.4168   0.4253   0.4424   0.4472   0.4531   0.4641   0.4699   0.4736
     0.4755   0.4857   0.4945   0.5041   0.5145   0.5223   0.5284   0.5385
     0.5471   0.5532   0.5795   0.5848   0.5868   0.5886   0.5958   0.6069
     0.6168   0.6239   0.6374   0.6434   0.6512   0.6642   0.6714   0.6804
     0.6922   0.7056   0.7116   0.7187   0.7280   0.7351   0.7396   0.7544
     0.7647   0.7772   0.7930   0.7938   0.8091   0.8156   0.8181   0.8260
     0.8348   0.8495   0.8643   0.8687   0.8790   0.8899   0.9109   0.9442
     0.9527   0.9955   1.0070   1.0257   1.0366   1.1037   1.1697   1.2198
     1.7039   1.7705   1.7812   1.7884   1.8138   1.8188   1.8425   1.8637
     1.8918   1.9045   1.9206   1.9306   1.9586   1.9780   2.0165   2.0460
     2.0539   2.0700   2.0923   2.0964   2.1214   2.1277   2.1471   2.1671
     2.1876   2.2013   2.2128   2.2371   2.2434   2.2823   2.2957   2.3071
     2.3363   2.3388   2.3483   2.3643   2.3829   2.3871   2.4201   2.4351
     2.4578   2.4748   2.4857   2.5297   2.5370   2.5480   2.5812   2.6079
     2.6480   2.6560   2.7586   2.7826   2.8186   2.8388   2.8952   3.4965
     3.5726   3.6765   3.7211   3.7452   3.7709   3.7913   3.7964   3.9162
     3.9257   3.9520   3.9788   3.9896   3.9928   4.0007   4.0036   4.0566
     4.0643   4.0830   4.0900   4.1238   4.1520   4.1626   4.2079   4.2266
     4.2362   4.2446   4.2509   4.2690   4.3150   4.6052   4.6976   4.7822
     4.8106   4.8638   4.8963   4.9154   4.9783   4.9996   5.0255   5.0721
     5.1051   5.1103   5.1438   5.1787   5.2217   5.2336   5.3835   6.2073
     6.3415   6.4487   6.5321   6.6867   6.7096   6.7791   6.8470   6.9015
     6.9378   6.9906   7.0104   7.0551   7.2476   7.2952   7.3120   7.3703
     7.4106   7.4217   7.5116   7.5194   7.5622   7.6582   7.7036   7.7597
     7.8249   7.8403   7.9136   7.9346   7.9473   8.0072   8.0224   8.0711
     8.0834   8.1083   8.1212   8.1410   8.1760   8.2513   8.2797   8.2939
     8.3270   8.3480   8.3767   8.3874   8.3941   8.4289   8.4431   8.4502
     8.4691   8.4984   8.5061   8.5531   8.5713   8.6036   8.6125   8.6317
     8.6447

     the Fermi energy is     1.6952 ev

!    total energy              =   -8078.55363543 Ry
     estimated scf accuracy    <       0.00000096 Ry
     smearing contrib. (-TS)   =      -0.02585240 Ry
     internal energy E=F+TS    =   -8078.52778303 Ry

     The total energy is F=E-TS. E is the sum of the following terms:
     one-electron contribution =  -94603.25574842 Ry
     hartree contribution      =   47886.22442136 Ry
     xc contribution           =   -2177.37321641 Ry
     ewald contribution        =   40817.64504167 Ry
     Dispersion Correction     =      -1.76834164 Ry
     electric field correction =       0.00006041 Ry

     total magnetization       =    97.20 Bohr mag/cell
     absolute magnetization    =    98.41 Bohr mag/cell

     convergence has been achieved in  81 iterations

     negative rho (up, down):  1.156E-03 6.234E-04

     Forces acting on atoms (cartesian axes, Ry/au):

     atom    1 type  1   force =    -0.00028210   -0.00034030    0.00044582
     atom    2 type  1   force =     0.00001618    0.00000242   -0.00028770
     atom    3 type  2   force =    -0.00006662    0.00091735   -0.00018182
     atom    4 type  1   force =    -0.00010935    0.00033205    0.00028171
     atom    5 type  1   force =     0.00004690    0.00019767    0.00015205
     atom    6 type  1   force =    -0.00032850    0.00042097    0.00007999
     atom    7 type  1   force =    -0.00096263    0.00046958   -0.00007535
     atom    8 type  2   force =     0.00044699    0.00026079    0.00001447
     atom    9 type  2   force =     0.00021543    0.00011138    0.00019722
     atom   10 type  1   force =    -0.00022460    0.00007422    0.00045377
     atom   11 type  1   force =     0.00110681   -0.00030634   -0.00012216
     atom   12 type  1   force =    -0.00069985   -0.00002962    0.00028541
     atom   13 type  3   force =     0.00012446    0.00001608   -0.00002201
     atom   14 type  3   force =    -0.00027050   -0.00043518    0.00012558
     atom   15 type  3   force =    -0.00039083    0.00024973    0.00035663
     atom   16 type  3   force =     0.00011730    0.00011139   -0.00006508
     atom   17 type  4   force =    -0.00005988    0.00015525    0.00013780
     atom   18 type  4   force =    -0.00039629   -0.00056595   -0.00011027
     atom   19 type  4   force =    -0.00039951   -0.00023136   -0.00073290
     atom   20 type  4   force =     0.00002089   -0.00025712   -0.00024894
     atom   21 type  4   force =     0.00008007    0.00013263    0.00000458
     atom   22 type  4   force =    -0.00048016    0.00029844    0.00045143
     atom   23 type  4   force =     0.00039724   -0.00000566    0.00041434
     atom   24 type  4   force =    -0.00001298    0.00022393    0.00004873
     atom   25 type  4   force =     0.00021628    0.00020006    0.00013205
     atom   26 type  4   force =    -0.00000248   -0.00017374    0.00003886
     atom   27 type  4   force =     0.00006088   -0.00003540    0.00026913
     atom   28 type  4   force =    -0.00032556   -0.00049894   -0.00045035
     atom   29 type  4   force =    -0.00008448   -0.00011169    0.00012257
     atom   30 type  4   force =    -0.00015992   -0.00028387   -0.00048042
     atom   31 type  4   force =    -0.00013748    0.00009285    0.00034898
     atom   32 type  4   force =    -0.00009405    0.00030729    0.00007958
     atom   33 type  3   force =    -0.00045644    0.00015536   -0.00001094
     atom   34 type  3   force =     0.00043108   -0.00066285   -0.00052042
     atom   35 type  3   force =    -0.00092727   -0.00038938   -0.00008894
     atom   36 type  3   force =    -0.00012348   -0.00011415    0.00004381
     atom   37 type  4   force =    -0.00015981    0.00016558    0.00018530
     atom   38 type  4   force =    -0.00027999   -0.00051559   -0.00003999
     atom   39 type  4   force =     0.00001731   -0.00056042    0.00002155
     atom   40 type  4   force =    -0.00002822   -0.00028960    0.00003423
     atom   41 type  4   force =    -0.00006732    0.00019460    0.00018532
     atom   42 type  4   force =    -0.00013832    0.00087931    0.00010421
     atom   43 type  4   force =     0.00082749    0.00046392    0.00027264
     atom   44 type  4   force =    -0.00030142    0.00013933    0.00025129
     atom   45 type  4   force =     0.00006893    0.00016483   -0.00007799
     atom   46 type  4   force =    -0.00012861   -0.00008753   -0.00013811
     atom   47 type  4   force =    -0.00004376   -0.00023787   -0.00016552
     atom   48 type  4   force =    -0.00007941   -0.00006214   -0.00005797
     atom   49 type  4   force =    -0.00032413    0.00023910    0.00016404
     atom   50 type  4   force =    -0.00019679   -0.00039971   -0.00006311
     atom   51 type  4   force =    -0.00019288    0.00007133    0.00017891
     atom   52 type  4   force =    -0.00002180    0.00038517    0.00000894
     atom   53 type  1   force =    -0.00043837    0.00075811    0.00280743
     atom   54 type  1   force =     0.00080821    0.00042503   -0.00151182
     atom   55 type  2   force =     0.00157580    0.00144548    0.00576088
     atom   56 type  1   force =    -0.00072414   -0.00097516   -0.00120628
     atom   57 type  1   force =     0.00037142   -0.00018175   -0.00022195
     atom   58 type  1   force =    -0.00008163    0.00047207    0.00003863
     atom   59 type  1   force =     0.00213108   -0.00117629   -0.00114125
     atom   60 type  2   force =    -0.00000262    0.00005104   -0.00195597
     atom   61 type  2   force =     0.00055271    0.00109060    0.00429885
     atom   62 type  1   force =    -0.00035434   -0.00071823   -0.00141675
     atom   63 type  1   force =    -0.00032290   -0.00003569   -0.00022854
     atom   64 type  1   force =     0.00013156    0.00020626    0.00017688
     atom   65 type  3   force =    -0.00020734   -0.00101650   -0.00210816
     atom   66 type  3   force =    -0.00029222    0.00038361    0.00112344
     atom   67 type  3   force =    -0.00020132   -0.00150853    0.00158583
     atom   68 type  3   force =    -0.00071246    0.00082362   -0.00095154
     atom   69 type  4   force =    -0.00070813    0.00038481    0.00065674
     atom   70 type  4   force =     0.00060912   -0.00074366   -0.00106872
     atom   71 type  4   force =     0.00045469    0.00053674   -0.00033767
     atom   72 type  4   force =     0.00024156   -0.00047023    0.00159751
     atom   73 type  4   force =    -0.00078294    0.00069554    0.00175132
     atom   74 type  4   force =     0.00151147   -0.00270533   -0.00236196
     atom   75 type  4   force =    -0.00172760    0.00063360    0.00002849
     atom   76 type  4   force =     0.00006736   -0.00067952    0.00146270
     atom   77 type  4   force =    -0.00052311   -0.00012932    0.00060175
     atom   78 type  4   force =    -0.00098718    0.00064843   -0.00013425
     atom   79 type  4   force =     0.00029686    0.00027074    0.00063227
     atom   80 type  4   force =     0.00017768    0.00100317   -0.00022114
     atom   81 type  4   force =    -0.00048729   -0.00153958   -0.00103341
     atom   82 type  4   force =     0.00102811   -0.00143161    0.00078884
     atom   83 type  4   force =    -0.00007460    0.00076814    0.00038085
     atom   84 type  4   force =    -0.00058188    0.00026762    0.00055366
     atom   85 type  3   force =    -0.00028110   -0.00089864   -0.00264457
     atom   86 type  3   force =     0.00078863    0.00182667    0.00359914
     atom   87 type  3   force =    -0.00051974   -0.00060915   -0.00029320
     atom   88 type  3   force =    -0.00068077    0.00085496   -0.00081408
     atom   89 type  4   force =    -0.00010010   -0.00016578    0.00042732
     atom   90 type  4   force =    -0.00049675   -0.00040338   -0.00122007
     atom   91 type  4   force =     0.00031511    0.00028165   -0.00032917
     atom   92 type  4   force =     0.00036902   -0.00038110    0.00114685
     atom   93 type  4   force =    -0.00004868    0.00117125    0.00105233
     atom   94 type  4   force =     0.00179160    0.00071228    0.00314071
     atom   95 type  4   force =    -0.00034557    0.00000724   -0.00019715
     atom   96 type  4   force =    -0.00021210   -0.00024764    0.00114456
     atom   97 type  4   force =    -0.00003515   -0.00063639    0.00073704
     atom   98 type  4   force =    -0.00040530    0.00054072   -0.00008083
     atom   99 type  4   force =     0.00065389   -0.00008331    0.00073116
     atom  100 type  4   force =     0.00077565    0.00070287   -0.00026171
     atom  101 type  4   force =    -0.00031559   -0.00082014   -0.00074881
     atom  102 type  4   force =     0.00138265   -0.00176056    0.00039133
     atom  103 type  4   force =     0.00043143    0.00028467    0.00029625
     atom  104 type  4   force =    -0.00008397   -0.00058930   -0.00011712
     atom  105 type  1   force =    -0.00084453    0.00178778   -0.00650388
     atom  106 type  1   force =     0.02815335    0.01352413    0.02204544
     atom  107 type  2   force =     0.00166682    0.00050782   -0.01048281
     atom  108 type  1   force =    -0.03103389    0.02303178    0.01674876
     atom  109 type  1   force =     0.00404627   -0.00297303   -0.00333092
     atom  110 type  1   force =    -0.00140041   -0.00634473   -0.00532930
     atom  111 type  1   force =    -0.00364644    0.00216265   -0.00579623
     atom  112 type  2   force =     0.03227263    0.01639957   -0.01023256
     atom  113 type  2   force =     0.00151064    0.00123424   -0.01015534
     atom  114 type  1   force =    -0.03179469    0.02431081    0.01769660
     atom  115 type  1   force =     0.00358584   -0.00486398   -0.00433042
     atom  116 type  1   force =    -0.00478492   -0.00796895   -0.00645834
     atom  117 type  3   force =    -0.02900141   -0.03569788   -0.06277196
     atom  118 type  3   force =     0.00318320    0.00036021   -0.00694040
     atom  119 type  3   force =     0.00073442   -0.00065308   -0.00913531
     atom  120 type  3   force =     0.02797408   -0.05775156   -0.08373639
     atom  121 type  4   force =    -0.00653624   -0.00323530    0.03047456
     atom  122 type  4   force =    -0.00144227   -0.00112934    0.00259501
     atom  123 type  4   force =     0.00158534   -0.00097858    0.00481794
     atom  124 type  4   force =     0.00353648    0.00315373    0.03400697
     atom  125 type  4   force =    -0.00226444   -0.00226846    0.03407376
     atom  126 type  4   force =    -0.00083887    0.00066414    0.00296405
     atom  127 type  4   force =     0.00218831    0.00314736    0.00433189
     atom  128 type  4   force =    -0.00315883   -0.00170213    0.02228151
     atom  129 type  4   force =    -0.01251379    0.03638737    0.00495989
     atom  130 type  4   force =    -0.00146998    0.00030519    0.00236421
     atom  131 type  4   force =    -0.01945068    0.00357356    0.00993354
     atom  132 type  4   force =    -0.00111095    0.00355978    0.00433909
     atom  133 type  4   force =    -0.00295613    0.00063617    0.00240460
     atom  134 type  4   force =     0.00147741   -0.00433825    0.00351871
     atom  135 type  4   force =     0.01377771    0.02362493   -0.00093063
     atom  136 type  4   force =     0.01323630   -0.00065121    0.00238126
     atom  137 type  3   force =    -0.03819482   -0.04126513   -0.06618212
     atom  138 type  3   force =     0.00647245   -0.00301869   -0.00139406
     atom  139 type  3   force =     0.00028540   -0.00156493   -0.00939705
     atom  140 type  3   force =     0.02905709   -0.05119128   -0.08329374
     atom  141 type  4   force =    -0.00102852    0.00272411    0.02933995
     atom  142 type  4   force =     0.00047784    0.00235118   -0.00626194
     atom  143 type  4   force =     0.00164577   -0.00083257    0.00422821
     atom  144 type  4   force =     0.00422287    0.00183004    0.03460680
     atom  145 type  4   force =     0.00899236    0.00384916    0.03122471
     atom  146 type  4   force =    -0.00028943    0.00052401    0.00168567
     atom  147 type  4   force =     0.00271125    0.00345823    0.00396241
     atom  148 type  4   force =    -0.00394876   -0.00136072    0.02219895
     atom  149 type  4   force =    -0.00996540    0.03016824    0.00424778
     atom  150 type  4   force =    -0.00190347    0.00040068    0.00280069
     atom  151 type  4   force =    -0.01851787    0.00504591    0.00990579
     atom  152 type  4   force =    -0.00086823    0.00345355    0.00432312
     atom  153 type  4   force =    -0.00133057    0.00026299    0.00296300
     atom  154 type  4   force =     0.00216205   -0.00249362    0.00281937
     atom  155 type  4   force =     0.01473412    0.02465192    0.00013859
     atom  156 type  4   force =     0.02238035   -0.00368844    0.00142786
     atom  157 type  4   force =    -0.01093304   -0.00660559    0.00259698
     atom  158 type  5   force =     0.01019073    0.00730785   -0.00400183

     Total force =     0.238267     Total SCF correction =     0.003340
 
     init_run     :     10.04s CPU     10.80s WALL (       1 calls)
     electrons    :   1313.90s CPU   1376.62s WALL (       1 calls)
     forces       :      4.77s CPU      5.23s WALL (       1 calls)
     force_london :      0.13s CPU      0.13s WALL (       1 calls)

     Called by init_run:
     wfcinit      :      6.03s CPU      6.22s WALL (       1 calls)
     potinit      :      0.63s CPU      0.81s WALL (       1 calls)
     hinit0       :      1.86s CPU      1.97s WALL (       1 calls)

     Called by electrons:
     c_bands      :   1027.93s CPU   1062.01s WALL (      81 calls)
     sum_band     :    180.07s CPU    195.25s WALL (      81 calls)
     v_of_rho     :     24.81s CPU     25.93s WALL (      82 calls)
     newd         :     51.23s CPU     63.38s WALL (      82 calls)
     mix_rho      :     28.33s CPU     28.75s WALL (      81 calls)
     energy_londo :      0.13s CPU      0.13s WALL (       1 calls)

     Called by c_bands:
     init_us_2    :      3.21s CPU      3.28s WALL (     328 calls)
     init_us_2:cp :      3.21s CPU      3.28s WALL (     328 calls)
     regterg      :   1007.83s CPU   1036.92s WALL (     163 calls)

     Called by *egterg:
     rdiaghg      :    265.57s CPU    279.68s WALL (     570 calls)
     h_psi        :    418.76s CPU    425.47s WALL (     572 calls)
     s_psi        :     66.38s CPU     66.44s WALL (     572 calls)
     g_psi        :      0.51s CPU      0.51s WALL (     407 calls)

     Called by h_psi:
     h_psi:calbec :     96.60s CPU    102.34s WALL (     572 calls)
     vloc_psi     :    253.63s CPU    254.50s WALL (     572 calls)
     add_vuspsi   :     67.41s CPU     67.50s WALL (     572 calls)

     General routines
     calbec       :    143.97s CPU    152.66s WALL (     742 calls)
     fft          :     27.65s CPU     29.62s WALL (    1489 calls)
     ffts         :     16.97s CPU     17.01s WALL (   10085 calls)
     fftw         :    281.85s CPU    282.78s WALL (  278226 calls)
     interpolate  :      2.01s CPU      2.10s WALL (     164 calls)
 
     Parallel routines
 
     PWSCF        :  22m15.53s CPU  23m19.91s WALL

 
   This run was terminated on:   0:37:56  18Nov2025            

=------------------------------------------------------------------------------=
   JOB DONE.
=------------------------------------------------------------------------------=
