
     Program PWSCF v.7.2 starts on 18Nov2025 at  0:38: 0 

     This program is part of the open-source Quantum ESPRESSO suite
     for quantum simulation of materials; please cite
         "P. Giannozzi et al., J. Phys.:Condens. Matter 21 395502 (2009);
         "P. Giannozzi et al., J. Phys.:Condens. Matter 29 465901 (2017);
         "P. Giannozzi et al., J. Chem. Phys. 152 154105 (2020);
          URL http://www.quantum-espresso.org", 
     in publications or presentations arising from this work. More details at
     http://www.quantum-espresso.org/quote

     Parallel version (MPI), running on    64 processors

     MPI processes distributed on     4 nodes
     380581 MiB available memory on the printing compute node when the environment starts
 
     Reading input from PWINPUT_atm158_yp

     Current dimensions of program PWSCF are:
     Max number of different atomic species (ntypx) = 10
     Max number of k-points (npk) =  40000
     Max angular momentum in pseudopotentials (lmaxx) =  4
     Presently no symmetry can be used with electric field

     file Ni.pbe-n-rrkjus_psl.1.0.0.UPF: wavefunction(s)  3D renormalized
     file Mn.pbe-spn-rrkjus_psl.0.3.1.UPF: wavefunction(s)  3D renormalized
     file O.pbe-rrkjus.UPF: wavefunction(s)  2S renormalized
     file H.pbe-rrkjus.UPF: wavefunction(s)  1S renormalized

     gamma-point specific algorithms are used
 
     R & G space division:  proc/nbgrp/npool/nimage =      64
     Subspace diagonalization in iterative solution of the eigenvalue problem:
     one sub-group per band group will be used
     custom distributed-memory algorithm (size of sub-group:  7*  7 procs)

 
     Parallelization info
     --------------------
     sticks:   dense  smooth     PW     G-vecs:    dense   smooth      PW
     Min         214      85     20                61830    15614    1928
     Max         216      86     22                61864    15658    1982
     Sum       13727    5503   1375              3958051  1001255  125211
 
     Using Slab Decomposition
 


     bravais-lattice index     =            0
     lattice parameter (alat)  =      17.8532  a.u.
     unit-cell volume          =   20962.6682 (a.u.)^3
     number of atoms/cell      =          158
     number of atomic types    =            5
     number of electrons       =      1108.00
     number of Kohn-Sham states=          665
     kinetic-energy cutoff     =      50.0000  Ry
     charge density cutoff     =     500.0000  Ry
     scf convergence threshold =      1.0E-06
     mixing beta               =       0.1000
     number of iterations used =            8  local-TF  mixing
     Exchange-correlation=  SLA  PW   PBE  PBE
                           (   1   4   3   4   0   0   0)

     celldm(1)=  17.853155  celldm(2)=   0.000000  celldm(3)=   0.000000
     celldm(4)=   0.000000  celldm(5)=   0.000000  celldm(6)=   0.000000

     crystal axes: (cart. coord. in units of alat)
               a(1) = (   1.000000   0.000000   0.000000 )  
               a(2) = (   0.003237   1.081997   0.000000 )  
               a(3) = (   0.000000   0.000000   3.404673 )  

     reciprocal axes: (cart. coord. in units 2 pi/alat)
               b(1) = (  1.000000 -0.002992  0.000000 )  
               b(2) = (  0.000000  0.924217  0.000000 )  
               b(3) = (  0.000000  0.000000  0.293714 )  


     PseudoPot. # 1 for Ni read from file:
     ~/PSEUDO/Ni.pbe-n-rrkjus_psl.1.0.0.UPF
     MD5 check sum: Not computed, couldn't open file
     Pseudo is Ultrasoft + core correction, Zval = 10.0
     Generated using "atomic" code by A. Dal Corso  v.5.1.2
     Using radial grid of 1195 points,  6 beta functions with: 
                l(1) =   0
                l(2) =   0
                l(3) =   1
                l(4) =   1
                l(5) =   2
                l(6) =   2
     Q(r) pseudized with 0 coefficients 


     PseudoPot. # 2 for Mn read from file:
     ~/PSEUDO/Mn.pbe-spn-rrkjus_psl.0.3.1.UPF
     MD5 check sum: Not computed, couldn't open file
     Pseudo is Ultrasoft + core correction, Zval = 15.0
     Generated using &quot;atomic&quot; code by A. Dal Corso  v.6.2.2
     Using radial grid of 1187 points,  6 beta functions with: 
                l(1) =   0
                l(2) =   0
                l(3) =   1
                l(4) =   1
                l(5) =   2
                l(6) =   2
     Q(r) pseudized with 0 coefficients 


     PseudoPot. # 3 for P  read from file:
     ~/PSEUDO/P.pbe-n-rrkjus_psl.1.0.0.UPF
     MD5 check sum: Not computed, couldn't open file
     Pseudo is Ultrasoft + core correction, Zval =  5.0
     Generated using "atomic" code by A. Dal Corso  v.5.1
     Using radial grid of 1147 points,  6 beta functions with: 
                l(1) =   0
                l(2) =   0
                l(3) =   1
                l(4) =   1
                l(5) =   2
                l(6) =   2
     Q(r) pseudized with 0 coefficients 


     PseudoPot. # 4 for O  read from file:
     ~/PSEUDO/O.pbe-rrkjus.UPF
     MD5 check sum: Not computed, couldn't open file
     Pseudo is Ultrasoft, Zval =  6.0
     Generated by new atomic code, or converted to UPF format
     Using radial grid of 1269 points,  4 beta functions with: 
                l(1) =   0
                l(2) =   0
                l(3) =   1
                l(4) =   1
     Q(r) pseudized with 0 coefficients 


     PseudoPot. # 5 for H  read from file:
     ~/PSEUDO/H.pbe-rrkjus.UPF
     MD5 check sum: Not computed, couldn't open file
     Pseudo is Ultrasoft, Zval =  1.0
     Generated by new atomic code, or converted to UPF format
     Using radial grid of 1061 points,  2 beta functions with: 
                l(1) =   0
                l(2) =   0
     Q(r) pseudized with 0 coefficients 


     atomic species   valence    mass     pseudopotential
     Ni               10.00    58.69300     Ni( 1.00)
     Mn               15.00    54.93800     Mn( 1.00)
     P                 5.00    30.97300     P ( 1.00)
     O                 6.00    15.99900     O ( 1.00)
     H                 1.00     1.00790     H ( 1.00)

     Starting magnetic structure 
     atomic species   magnetization
     Ni              1.000
     Mn              1.000
     P               1.000
     O               1.000
     H               0.000

     No symmetry found



   Cartesian axes

     site n.     atom                  positions (alat units)
         1        Ni     tau(   1) = (   0.2422259   0.8412654   1.7135021  )
         2        Ni     tau(   2) = (   0.4939939   0.7703882   1.3745235  )
         3        Mn     tau(   3) = (   0.0000622   0.2881594   1.6998608  )
         4        Ni     tau(   4) = (   0.2575438   0.2247311   1.3772755  )
         5        Ni     tau(   5) = (   1.0001613   1.0688286   1.5379356  )
         6        Ni     tau(   6) = (   0.2547438   0.5337506   1.5423852  )
         7        Ni     tau(   7) = (   0.7513156   0.8294534   1.6816756  )
         8        Mn     tau(   8) = (   0.9892084   0.7665403   1.3736225  )
         9        Mn     tau(   9) = (   0.4989277   0.2948958   1.6996914  )
        10        Ni     tau(  10) = (   0.7551301   0.2242805   1.3768936  )
        11        Ni     tau(  11) = (   0.4972159   1.0711780   1.5373138  )
        12        Ni     tau(  12) = (   0.7540948   0.5300080   1.5408646  )
        13        P      tau(  13) = (   0.2134946   0.9657767   1.3822356  )
        14        P      tau(  14) = (   0.4661089   0.6500297   1.6909232  )
        15        P      tau(  15) = (   0.2845404   0.0987020   1.6930817  )
        16        P      tau(  16) = (   0.0413508   0.4217554   1.3879311  )
        17        O      tau(  17) = (   0.1375837   0.8978226   1.5176406  )
        18        O      tau(  18) = (   0.3887107   0.7011557   1.5470611  )
        19        O      tau(  19) = (   0.3618628   0.1611333   1.5509837  )
        20        O      tau(  20) = (   0.1189827   0.3568247   1.5240423  )
        21        O      tau(  21) = (   0.1540234   0.8767886   1.2572786  )
        22        O      tau(  22) = (   0.4110393   0.7496192   1.8050939  )
        23        O      tau(  23) = (   0.3377663   0.1986516   1.8089954  )
        24        O      tau(  24) = (   0.0997683   0.3312674   1.2645563  )
        25        O      tau(  25) = (   0.0989528   0.5758934   1.3854866  )
        26        O      tau(  26) = (   0.3497729   1.0280907   1.6930286  )
        27        O      tau(  27) = (   0.3790282   0.4183038   1.3960614  )
        28        O      tau(  28) = (   0.1208846   0.1037110   1.6793767  )
        29        O      tau(  29) = (   0.1286718   0.6449077   1.6890912  )
        30        O      tau(  30) = (   0.4112377   0.4929637   1.7009712  )
        31        O      tau(  31) = (   0.1495635   0.0377931   1.3821793  )
        32        O      tau(  32) = (   0.3765682   0.9602194   1.3906658  )
        33        P      tau(  33) = (   0.7075432   0.9666523   1.3784783  )
        34        P      tau(  34) = (   0.9652203   0.6409374   1.7033271  )
        35        P      tau(  35) = (   0.7832453   0.0931683   1.6926874  )
        36        P      tau(  36) = (   0.5417589   0.4270160   1.3849132  )
        37        O      tau(  37) = (   0.6313395   0.8958630   1.5135851  )
        38        O      tau(  38) = (   0.8885617   0.6990470   1.5595003  )
        39        O      tau(  39) = (   0.8598518   0.1543399   1.5504633  )
        40        O      tau(  40) = (   0.6193560   0.3582236   1.5201696  )
        41        O      tau(  41) = (   0.6486466   0.8777050   1.2536013  )
        42        O      tau(  42) = (   0.9019443   0.7356849   1.8178004  )
        43        O      tau(  43) = (   0.8422733   0.1897880   1.8089519  )
        44        O      tau(  44) = (   0.6013153   0.3355234   1.2622316  )
        45        O      tau(  45) = (   0.6019813   0.5803347   1.3826084  )
        46        O      tau(  46) = (   0.8418205   1.0195119   1.6947938  )
        47        O      tau(  47) = (   0.8784115   0.4141755   1.3983387  )
        48        O      tau(  48) = (   0.6198107   0.1022917   1.6830133  )
        49        O      tau(  49) = (   0.6307259   0.6490344   1.6799765  )
        50        O      tau(  50) = (   0.9102631   0.4838853   1.7042751  )
        51        O      tau(  51) = (   0.6452681   0.0385369   1.3812216  )
        52        O      tau(  52) = (   0.8702745   0.9586382   1.3915595  )
        53        Ni     tau(  53) = (   0.2420320   0.8169913   1.0699082  )
        54        Ni     tau(  54) = (   0.4893084   0.7542727   0.7477128  )
        55        Mn     tau(  55) = (   0.0085152   0.2729728   1.0755565  )
        56        Ni     tau(  56) = (   0.2558246   0.2079345   0.7498450  )
        57        Ni     tau(  57) = (   0.9991959   1.0516583   0.9080455  )
        58        Ni     tau(  58) = (   0.2490231   0.5149840   0.9092594  )
        59        Ni     tau(  59) = (   0.7373131   0.8159965   1.0690453  )
        60        Mn     tau(  60) = (   0.9859093   0.7511625   0.7423903  )
        61        Mn     tau(  61) = (   0.5085552   0.2755447   1.0757185  )
        62        Ni     tau(  62) = (   0.7532989   0.2074622   0.7493279  )
        63        Ni     tau(  63) = (   0.4981517   1.0523018   0.9093468  )
        64        Ni     tau(  64) = (   0.7469109   0.5147379   0.9081681  )
        65        P      tau(  65) = (   0.2119924   0.9497675   0.7533413  )
        66        P      tau(  66) = (   0.4579509   0.6252695   1.0650744  )
        67        P      tau(  67) = (   0.2855349   0.0724244   1.0650326  )
        68        P      tau(  68) = (   0.0381112   0.4032615   0.7561117  )
        69        O      tau(  69) = (   0.1352995   0.8818598   0.8892857  )
        70        O      tau(  70) = (   0.3789570   0.6924463   0.9291468  )
        71        O      tau(  71) = (   0.3610496   0.1419327   0.9291660  )
        72        O      tau(  72) = (   0.1179700   0.3356534   0.8894858  )
        73        O      tau(  73) = (   0.1524325   0.8608343   0.6290918  )
        74        O      tau(  74) = (   0.3994952   0.7128748   1.1905493  )
        75        O      tau(  75) = (   0.3426976   0.1634744   1.1889742  )
        76        O      tau(  76) = (   0.0989151   0.3155758   0.6321220  )
        77        O      tau(  77) = (   0.0942206   0.5581494   0.7569623  )
        78        O      tau(  78) = (   0.3506297   1.0014456   1.0645371  )
        79        O      tau(  79) = (   0.3750155   0.3983181   0.7655049  )
        80        O      tau(  80) = (   0.1228303   0.0764842   1.0543924  )
        81        O      tau(  81) = (   0.1204299   0.6293201   1.0530905  )
        82        O      tau(  82) = (   0.4000664   0.4708612   1.0626359  )
        83        O      tau(  83) = (   0.1483182   0.0216333   0.7546099  )
        84        O      tau(  84) = (   0.3748687   0.9435072   0.7627918  )
        85        P      tau(  85) = (   0.7056901   0.9492898   0.7521526  )
        86        P      tau(  86) = (   0.9575286   0.6220438   1.0623609  )
        87        P      tau(  87) = (   0.7847866   0.0710549   1.0641979  )
        88        P      tau(  88) = (   0.5377283   0.4083400   0.7551622  )
        89        O      tau(  89) = (   0.6295714   0.8788409   0.8879407  )
        90        O      tau(  90) = (   0.8781778   0.6902700   0.9288966  )
        91        O      tau(  91) = (   0.8603186   0.1398018   0.9279591  )
        92        O      tau(  92) = (   0.6174712   0.3389159   0.8881839  )
        93        O      tau(  93) = (   0.6471291   0.8583376   0.6285166  )
        94        O      tau(  94) = (   0.8962302   0.7094244   1.1861651  )
        95        O      tau(  95) = (   0.8420493   0.1616933   1.1885419  )
        96        O      tau(  96) = (   0.5995227   0.3203391   0.6315608  )
        97        O      tau(  97) = (   0.5932354   0.5636910   0.7569738  )
        98        O      tau(  98) = (   0.8487155   0.9994995   1.0634446  )
        99        O      tau(  99) = (   0.8751772   0.3959680   0.7655094  )
       100        O      tau( 100) = (   0.6223291   0.0767949   1.0539182  )
       101        O      tau( 101) = (   0.6209785   0.6292365   1.0537708  )
       102        O      tau( 102) = (   0.9010178   0.4674118   1.0608723  )
       103        O      tau( 103) = (   0.6430869   0.0213354   0.7538098  )
       104        O      tau( 104) = (   0.8684566   0.9446034   0.7630440  )
       105        Ni     tau( 105) = (   0.2392451   0.7980692   0.4424501  )
       106        Ni     tau( 106) = (   0.4865215   0.7353506   0.1202547  )
       107        Mn     tau( 107) = (   0.0057284   0.2540508   0.4480984  )
       108        Ni     tau( 108) = (   0.2530377   0.1890124   0.1223869  )
       109        Ni     tau( 109) = (   0.9964090   1.0327362   0.2805874  )
       110        Ni     tau( 110) = (   0.2462362   0.4960619   0.2818013  )
       111        Ni     tau( 111) = (   0.7345262   0.7970744   0.4415872  )
       112        Mn     tau( 112) = (   0.9831224   0.7322404   0.1149322  )
       113        Mn     tau( 113) = (   0.5057684   0.2566226   0.4482604  )
       114        Ni     tau( 114) = (   0.7505120   0.1885401   0.1218698  )
       115        Ni     tau( 115) = (   0.4953648   1.0333797   0.2818887  )
       116        Ni     tau( 116) = (   0.7441241   0.4958159   0.2807100  )
       117        P      tau( 117) = (   0.2092055   0.9308455   0.1258832  )
       118        P      tau( 118) = (   0.4551640   0.6063475   0.4376163  )
       119        P      tau( 119) = (   0.2827481   0.0535023   0.4375745  )
       120        P      tau( 120) = (   0.0353243   0.3843395   0.1286536  )
       121        O      tau( 121) = (   0.1325127   0.8629378   0.2618276  )
       122        O      tau( 122) = (   0.3761702   0.6735242   0.3016887  )
       123        O      tau( 123) = (   0.3582627   0.1230106   0.3017079  )
       124        O      tau( 124) = (   0.1151831   0.3167313   0.2620277  )
       125        O      tau( 125) = (   0.1496456   0.8419122   0.0016337  )
       126        O      tau( 126) = (   0.3967083   0.6939527   0.5630912  )
       127        O      tau( 127) = (   0.3399107   0.1445523   0.5615161  )
       128        O      tau( 128) = (   0.0961282   0.2966537   0.0046639  )
       129        O      tau( 129) = (   0.0914337   0.5392273   0.1295042  )
       130        O      tau( 130) = (   0.3478428   0.9825235   0.4370790  )
       131        O      tau( 131) = (   0.3722287   0.3793961   0.1380469  )
       132        O      tau( 132) = (   0.1200434   0.0575621   0.4269343  )
       133        O      tau( 133) = (   0.1176431   0.6103980   0.4256324  )
       134        O      tau( 134) = (   0.3972796   0.4519391   0.4351778  )
       135        O      tau( 135) = (   0.1455313   0.0027113   0.1271518  )
       136        O      tau( 136) = (   0.3720819   0.9245852   0.1353338  )
       137        P      tau( 137) = (   0.7029032   0.9303678   0.1246945  )
       138        P      tau( 138) = (   0.9547417   0.6031217   0.4349028  )
       139        P      tau( 139) = (   0.7819997   0.0521328   0.4367398  )
       140        P      tau( 140) = (   0.5349415   0.3894179   0.1277041  )
       141        O      tau( 141) = (   0.6267846   0.8599188   0.2604826  )
       142        O      tau( 142) = (   0.8753909   0.6713480   0.3014385  )
       143        O      tau( 143) = (   0.8575317   0.1208797   0.3005010  )
       144        O      tau( 144) = (   0.6146843   0.3199938   0.2607258  )
       145        O      tau( 145) = (   0.6443422   0.8394155   0.0010585  )
       146        O      tau( 146) = (   0.8934434   0.6905023   0.5587070  )
       147        O      tau( 147) = (   0.8392624   0.1427713   0.5610838  )
       148        O      tau( 148) = (   0.5967359   0.3014171   0.0041027  )
       149        O      tau( 149) = (   0.5904485   0.5447689   0.1295157  )
       150        O      tau( 150) = (   0.8459286   0.9805774   0.4359865  )
       151        O      tau( 151) = (   0.8723903   0.3770459   0.1380513  )
       152        O      tau( 152) = (   0.6195422   0.0578729   0.4264602  )
       153        O      tau( 153) = (   0.6181917   0.6103144   0.4263127  )
       154        O      tau( 154) = (   0.8982309   0.4484897   0.4334142  )
       155        O      tau( 155) = (   0.6403000   0.0024133   0.1263517  )
       156        O      tau( 156) = (   0.8656697   0.9256814   0.1355859  )
       157        O      tau( 157) = (   1.1309085   0.9213103   1.8489698  )
       158        H      tau( 158) = (   1.0479508   0.8628088   1.8725428  )

     -------------------------------------------------
     Parameters for Dispersion (Grimme-D2) Correction:
     -------------------------------------------------
       atom      VdW radius       C_6     

        Ni         2.952        374.666
        Mn         2.952        374.666
        P          3.222        271.980
        O          2.536         24.284
        H          1.892          4.857

     number of k points=     1  Gaussian smearing, width (Ry)=  0.0100
                       cart. coord. in units 2pi/alat
        k(    1) = (   0.0000000   0.0000000   0.0000000), wk =   1.0000000

     Dense  grid:  1979026 G-vectors     FFT dimensions: ( 128, 144, 450)

     Smooth grid:   500628 G-vectors     FFT dimensions: (  81,  90, 288)

     Estimated max dynamical RAM per process >     333.40 MB

     Estimated total dynamical RAM >      20.84 GB

     Check: negative core charge=   -0.000002
     Generating pointlists ...
     new r_m :   0.0795 (alat units)  1.4194 (a.u.) for type    1
     new r_m :   0.0884 (alat units)  1.5790 (a.u.) for type    2
     new r_m :   0.0665 (alat units)  1.1872 (a.u.) for type    3
     new r_m :   0.0430 (alat units)  0.7675 (a.u.) for type    4
     new r_m :   0.0430 (alat units)  0.7675 (a.u.) for type    5

     Initial potential from superposition of free atoms

     starting charge    1107.8886, renormalised to    1108.0000

     negative rho (up, down):  1.506E-03 4.689E-04
 
     Adding external electric field

     Computed dipole along edir(3) : 
        Dipole                1.6401 Ry au,          4.1686 Debye
        Dipole field          0.0010 Ry au, 
 
        Potential amp.       -0.1076 Ry
        Total length         54.7057 bohr
 
 
     Adding external electric field

     Computed dipole along edir(3) : 
        Dipole                1.6401 Ry au,          4.1686 Debye
        Dipole field          0.0010 Ry au, 
 
        Potential amp.       -0.1076 Ry
        Total length         54.7057 bohr
 
     Starting wfcs are  818 randomized atomic wfcs

     total cpu time spent up to now is       12.6 secs

     Self-consistent Calculation

     iteration #  1     ecut=    50.00 Ry     beta= 0.10
     Davidson diagonalization with overlap
     ethr =  1.00E-02,  avg # of iterations =  5.5

     negative rho (up, down):  4.423E-01 3.042E-07
 
     Adding external electric field

     Computed dipole along edir(3) : 
        Dipole               -3.6745 Ry au,         -9.3397 Debye
        Dipole field         -0.0022 Ry au, 
 
        Potential amp.        0.2410 Ry
        Total length         54.7057 bohr
 
 
     Adding external electric field

     Computed dipole along edir(3) : 
        Dipole               -3.6745 Ry au,         -9.3397 Debye
        Dipole field         -0.0022 Ry au, 
 
        Potential amp.        0.2410 Ry
        Total length         54.7057 bohr
 

     total cpu time spent up to now is       47.1 secs

     total energy              =   -7857.33734638 Ry
     estimated scf accuracy    <     733.26553815 Ry

     total magnetization       =   222.00 Bohr mag/cell
     absolute magnetization    =   320.09 Bohr mag/cell

     iteration #  2     ecut=    50.00 Ry     beta= 0.10
     Davidson diagonalization with overlap
     ethr =  1.00E-02,  avg # of iterations =  2.0

     negative rho (up, down):  4.127E-01 1.417E-07
 
     Adding external electric field

     Computed dipole along edir(3) : 
        Dipole               -2.5614 Ry au,         -6.5104 Debye
        Dipole field         -0.0015 Ry au, 
 
        Potential amp.        0.1680 Ry
        Total length         54.7057 bohr
 
 
     Adding external electric field

     Computed dipole along edir(3) : 
        Dipole               -2.5614 Ry au,         -6.5104 Debye
        Dipole field         -0.0015 Ry au, 
 
        Potential amp.        0.1680 Ry
        Total length         54.7057 bohr
 

     total cpu time spent up to now is       66.9 secs

     total energy              =   -7940.06867036 Ry
     estimated scf accuracy    <     194.97848792 Ry

     total magnetization       =   164.93 Bohr mag/cell
     absolute magnetization    =   212.48 Bohr mag/cell

     iteration #  3     ecut=    50.00 Ry     beta= 0.10
     Davidson diagonalization with overlap
     ethr =  1.00E-02,  avg # of iterations =  1.0

     negative rho (up, down):  3.657E-01 1.148E-07
 
     Adding external electric field

     Computed dipole along edir(3) : 
        Dipole               -2.1742 Ry au,         -5.5262 Debye
        Dipole field         -0.0013 Ry au, 
 
        Potential amp.        0.1426 Ry
        Total length         54.7057 bohr
 
 
     Adding external electric field

     Computed dipole along edir(3) : 
        Dipole               -2.1742 Ry au,         -5.5262 Debye
        Dipole field         -0.0013 Ry au, 
 
        Potential amp.        0.1426 Ry
        Total length         54.7057 bohr
 

     total cpu time spent up to now is       82.1 secs

     total energy              =   -7970.82044024 Ry
     estimated scf accuracy    <     105.14739051 Ry

     total magnetization       =   142.30 Bohr mag/cell
     absolute magnetization    =   191.80 Bohr mag/cell

     iteration #  4     ecut=    50.00 Ry     beta= 0.10
     Davidson diagonalization with overlap
     ethr =  9.49E-03,  avg # of iterations =  1.0

     negative rho (up, down):  2.979E-01 3.438E-08
 
     Adding external electric field

     Computed dipole along edir(3) : 
        Dipole               -2.1290 Ry au,         -5.4114 Debye
        Dipole field         -0.0013 Ry au, 
 
        Potential amp.        0.1396 Ry
        Total length         54.7057 bohr
 
 
     Adding external electric field

     Computed dipole along edir(3) : 
        Dipole               -2.1290 Ry au,         -5.4114 Debye
        Dipole field         -0.0013 Ry au, 
 
        Potential amp.        0.1396 Ry
        Total length         54.7057 bohr
 

     total cpu time spent up to now is       98.0 secs

     total energy              =   -7999.22532638 Ry
     estimated scf accuracy    <      84.06435130 Ry

     total magnetization       =   126.26 Bohr mag/cell
     absolute magnetization    =   177.47 Bohr mag/cell

     iteration #  5     ecut=    50.00 Ry     beta= 0.10
     Davidson diagonalization with overlap
     ethr =  7.59E-03,  avg # of iterations =  1.0

     negative rho (up, down):  5.911E-02 1.730E-07
 
     Adding external electric field

     Computed dipole along edir(3) : 
        Dipole               -1.6881 Ry au,         -4.2906 Debye
        Dipole field         -0.0010 Ry au, 
 
        Potential amp.        0.1107 Ry
        Total length         54.7057 bohr
 
 
     Adding external electric field

     Computed dipole along edir(3) : 
        Dipole               -1.6881 Ry au,         -4.2906 Debye
        Dipole field         -0.0010 Ry au, 
 
        Potential amp.        0.1107 Ry
        Total length         54.7057 bohr
 

     total cpu time spent up to now is      112.5 secs

     total energy              =   -8059.44105471 Ry
     estimated scf accuracy    <      70.32129479 Ry

     total magnetization       =   107.23 Bohr mag/cell
     absolute magnetization    =   160.97 Bohr mag/cell

     iteration #  6     ecut=    50.00 Ry     beta= 0.10
     Davidson diagonalization with overlap
     ethr =  6.35E-03,  avg # of iterations =  1.0

     negative rho (up, down):  5.329E-04 9.694E-04
 
     Adding external electric field

     Computed dipole along edir(3) : 
        Dipole               -1.1612 Ry au,         -2.9514 Debye
        Dipole field         -0.0007 Ry au, 
 
        Potential amp.        0.0762 Ry
        Total length         54.7057 bohr
 
 
     Adding external electric field

     Computed dipole along edir(3) : 
        Dipole               -1.1612 Ry au,         -2.9514 Debye
        Dipole field         -0.0007 Ry au, 
 
        Potential amp.        0.0762 Ry
        Total length         54.7057 bohr
 

     total cpu time spent up to now is      127.2 secs

     total energy              =   -8076.03555166 Ry
     estimated scf accuracy    <      19.13377990 Ry

     total magnetization       =   100.00 Bohr mag/cell
     absolute magnetization    =   134.73 Bohr mag/cell

     iteration #  7     ecut=    50.00 Ry     beta= 0.10
     Davidson diagonalization with overlap
     ethr =  1.73E-03,  avg # of iterations =  6.0

     negative rho (up, down):  5.170E-04 9.552E-04
 
     Adding external electric field

     Computed dipole along edir(3) : 
        Dipole               -1.1557 Ry au,         -2.9375 Debye
        Dipole field         -0.0007 Ry au, 
 
        Potential amp.        0.0758 Ry
        Total length         54.7057 bohr
 
 
     Adding external electric field

     Computed dipole along edir(3) : 
        Dipole               -1.1557 Ry au,         -2.9375 Debye
        Dipole field         -0.0007 Ry au, 
 
        Potential amp.        0.0758 Ry
        Total length         54.7057 bohr
 

     total cpu time spent up to now is      152.4 secs

     total energy              =   -8078.88626129 Ry
     estimated scf accuracy    <      34.36398398 Ry

     total magnetization       =    69.44 Bohr mag/cell
     absolute magnetization    =    87.21 Bohr mag/cell

     iteration #  8     ecut=    50.00 Ry     beta= 0.10
     Davidson diagonalization with overlap
     ethr =  1.73E-03,  avg # of iterations =  1.0

     negative rho (up, down):  5.208E-04 1.011E-03
 
     Adding external electric field

     Computed dipole along edir(3) : 
        Dipole               -1.1381 Ry au,         -2.8927 Debye
        Dipole field         -0.0007 Ry au, 
 
        Potential amp.        0.0746 Ry
        Total length         54.7057 bohr
 
 
     Adding external electric field

     Computed dipole along edir(3) : 
        Dipole               -1.1381 Ry au,         -2.8927 Debye
        Dipole field         -0.0007 Ry au, 
 
        Potential amp.        0.0746 Ry
        Total length         54.7057 bohr
 

     total cpu time spent up to now is      167.1 secs

     total energy              =   -8079.05970755 Ry
     estimated scf accuracy    <      33.77010493 Ry

     total magnetization       =    69.60 Bohr mag/cell
     absolute magnetization    =    86.86 Bohr mag/cell

     iteration #  9     ecut=    50.00 Ry     beta= 0.10
     Davidson diagonalization with overlap
     ethr =  1.73E-03,  avg # of iterations =  1.0

     negative rho (up, down):  4.409E-04 9.605E-04
 
     Adding external electric field

     Computed dipole along edir(3) : 
        Dipole               -1.1454 Ry au,         -2.9114 Debye
        Dipole field         -0.0007 Ry au, 
 
        Potential amp.        0.0751 Ry
        Total length         54.7057 bohr
 
 
     Adding external electric field

     Computed dipole along edir(3) : 
        Dipole               -1.1454 Ry au,         -2.9114 Debye
        Dipole field         -0.0007 Ry au, 
 
        Potential amp.        0.0751 Ry
        Total length         54.7057 bohr
 

     total cpu time spent up to now is      182.5 secs

     total energy              =   -8078.90375434 Ry
     estimated scf accuracy    <      35.60500335 Ry

     total magnetization       =    68.81 Bohr mag/cell
     absolute magnetization    =    85.81 Bohr mag/cell

     iteration # 10     ecut=    50.00 Ry     beta= 0.10
     Davidson diagonalization with overlap
     ethr =  1.73E-03,  avg # of iterations =  1.0

     negative rho (up, down):  5.831E-04 1.115E-03
 
     Adding external electric field

     Computed dipole along edir(3) : 
        Dipole               -1.2969 Ry au,         -3.2965 Debye
        Dipole field         -0.0008 Ry au, 
 
        Potential amp.        0.0851 Ry
        Total length         54.7057 bohr
 
 
     Adding external electric field

     Computed dipole along edir(3) : 
        Dipole               -1.2969 Ry au,         -3.2965 Debye
        Dipole field         -0.0008 Ry au, 
 
        Potential amp.        0.0851 Ry
        Total length         54.7057 bohr
 

     total cpu time spent up to now is      196.8 secs

     total energy              =   -8077.87456078 Ry
     estimated scf accuracy    <      31.31068640 Ry

     total magnetization       =    69.64 Bohr mag/cell
     absolute magnetization    =    85.85 Bohr mag/cell

     iteration # 11     ecut=    50.00 Ry     beta= 0.10
     Davidson diagonalization with overlap
     ethr =  1.73E-03,  avg # of iterations =  1.0

     negative rho (up, down):  1.005E-03 1.761E-03
 
     Adding external electric field

     Computed dipole along edir(3) : 
        Dipole               -1.3333 Ry au,         -3.3889 Debye
        Dipole field         -0.0008 Ry au, 
 
        Potential amp.        0.0874 Ry
        Total length         54.7057 bohr
 
 
     Adding external electric field

     Computed dipole along edir(3) : 
        Dipole               -1.3333 Ry au,         -3.3889 Debye
        Dipole field         -0.0008 Ry au, 
 
        Potential amp.        0.0874 Ry
        Total length         54.7057 bohr
 

     total cpu time spent up to now is      210.5 secs

     total energy              =   -8078.20163631 Ry
     estimated scf accuracy    <       9.15771049 Ry

     total magnetization       =    86.94 Bohr mag/cell
     absolute magnetization    =    98.58 Bohr mag/cell

     iteration # 12     ecut=    50.00 Ry     beta= 0.10
     Davidson diagonalization with overlap
     ethr =  8.27E-04,  avg # of iterations =  1.5

     negative rho (up, down):  9.265E-04 2.097E-03
 
     Adding external electric field

     Computed dipole along edir(3) : 
        Dipole               -1.2963 Ry au,         -3.2949 Debye
        Dipole field         -0.0008 Ry au, 
 
        Potential amp.        0.0850 Ry
        Total length         54.7057 bohr
 
 
     Adding external electric field

     Computed dipole along edir(3) : 
        Dipole               -1.2963 Ry au,         -3.2949 Debye
        Dipole field         -0.0008 Ry au, 
 
        Potential amp.        0.0850 Ry
        Total length         54.7057 bohr
 

     total cpu time spent up to now is      225.7 secs

     total energy              =   -8078.25146473 Ry
     estimated scf accuracy    <       4.28575212 Ry

     total magnetization       =    92.98 Bohr mag/cell
     absolute magnetization    =   102.76 Bohr mag/cell

     iteration # 13     ecut=    50.00 Ry     beta= 0.10
     Davidson diagonalization with overlap
     ethr =  3.87E-04,  avg # of iterations =  1.5

     negative rho (up, down):  6.780E-04 1.923E-03
 
     Adding external electric field

     Computed dipole along edir(3) : 
        Dipole               -1.2738 Ry au,         -3.2376 Debye
        Dipole field         -0.0008 Ry au, 
 
        Potential amp.        0.0835 Ry
        Total length         54.7057 bohr
 
 
     Adding external electric field

     Computed dipole along edir(3) : 
        Dipole               -1.2738 Ry au,         -3.2376 Debye
        Dipole field         -0.0008 Ry au, 
 
        Potential amp.        0.0835 Ry
        Total length         54.7057 bohr
 

     total cpu time spent up to now is      240.6 secs

     total energy              =   -8078.22027424 Ry
     estimated scf accuracy    <       3.48519519 Ry

     total magnetization       =    93.50 Bohr mag/cell
     absolute magnetization    =   102.62 Bohr mag/cell

     iteration # 14     ecut=    50.00 Ry     beta= 0.10
     Davidson diagonalization with overlap
     ethr =  3.15E-04,  avg # of iterations =  2.0

     negative rho (up, down):  4.121E-04 1.143E-03
 
     Adding external electric field

     Computed dipole along edir(3) : 
        Dipole               -1.1854 Ry au,         -3.0130 Debye
        Dipole field         -0.0007 Ry au, 
 
        Potential amp.        0.0777 Ry
        Total length         54.7057 bohr
 
 
     Adding external electric field

     Computed dipole along edir(3) : 
        Dipole               -1.1854 Ry au,         -3.0130 Debye
        Dipole field         -0.0007 Ry au, 
 
        Potential amp.        0.0777 Ry
        Total length         54.7057 bohr
 

     total cpu time spent up to now is      256.7 secs

     total energy              =   -8078.18160309 Ry
     estimated scf accuracy    <       2.99099041 Ry

     total magnetization       =    93.34 Bohr mag/cell
     absolute magnetization    =   101.77 Bohr mag/cell

     iteration # 15     ecut=    50.00 Ry     beta= 0.10
     Davidson diagonalization with overlap
     ethr =  2.70E-04,  avg # of iterations =  2.0

     negative rho (up, down):  3.673E-04 1.081E-03
 
     Adding external electric field

     Computed dipole along edir(3) : 
        Dipole               -1.1726 Ry au,         -2.9805 Debye
        Dipole field         -0.0007 Ry au, 
 
        Potential amp.        0.0769 Ry
        Total length         54.7057 bohr
 
 
     Adding external electric field

     Computed dipole along edir(3) : 
        Dipole               -1.1726 Ry au,         -2.9805 Debye
        Dipole field         -0.0007 Ry au, 
 
        Potential amp.        0.0769 Ry
        Total length         54.7057 bohr
 

     total cpu time spent up to now is      272.3 secs

     total energy              =   -8078.30050605 Ry
     estimated scf accuracy    <       0.89087611 Ry

     total magnetization       =    99.00 Bohr mag/cell
     absolute magnetization    =   105.56 Bohr mag/cell

     iteration # 16     ecut=    50.00 Ry     beta= 0.10
     Davidson diagonalization with overlap
     ethr =  8.04E-05,  avg # of iterations = 10.5

     negative rho (up, down):  2.941E-04 9.056E-04
 
     Adding external electric field

     Computed dipole along edir(3) : 
        Dipole               -1.1579 Ry au,         -2.9431 Debye
        Dipole field         -0.0007 Ry au, 
 
        Potential amp.        0.0759 Ry
        Total length         54.7057 bohr
 
 
     Adding external electric field

     Computed dipole along edir(3) : 
        Dipole               -1.1579 Ry au,         -2.9431 Debye
        Dipole field         -0.0007 Ry au, 
 
        Potential amp.        0.0759 Ry
        Total length         54.7057 bohr
 

     total cpu time spent up to now is      297.8 secs

     total energy              =   -8078.31882524 Ry
     estimated scf accuracy    <       0.68158366 Ry

     total magnetization       =    98.22 Bohr mag/cell
     absolute magnetization    =   104.63 Bohr mag/cell

     iteration # 17     ecut=    50.00 Ry     beta= 0.10
     Davidson diagonalization with overlap
     ethr =  6.15E-05,  avg # of iterations =  1.5

     negative rho (up, down):  4.489E-05 1.728E-04
 
     Adding external electric field

     Computed dipole along edir(3) : 
        Dipole               -1.0312 Ry au,         -2.6211 Debye
        Dipole field         -0.0006 Ry au, 
 
        Potential amp.        0.0676 Ry
        Total length         54.7057 bohr
 
 
     Adding external electric field

     Computed dipole along edir(3) : 
        Dipole               -1.0312 Ry au,         -2.6211 Debye
        Dipole field         -0.0006 Ry au, 
 
        Potential amp.        0.0676 Ry
        Total length         54.7057 bohr
 

     total cpu time spent up to now is      313.4 secs

     total energy              =   -8078.41755682 Ry
     estimated scf accuracy    <       0.59708718 Ry

     total magnetization       =    97.91 Bohr mag/cell
     absolute magnetization    =   104.05 Bohr mag/cell

     iteration # 18     ecut=    50.00 Ry     beta= 0.10
     Davidson diagonalization with overlap
     ethr =  5.39E-05,  avg # of iterations =  1.5

     negative rho (up, down):  8.216E-07 4.952E-06
 
     Adding external electric field

     Computed dipole along edir(3) : 
        Dipole               -0.7978 Ry au,         -2.0279 Debye
        Dipole field         -0.0005 Ry au, 
 
        Potential amp.        0.0523 Ry
        Total length         54.7057 bohr
 
 
     Adding external electric field

     Computed dipole along edir(3) : 
        Dipole               -0.7978 Ry au,         -2.0279 Debye
        Dipole field         -0.0005 Ry au, 
 
        Potential amp.        0.0523 Ry
        Total length         54.7057 bohr
 

     total cpu time spent up to now is      328.5 secs

     total energy              =   -8078.50586921 Ry
     estimated scf accuracy    <       0.32160003 Ry

     total magnetization       =    97.52 Bohr mag/cell
     absolute magnetization    =   102.14 Bohr mag/cell

     iteration # 19     ecut=    50.00 Ry     beta= 0.10
     Davidson diagonalization with overlap
     ethr =  2.90E-05,  avg # of iterations = 12.0

     negative rho (up, down):  6.329E-06 2.476E-05
 
     Adding external electric field

     Computed dipole along edir(3) : 
        Dipole               -0.6628 Ry au,         -1.6847 Debye
        Dipole field         -0.0004 Ry au, 
 
        Potential amp.        0.0435 Ry
        Total length         54.7057 bohr
 
 
     Adding external electric field

     Computed dipole along edir(3) : 
        Dipole               -0.6628 Ry au,         -1.6847 Debye
        Dipole field         -0.0004 Ry au, 
 
        Potential amp.        0.0435 Ry
        Total length         54.7057 bohr
 

     total cpu time spent up to now is      356.6 secs

     total energy              =   -8078.54525401 Ry
     estimated scf accuracy    <       0.32997752 Ry

     total magnetization       =    96.95 Bohr mag/cell
     absolute magnetization    =    99.61 Bohr mag/cell

     iteration # 20     ecut=    50.00 Ry     beta= 0.10
     Davidson diagonalization with overlap
     ethr =  2.90E-05,  avg # of iterations =  2.0

     negative rho (up, down):  6.968E-06 2.480E-05
 
     Adding external electric field

     Computed dipole along edir(3) : 
        Dipole               -0.6558 Ry au,         -1.6668 Debye
        Dipole field         -0.0004 Ry au, 
 
        Potential amp.        0.0430 Ry
        Total length         54.7057 bohr
 
 
     Adding external electric field

     Computed dipole along edir(3) : 
        Dipole               -0.6558 Ry au,         -1.6668 Debye
        Dipole field         -0.0004 Ry au, 
 
        Potential amp.        0.0430 Ry
        Total length         54.7057 bohr
 

     total cpu time spent up to now is      372.2 secs

     total energy              =   -8078.55070124 Ry
     estimated scf accuracy    <       0.29836327 Ry

     total magnetization       =    97.57 Bohr mag/cell
     absolute magnetization    =    99.58 Bohr mag/cell

     iteration # 21     ecut=    50.00 Ry     beta= 0.10
     Davidson diagonalization with overlap
     ethr =  2.69E-05,  avg # of iterations =  1.0

     negative rho (up, down):  2.696E-06 1.174E-05
 
     Adding external electric field

     Computed dipole along edir(3) : 
        Dipole               -0.6483 Ry au,         -1.6478 Debye
        Dipole field         -0.0004 Ry au, 
 
        Potential amp.        0.0425 Ry
        Total length         54.7057 bohr
 
 
     Adding external electric field

     Computed dipole along edir(3) : 
        Dipole               -0.6483 Ry au,         -1.6478 Debye
        Dipole field         -0.0004 Ry au, 
 
        Potential amp.        0.0425 Ry
        Total length         54.7057 bohr
 

     total cpu time spent up to now is      386.1 secs

     total energy              =   -8078.54918224 Ry
     estimated scf accuracy    <       0.19376693 Ry

     total magnetization       =    97.45 Bohr mag/cell
     absolute magnetization    =    99.42 Bohr mag/cell

     iteration # 22     ecut=    50.00 Ry     beta= 0.10
     Davidson diagonalization with overlap
     ethr =  1.75E-05,  avg # of iterations =  2.0

     negative rho (up, down):  7.612E-06 1.203E-05
 
     Adding external electric field

     Computed dipole along edir(3) : 
        Dipole               -0.5647 Ry au,         -1.4353 Debye
        Dipole field         -0.0003 Ry au, 
 
        Potential amp.        0.0370 Ry
        Total length         54.7057 bohr
 
 
     Adding external electric field

     Computed dipole along edir(3) : 
        Dipole               -0.5647 Ry au,         -1.4353 Debye
        Dipole field         -0.0003 Ry au, 
 
        Potential amp.        0.0370 Ry
        Total length         54.7057 bohr
 

     total cpu time spent up to now is      401.4 secs

     total energy              =   -8078.55299921 Ry
     estimated scf accuracy    <       0.17477149 Ry

     total magnetization       =    97.44 Bohr mag/cell
     absolute magnetization    =    99.45 Bohr mag/cell

     iteration # 23     ecut=    50.00 Ry     beta= 0.10
     Davidson diagonalization with overlap
     ethr =  1.58E-05,  avg # of iterations =  1.5

     negative rho (up, down):  1.068E-05 1.428E-05
 
     Adding external electric field

     Computed dipole along edir(3) : 
        Dipole               -0.5425 Ry au,         -1.3789 Debye
        Dipole field         -0.0003 Ry au, 
 
        Potential amp.        0.0356 Ry
        Total length         54.7057 bohr
 
 
     Adding external electric field

     Computed dipole along edir(3) : 
        Dipole               -0.5425 Ry au,         -1.3789 Debye
        Dipole field         -0.0003 Ry au, 
 
        Potential amp.        0.0356 Ry
        Total length         54.7057 bohr
 

     total cpu time spent up to now is      416.6 secs

     total energy              =   -8078.55537321 Ry
     estimated scf accuracy    <       0.20153968 Ry

     total magnetization       =    97.14 Bohr mag/cell
     absolute magnetization    =    98.97 Bohr mag/cell

     iteration # 24     ecut=    50.00 Ry     beta= 0.10
     Davidson diagonalization with overlap
     ethr =  1.58E-05,  avg # of iterations =  2.0

     negative rho (up, down):  2.920E-06 2.579E-06
 
     Adding external electric field

     Computed dipole along edir(3) : 
        Dipole               -0.4725 Ry au,         -1.2011 Debye
        Dipole field         -0.0003 Ry au, 
 
        Potential amp.        0.0310 Ry
        Total length         54.7057 bohr
 
 
     Adding external electric field

     Computed dipole along edir(3) : 
        Dipole               -0.4725 Ry au,         -1.2011 Debye
        Dipole field         -0.0003 Ry au, 
 
        Potential amp.        0.0310 Ry
        Total length         54.7057 bohr
 

     total cpu time spent up to now is      432.2 secs

     total energy              =   -8078.55317043 Ry
     estimated scf accuracy    <       0.19380880 Ry

     total magnetization       =    97.05 Bohr mag/cell
     absolute magnetization    =    98.78 Bohr mag/cell

     iteration # 25     ecut=    50.00 Ry     beta= 0.10
     Davidson diagonalization with overlap
     ethr =  1.58E-05,  avg # of iterations = 12.0

     negative rho (up, down):  1.050E-05 6.058E-06
 
     Adding external electric field

     Computed dipole along edir(3) : 
        Dipole               -0.4136 Ry au,         -1.0514 Debye
        Dipole field         -0.0002 Ry au, 
 
        Potential amp.        0.0271 Ry
        Total length         54.7057 bohr
 
 
     Adding external electric field

     Computed dipole along edir(3) : 
        Dipole               -0.4136 Ry au,         -1.0514 Debye
        Dipole field         -0.0002 Ry au, 
 
        Potential amp.        0.0271 Ry
        Total length         54.7057 bohr
 

     total cpu time spent up to now is      461.2 secs

     total energy              =   -8078.55479187 Ry
     estimated scf accuracy    <       0.11908052 Ry

     total magnetization       =    97.10 Bohr mag/cell
     absolute magnetization    =    98.74 Bohr mag/cell

     iteration # 26     ecut=    50.00 Ry     beta= 0.10
     Davidson diagonalization with overlap
     ethr =  1.07E-05,  avg # of iterations =  9.0

     negative rho (up, down):  1.421E-05 6.347E-06
 
     Adding external electric field

     Computed dipole along edir(3) : 
        Dipole               -0.3896 Ry au,         -0.9903 Debye
        Dipole field         -0.0002 Ry au, 
 
        Potential amp.        0.0256 Ry
        Total length         54.7057 bohr
 
 
     Adding external electric field

     Computed dipole along edir(3) : 
        Dipole               -0.3896 Ry au,         -0.9903 Debye
        Dipole field         -0.0002 Ry au, 
 
        Potential amp.        0.0256 Ry
        Total length         54.7057 bohr
 

     total cpu time spent up to now is      482.0 secs

     total energy              =   -8078.55387129 Ry
     estimated scf accuracy    <       0.11009604 Ry

     total magnetization       =    97.24 Bohr mag/cell
     absolute magnetization    =    98.74 Bohr mag/cell

     iteration # 27     ecut=    50.00 Ry     beta= 0.10
     Davidson diagonalization with overlap
     ethr =  9.94E-06,  avg # of iterations =  2.0

     negative rho (up, down):  1.651E-05 6.560E-06
 
     Adding external electric field

     Computed dipole along edir(3) : 
        Dipole               -0.3798 Ry au,         -0.9654 Debye
        Dipole field         -0.0002 Ry au, 
 
        Potential amp.        0.0249 Ry
        Total length         54.7057 bohr
 
 
     Adding external electric field

     Computed dipole along edir(3) : 
        Dipole               -0.3798 Ry au,         -0.9654 Debye
        Dipole field         -0.0002 Ry au, 
 
        Potential amp.        0.0249 Ry
        Total length         54.7057 bohr
 

     total cpu time spent up to now is      498.3 secs

     total energy              =   -8078.55302278 Ry
     estimated scf accuracy    <       0.11567478 Ry

     total magnetization       =    97.25 Bohr mag/cell
     absolute magnetization    =    98.74 Bohr mag/cell

     iteration # 28     ecut=    50.00 Ry     beta= 0.10
     Davidson diagonalization with overlap
     ethr =  9.94E-06,  avg # of iterations =  2.0

     negative rho (up, down):  7.705E-06 4.446E-06
 
     Adding external electric field

     Computed dipole along edir(3) : 
        Dipole               -0.4192 Ry au,         -1.0655 Debye
        Dipole field         -0.0003 Ry au, 
 
        Potential amp.        0.0275 Ry
        Total length         54.7057 bohr
 
 
     Adding external electric field

     Computed dipole along edir(3) : 
        Dipole               -0.4192 Ry au,         -1.0655 Debye
        Dipole field         -0.0003 Ry au, 
 
        Potential amp.        0.0275 Ry
        Total length         54.7057 bohr
 

     total cpu time spent up to now is      514.3 secs

     total energy              =   -8078.55529125 Ry
     estimated scf accuracy    <       0.11068004 Ry

     total magnetization       =    97.33 Bohr mag/cell
     absolute magnetization    =    98.85 Bohr mag/cell

     iteration # 29     ecut=    50.00 Ry     beta= 0.10
     Davidson diagonalization with overlap
     ethr =  9.94E-06,  avg # of iterations =  2.0

     negative rho (up, down):  5.789E-05 2.189E-05
 
     Adding external electric field

     Computed dipole along edir(3) : 
        Dipole               -0.3329 Ry au,         -0.8462 Debye
        Dipole field         -0.0002 Ry au, 
 
        Potential amp.        0.0218 Ry
        Total length         54.7057 bohr
 
 
     Adding external electric field

     Computed dipole along edir(3) : 
        Dipole               -0.3329 Ry au,         -0.8462 Debye
        Dipole field         -0.0002 Ry au, 
 
        Potential amp.        0.0218 Ry
        Total length         54.7057 bohr
 

     total cpu time spent up to now is      529.5 secs

     total energy              =   -8078.55008962 Ry
     estimated scf accuracy    <       0.14266335 Ry

     total magnetization       =    97.15 Bohr mag/cell
     absolute magnetization    =    98.66 Bohr mag/cell

     iteration # 30     ecut=    50.00 Ry     beta= 0.10
     Davidson diagonalization with overlap
     ethr =  9.94E-06,  avg # of iterations =  1.5

     negative rho (up, down):  1.132E-04 4.940E-05
 
     Adding external electric field

     Computed dipole along edir(3) : 
        Dipole               -0.3102 Ry au,         -0.7884 Debye
        Dipole field         -0.0002 Ry au, 
 
        Potential amp.        0.0203 Ry
        Total length         54.7057 bohr
 
 
     Adding external electric field

     Computed dipole along edir(3) : 
        Dipole               -0.3102 Ry au,         -0.7884 Debye
        Dipole field         -0.0002 Ry au, 
 
        Potential amp.        0.0203 Ry
        Total length         54.7057 bohr
 

     total cpu time spent up to now is      545.0 secs

     total energy              =   -8078.55003162 Ry
     estimated scf accuracy    <       0.12146591 Ry

     total magnetization       =    97.25 Bohr mag/cell
     absolute magnetization    =    98.87 Bohr mag/cell

     iteration # 31     ecut=    50.00 Ry     beta= 0.10
     Davidson diagonalization with overlap
     ethr =  9.94E-06,  avg # of iterations =  2.0

     negative rho (up, down):  1.224E-03 8.950E-04
 
     Adding external electric field

     Computed dipole along edir(3) : 
        Dipole               -0.1841 Ry au,         -0.4679 Debye
        Dipole field         -0.0001 Ry au, 
 
        Potential amp.        0.0121 Ry
        Total length         54.7057 bohr
 
 
     Adding external electric field

     Computed dipole along edir(3) : 
        Dipole               -0.1841 Ry au,         -0.4679 Debye
        Dipole field         -0.0001 Ry au, 
 
        Potential amp.        0.0121 Ry
        Total length         54.7057 bohr
 

     total cpu time spent up to now is      561.3 secs

     total energy              =   -8078.55062648 Ry
     estimated scf accuracy    <       0.12388301 Ry

     total magnetization       =    97.26 Bohr mag/cell
     absolute magnetization    =    98.88 Bohr mag/cell

     iteration # 32     ecut=    50.00 Ry     beta= 0.10
     Davidson diagonalization with overlap
     ethr =  9.94E-06,  avg # of iterations = 11.0

     negative rho (up, down):  6.745E-04 4.674E-04
 
     Adding external electric field

     Computed dipole along edir(3) : 
        Dipole               -0.2403 Ry au,         -0.6108 Debye
        Dipole field         -0.0001 Ry au, 
 
        Potential amp.        0.0158 Ry
        Total length         54.7057 bohr
 
 
     Adding external electric field

     Computed dipole along edir(3) : 
        Dipole               -0.2403 Ry au,         -0.6108 Debye
        Dipole field         -0.0001 Ry au, 
 
        Potential amp.        0.0158 Ry
        Total length         54.7057 bohr
 

     total cpu time spent up to now is      585.3 secs

     total energy              =   -8078.55233508 Ry
     estimated scf accuracy    <       0.14729619 Ry

     total magnetization       =    97.11 Bohr mag/cell
     absolute magnetization    =    98.67 Bohr mag/cell

     iteration # 33     ecut=    50.00 Ry     beta= 0.10
     Davidson diagonalization with overlap
     ethr =  9.94E-06,  avg # of iterations =  1.5

     negative rho (up, down):  1.360E-04 8.912E-05
 
     Adding external electric field

     Computed dipole along edir(3) : 
        Dipole               -0.2962 Ry au,         -0.7529 Debye
        Dipole field         -0.0002 Ry au, 
 
        Potential amp.        0.0194 Ry
        Total length         54.7057 bohr
 
 
     Adding external electric field

     Computed dipole along edir(3) : 
        Dipole               -0.2962 Ry au,         -0.7529 Debye
        Dipole field         -0.0002 Ry au, 
 
        Potential amp.        0.0194 Ry
        Total length         54.7057 bohr
 

     total cpu time spent up to now is      601.7 secs

     total energy              =   -8078.55293181 Ry
     estimated scf accuracy    <       0.15769579 Ry

     total magnetization       =    97.14 Bohr mag/cell
     absolute magnetization    =    98.68 Bohr mag/cell

     iteration # 34     ecut=    50.00 Ry     beta= 0.10
     Davidson diagonalization with overlap
     ethr =  9.94E-06,  avg # of iterations =  2.0

     negative rho (up, down):  5.853E-05 1.676E-05
 
     Adding external electric field

     Computed dipole along edir(3) : 
        Dipole               -0.3295 Ry au,         -0.8376 Debye
        Dipole field         -0.0002 Ry au, 
 
        Potential amp.        0.0216 Ry
        Total length         54.7057 bohr
 
 
     Adding external electric field

     Computed dipole along edir(3) : 
        Dipole               -0.3295 Ry au,         -0.8376 Debye
        Dipole field         -0.0002 Ry au, 
 
        Potential amp.        0.0216 Ry
        Total length         54.7057 bohr
 

     total cpu time spent up to now is      618.4 secs

     total energy              =   -8078.54450315 Ry
     estimated scf accuracy    <       0.09921462 Ry

     total magnetization       =    97.42 Bohr mag/cell
     absolute magnetization    =    98.91 Bohr mag/cell

     iteration # 35     ecut=    50.00 Ry     beta= 0.10
     Davidson diagonalization with overlap
     ethr =  8.95E-06,  avg # of iterations =  1.0

     negative rho (up, down):  8.997E-04 4.756E-04
 
     Adding external electric field

     Computed dipole along edir(3) : 
        Dipole               -0.2199 Ry au,         -0.5590 Debye
        Dipole field         -0.0001 Ry au, 
 
        Potential amp.        0.0144 Ry
        Total length         54.7057 bohr
 
 
     Adding external electric field

     Computed dipole along edir(3) : 
        Dipole               -0.2199 Ry au,         -0.5590 Debye
        Dipole field         -0.0001 Ry au, 
 
        Potential amp.        0.0144 Ry
        Total length         54.7057 bohr
 

     total cpu time spent up to now is      633.2 secs

     total energy              =   -8078.54132098 Ry
     estimated scf accuracy    <       0.10860599 Ry

     total magnetization       =    97.44 Bohr mag/cell
     absolute magnetization    =    99.07 Bohr mag/cell

     iteration # 36     ecut=    50.00 Ry     beta= 0.10
     Davidson diagonalization with overlap
     ethr =  8.95E-06,  avg # of iterations =  2.0

     negative rho (up, down):  6.420E-04 4.439E-04
 
     Adding external electric field

     Computed dipole along edir(3) : 
        Dipole               -0.2821 Ry au,         -0.7169 Debye
        Dipole field         -0.0002 Ry au, 
 
        Potential amp.        0.0185 Ry
        Total length         54.7057 bohr
 
 
     Adding external electric field

     Computed dipole along edir(3) : 
        Dipole               -0.2821 Ry au,         -0.7169 Debye
        Dipole field         -0.0002 Ry au, 
 
        Potential amp.        0.0185 Ry
        Total length         54.7057 bohr
 

     total cpu time spent up to now is      649.1 secs

     total energy              =   -8078.55163194 Ry
     estimated scf accuracy    <       0.14000042 Ry

     total magnetization       =    97.35 Bohr mag/cell
     absolute magnetization    =    98.69 Bohr mag/cell

     iteration # 37     ecut=    50.00 Ry     beta= 0.10
     Davidson diagonalization with overlap
     ethr =  8.95E-06,  avg # of iterations =  1.0

     negative rho (up, down):  2.714E-04 1.483E-04
 
     Adding external electric field

     Computed dipole along edir(3) : 
        Dipole               -0.3376 Ry au,         -0.8581 Debye
        Dipole field         -0.0002 Ry au, 
 
        Potential amp.        0.0221 Ry
        Total length         54.7057 bohr
 
 
     Adding external electric field

     Computed dipole along edir(3) : 
        Dipole               -0.3376 Ry au,         -0.8581 Debye
        Dipole field         -0.0002 Ry au, 
 
        Potential amp.        0.0221 Ry
        Total length         54.7057 bohr
 

     total cpu time spent up to now is      663.6 secs

     total energy              =   -8078.54910117 Ry
     estimated scf accuracy    <       0.12070605 Ry

     total magnetization       =    97.17 Bohr mag/cell
     absolute magnetization    =    98.59 Bohr mag/cell

     iteration # 38     ecut=    50.00 Ry     beta= 0.10
     Davidson diagonalization with overlap
     ethr =  8.95E-06,  avg # of iterations =  1.5

     negative rho (up, down):  4.829E-05 5.059E-05
 
     Adding external electric field

     Computed dipole along edir(3) : 
        Dipole               -0.3194 Ry au,         -0.8118 Debye
        Dipole field         -0.0002 Ry au, 
 
        Potential amp.        0.0209 Ry
        Total length         54.7057 bohr
 
 
     Adding external electric field

     Computed dipole along edir(3) : 
        Dipole               -0.3194 Ry au,         -0.8118 Debye
        Dipole field         -0.0002 Ry au, 
 
        Potential amp.        0.0209 Ry
        Total length         54.7057 bohr
 

     total cpu time spent up to now is      679.0 secs

     total energy              =   -8078.55651710 Ry
     estimated scf accuracy    <       0.09542996 Ry

     total magnetization       =    97.43 Bohr mag/cell
     absolute magnetization    =    99.00 Bohr mag/cell

     iteration # 39     ecut=    50.00 Ry     beta= 0.10
     Davidson diagonalization with overlap
     ethr =  8.61E-06,  avg # of iterations =  2.0

     negative rho (up, down):  3.116E-05 1.656E-05
 
     Adding external electric field

     Computed dipole along edir(3) : 
        Dipole               -0.2782 Ry au,         -0.7070 Debye
        Dipole field         -0.0002 Ry au, 
 
        Potential amp.        0.0182 Ry
        Total length         54.7057 bohr
 
 
     Adding external electric field

     Computed dipole along edir(3) : 
        Dipole               -0.2782 Ry au,         -0.7070 Debye
        Dipole field         -0.0002 Ry au, 
 
        Potential amp.        0.0182 Ry
        Total length         54.7057 bohr
 

     total cpu time spent up to now is      694.8 secs

     total energy              =   -8078.55626800 Ry
     estimated scf accuracy    <       0.12662725 Ry

     total magnetization       =    97.00 Bohr mag/cell
     absolute magnetization    =    98.37 Bohr mag/cell

     iteration # 40     ecut=    50.00 Ry     beta= 0.10
     Davidson diagonalization with overlap
     ethr =  8.61E-06,  avg # of iterations =  1.0

     negative rho (up, down):  1.796E-05 9.464E-06
 
     Adding external electric field

     Computed dipole along edir(3) : 
        Dipole               -0.3103 Ry au,         -0.7887 Debye
        Dipole field         -0.0002 Ry au, 
 
        Potential amp.        0.0204 Ry
        Total length         54.7057 bohr
 
 
     Adding external electric field

     Computed dipole along edir(3) : 
        Dipole               -0.3103 Ry au,         -0.7887 Debye
        Dipole field         -0.0002 Ry au, 
 
        Potential amp.        0.0204 Ry
        Total length         54.7057 bohr
 

     total cpu time spent up to now is      708.4 secs

     total energy              =   -8078.55467441 Ry
     estimated scf accuracy    <       0.14861998 Ry

     total magnetization       =    97.12 Bohr mag/cell
     absolute magnetization    =    98.45 Bohr mag/cell

     iteration # 41     ecut=    50.00 Ry     beta= 0.10
     Davidson diagonalization with overlap
     ethr =  8.61E-06,  avg # of iterations =  1.0

     negative rho (up, down):  1.846E-05 9.803E-06
 
     Adding external electric field

     Computed dipole along edir(3) : 
        Dipole               -0.3794 Ry au,         -0.9643 Debye
        Dipole field         -0.0002 Ry au, 
 
        Potential amp.        0.0249 Ry
        Total length         54.7057 bohr
 
 
     Adding external electric field

     Computed dipole along edir(3) : 
        Dipole               -0.3794 Ry au,         -0.9643 Debye
        Dipole field         -0.0002 Ry au, 
 
        Potential amp.        0.0249 Ry
        Total length         54.7057 bohr
 

     total cpu time spent up to now is      722.8 secs

     total energy              =   -8078.55573844 Ry
     estimated scf accuracy    <       0.09655179 Ry

     total magnetization       =    97.33 Bohr mag/cell
     absolute magnetization    =    98.72 Bohr mag/cell

     iteration # 42     ecut=    50.00 Ry     beta= 0.10
     Davidson diagonalization with overlap
     ethr =  8.61E-06,  avg # of iterations =  1.5

     negative rho (up, down):  1.850E-04 1.107E-04
 
     Adding external electric field

     Computed dipole along edir(3) : 
        Dipole               -0.1236 Ry au,         -0.3142 Debye
        Dipole field         -0.0001 Ry au, 
 
        Potential amp.        0.0081 Ry
        Total length         54.7057 bohr
 
 
     Adding external electric field

     Computed dipole along edir(3) : 
        Dipole               -0.1236 Ry au,         -0.3142 Debye
        Dipole field         -0.0001 Ry au, 
 
        Potential amp.        0.0081 Ry
        Total length         54.7057 bohr
 

     total cpu time spent up to now is      738.5 secs

     total energy              =   -8078.55207272 Ry
     estimated scf accuracy    <       0.09650407 Ry

     total magnetization       =    97.43 Bohr mag/cell
     absolute magnetization    =    98.81 Bohr mag/cell

     iteration # 43     ecut=    50.00 Ry     beta= 0.10
     Davidson diagonalization with overlap
     ethr =  8.61E-06,  avg # of iterations =  2.0

     negative rho (up, down):  1.770E-03 1.641E-03
 
     Adding external electric field

     Computed dipole along edir(3) : 
        Dipole                0.0485 Ry au,          0.1232 Debye
        Dipole field          0.0000 Ry au, 
 
        Potential amp.       -0.0032 Ry
        Total length         54.7057 bohr
 
 
     Adding external electric field

     Computed dipole along edir(3) : 
        Dipole                0.0485 Ry au,          0.1232 Debye
        Dipole field          0.0000 Ry au, 
 
        Potential amp.       -0.0032 Ry
        Total length         54.7057 bohr
 

     total cpu time spent up to now is      755.1 secs

     total energy              =   -8078.55305061 Ry
     estimated scf accuracy    <       0.07762409 Ry

     total magnetization       =    97.25 Bohr mag/cell
     absolute magnetization    =    98.75 Bohr mag/cell

     iteration # 44     ecut=    50.00 Ry     beta= 0.10
     Davidson diagonalization with overlap
     ethr =  7.01E-06,  avg # of iterations =  6.0

     negative rho (up, down):  7.996E-03 7.249E-03
 
     Adding external electric field

     Computed dipole along edir(3) : 
        Dipole                0.2441 Ry au,          0.6205 Debye
        Dipole field          0.0001 Ry au, 
 
        Potential amp.       -0.0160 Ry
        Total length         54.7057 bohr
 
 
     Adding external electric field

     Computed dipole along edir(3) : 
        Dipole                0.2441 Ry au,          0.6205 Debye
        Dipole field          0.0001 Ry au, 
 
        Potential amp.       -0.0160 Ry
        Total length         54.7057 bohr
 

     total cpu time spent up to now is      773.9 secs

     total energy              =   -8078.55307516 Ry
     estimated scf accuracy    <       0.06069155 Ry

     total magnetization       =    97.17 Bohr mag/cell
     absolute magnetization    =    98.68 Bohr mag/cell

     iteration # 45     ecut=    50.00 Ry     beta= 0.10
     Davidson diagonalization with overlap
     ethr =  5.48E-06,  avg # of iterations =  2.5

     negative rho (up, down):  1.878E-02 1.539E-02
 
     Adding external electric field

     Computed dipole along edir(3) : 
        Dipole                0.4377 Ry au,          1.1126 Debye
        Dipole field          0.0003 Ry au, 
 
        Potential amp.       -0.0287 Ry
        Total length         54.7057 bohr
 
 
     Adding external electric field

     Computed dipole along edir(3) : 
        Dipole                0.4377 Ry au,          1.1126 Debye
        Dipole field          0.0003 Ry au, 
 
        Potential amp.       -0.0287 Ry
        Total length         54.7057 bohr
 

     total cpu time spent up to now is      790.5 secs

     total energy              =   -8078.55172628 Ry
     estimated scf accuracy    <       0.03636586 Ry

     total magnetization       =    97.12 Bohr mag/cell
     absolute magnetization    =    98.42 Bohr mag/cell

     iteration # 46     ecut=    50.00 Ry     beta= 0.10
     Davidson diagonalization with overlap
     c_bands:  2 eigenvalues not converged
     ethr =  3.28E-06,  avg # of iterations = 19.5

     negative rho (up, down):  1.407E-02 1.063E-02
 
     Adding external electric field

     Computed dipole along edir(3) : 
        Dipole                0.3770 Ry au,          0.9583 Debye
        Dipole field          0.0002 Ry au, 
 
        Potential amp.       -0.0247 Ry
        Total length         54.7057 bohr
 
 
     Adding external electric field

     Computed dipole along edir(3) : 
        Dipole                0.3770 Ry au,          0.9583 Debye
        Dipole field          0.0002 Ry au, 
 
        Potential amp.       -0.0247 Ry
        Total length         54.7057 bohr
 

     total cpu time spent up to now is      826.7 secs

     total energy              =   -8078.55053718 Ry
     estimated scf accuracy    <       0.02305964 Ry

     total magnetization       =    97.13 Bohr mag/cell
     absolute magnetization    =    98.39 Bohr mag/cell

     iteration # 47     ecut=    50.00 Ry     beta= 0.10
     Davidson diagonalization with overlap
     ethr =  2.08E-06,  avg # of iterations =  3.0

     negative rho (up, down):  1.658E-02 1.322E-02
 
     Adding external electric field

     Computed dipole along edir(3) : 
        Dipole                0.4345 Ry au,          1.1043 Debye
        Dipole field          0.0003 Ry au, 
 
        Potential amp.       -0.0285 Ry
        Total length         54.7057 bohr
 
 
     Adding external electric field

     Computed dipole along edir(3) : 
        Dipole                0.4345 Ry au,          1.1043 Debye
        Dipole field          0.0003 Ry au, 
 
        Potential amp.       -0.0285 Ry
        Total length         54.7057 bohr
 

     total cpu time spent up to now is      843.5 secs

     total energy              =   -8078.55138400 Ry
     estimated scf accuracy    <       0.02054928 Ry

     total magnetization       =    97.22 Bohr mag/cell
     absolute magnetization    =    98.47 Bohr mag/cell

     iteration # 48     ecut=    50.00 Ry     beta= 0.10
     Davidson diagonalization with overlap
     ethr =  1.85E-06,  avg # of iterations =  2.0

     negative rho (up, down):  5.352E-03 3.728E-03
 
     Adding external electric field

     Computed dipole along edir(3) : 
        Dipole                0.3174 Ry au,          0.8066 Debye
        Dipole field          0.0002 Ry au, 
 
        Potential amp.       -0.0208 Ry
        Total length         54.7057 bohr
 
 
     Adding external electric field

     Computed dipole along edir(3) : 
        Dipole                0.3174 Ry au,          0.8066 Debye
        Dipole field          0.0002 Ry au, 
 
        Potential amp.       -0.0208 Ry
        Total length         54.7057 bohr
 

     total cpu time spent up to now is      858.9 secs

     total energy              =   -8078.55202268 Ry
     estimated scf accuracy    <       0.01530473 Ry

     total magnetization       =    97.20 Bohr mag/cell
     absolute magnetization    =    98.47 Bohr mag/cell

     iteration # 49     ecut=    50.00 Ry     beta= 0.10
     Davidson diagonalization with overlap
     c_bands:  5 eigenvalues not converged
     ethr =  1.38E-06,  avg # of iterations = 17.0

     negative rho (up, down):  7.727E-03 6.581E-03
 
     Adding external electric field

     Computed dipole along edir(3) : 
        Dipole                0.4190 Ry au,          1.0649 Debye
        Dipole field          0.0003 Ry au, 
 
        Potential amp.       -0.0275 Ry
        Total length         54.7057 bohr
 
 
     Adding external electric field

     Computed dipole along edir(3) : 
        Dipole                0.4190 Ry au,          1.0649 Debye
        Dipole field          0.0003 Ry au, 
 
        Potential amp.       -0.0275 Ry
        Total length         54.7057 bohr
 

     total cpu time spent up to now is      886.7 secs

     total energy              =   -8078.55324248 Ry
     estimated scf accuracy    <       0.00864651 Ry

     total magnetization       =    97.25 Bohr mag/cell
     absolute magnetization    =    98.52 Bohr mag/cell

     iteration # 50     ecut=    50.00 Ry     beta= 0.10
     Davidson diagonalization with overlap
     c_bands:  1 eigenvalues not converged
     ethr =  7.80E-07,  avg # of iterations = 11.5

     negative rho (up, down):  1.888E-03 1.465E-03
 
     Adding external electric field

     Computed dipole along edir(3) : 
        Dipole                0.3332 Ry au,          0.8468 Debye
        Dipole field          0.0002 Ry au, 
 
        Potential amp.       -0.0219 Ry
        Total length         54.7057 bohr
 
 
     Adding external electric field

     Computed dipole along edir(3) : 
        Dipole                0.3332 Ry au,          0.8468 Debye
        Dipole field          0.0002 Ry au, 
 
        Potential amp.       -0.0219 Ry
        Total length         54.7057 bohr
 

     total cpu time spent up to now is      909.1 secs

     total energy              =   -8078.55343853 Ry
     estimated scf accuracy    <       0.00586849 Ry

     total magnetization       =    97.17 Bohr mag/cell
     absolute magnetization    =    98.45 Bohr mag/cell

     iteration # 51     ecut=    50.00 Ry     beta= 0.10
     Davidson diagonalization with overlap
     c_bands:  1 eigenvalues not converged
     ethr =  5.30E-07,  avg # of iterations = 12.0

     negative rho (up, down):  5.163E-04 3.690E-04
 
     Adding external electric field

     Computed dipole along edir(3) : 
        Dipole                0.2899 Ry au,          0.7368 Debye
        Dipole field          0.0002 Ry au, 
 
        Potential amp.       -0.0190 Ry
        Total length         54.7057 bohr
 
 
     Adding external electric field

     Computed dipole along edir(3) : 
        Dipole                0.2899 Ry au,          0.7368 Debye
        Dipole field          0.0002 Ry au, 
 
        Potential amp.       -0.0190 Ry
        Total length         54.7057 bohr
 

     total cpu time spent up to now is      932.2 secs

     total energy              =   -8078.55354626 Ry
     estimated scf accuracy    <       0.00220287 Ry

     total magnetization       =    97.21 Bohr mag/cell
     absolute magnetization    =    98.47 Bohr mag/cell

     iteration # 52     ecut=    50.00 Ry     beta= 0.10
     Davidson diagonalization with overlap
     c_bands:  1 eigenvalues not converged
     ethr =  1.99E-07,  avg # of iterations = 11.0

     negative rho (up, down):  5.794E-04 4.253E-04
 
     Adding external electric field

     Computed dipole along edir(3) : 
        Dipole                0.3018 Ry au,          0.7670 Debye
        Dipole field          0.0002 Ry au, 
 
        Potential amp.       -0.0198 Ry
        Total length         54.7057 bohr
 
 
     Adding external electric field

     Computed dipole along edir(3) : 
        Dipole                0.3018 Ry au,          0.7670 Debye
        Dipole field          0.0002 Ry au, 
 
        Potential amp.       -0.0198 Ry
        Total length         54.7057 bohr
 

     total cpu time spent up to now is      954.2 secs

     total energy              =   -8078.55358991 Ry
     estimated scf accuracy    <       0.00132691 Ry

     total magnetization       =    97.22 Bohr mag/cell
     absolute magnetization    =    98.45 Bohr mag/cell

     iteration # 53     ecut=    50.00 Ry     beta= 0.10
     Davidson diagonalization with overlap
     ethr =  1.20E-07,  avg # of iterations =  6.5

     negative rho (up, down):  4.448E-04 3.057E-04
 
     Adding external electric field

     Computed dipole along edir(3) : 
        Dipole                0.2941 Ry au,          0.7475 Debye
        Dipole field          0.0002 Ry au, 
 
        Potential amp.       -0.0193 Ry
        Total length         54.7057 bohr
 
 
     Adding external electric field

     Computed dipole along edir(3) : 
        Dipole                0.2941 Ry au,          0.7475 Debye
        Dipole field          0.0002 Ry au, 
 
        Potential amp.       -0.0193 Ry
        Total length         54.7057 bohr
 

     total cpu time spent up to now is      972.7 secs

     total energy              =   -8078.55361078 Ry
     estimated scf accuracy    <       0.00074227 Ry

     total magnetization       =    97.20 Bohr mag/cell
     absolute magnetization    =    98.39 Bohr mag/cell

     iteration # 54     ecut=    50.00 Ry     beta= 0.10
     Davidson diagonalization with overlap
     ethr =  6.70E-08,  avg # of iterations =  2.0

     negative rho (up, down):  4.647E-04 2.515E-04
 
     Adding external electric field

     Computed dipole along edir(3) : 
        Dipole                0.2916 Ry au,          0.7411 Debye
        Dipole field          0.0002 Ry au, 
 
        Potential amp.       -0.0191 Ry
        Total length         54.7057 bohr
 
 
     Adding external electric field

     Computed dipole along edir(3) : 
        Dipole                0.2916 Ry au,          0.7411 Debye
        Dipole field          0.0002 Ry au, 
 
        Potential amp.       -0.0191 Ry
        Total length         54.7057 bohr
 

     total cpu time spent up to now is      989.2 secs

     total energy              =   -8078.55361044 Ry
     estimated scf accuracy    <       0.00049592 Ry

     total magnetization       =    97.19 Bohr mag/cell
     absolute magnetization    =    98.38 Bohr mag/cell

     iteration # 55     ecut=    50.00 Ry     beta= 0.10
     Davidson diagonalization with overlap
     ethr =  4.48E-08,  avg # of iterations =  2.0

     negative rho (up, down):  2.403E-04 7.028E-05
 
     Adding external electric field

     Computed dipole along edir(3) : 
        Dipole                0.2744 Ry au,          0.6974 Debye
        Dipole field          0.0002 Ry au, 
 
        Potential amp.       -0.0180 Ry
        Total length         54.7057 bohr
 
 
     Adding external electric field

     Computed dipole along edir(3) : 
        Dipole                0.2744 Ry au,          0.6974 Debye
        Dipole field          0.0002 Ry au, 
 
        Potential amp.       -0.0180 Ry
        Total length         54.7057 bohr
 

     total cpu time spent up to now is     1005.7 secs

     total energy              =   -8078.55360826 Ry
     estimated scf accuracy    <       0.00033487 Ry

     total magnetization       =    97.19 Bohr mag/cell
     absolute magnetization    =    98.38 Bohr mag/cell

     iteration # 56     ecut=    50.00 Ry     beta= 0.10
     Davidson diagonalization with overlap
     ethr =  3.02E-08,  avg # of iterations =  2.0

     negative rho (up, down):  6.194E-04 3.245E-04
 
     Adding external electric field

     Computed dipole along edir(3) : 
        Dipole                0.2773 Ry au,          0.7048 Debye
        Dipole field          0.0002 Ry au, 
 
        Potential amp.       -0.0182 Ry
        Total length         54.7057 bohr
 
 
     Adding external electric field

     Computed dipole along edir(3) : 
        Dipole                0.2773 Ry au,          0.7048 Debye
        Dipole field          0.0002 Ry au, 
 
        Potential amp.       -0.0182 Ry
        Total length         54.7057 bohr
 

     total cpu time spent up to now is     1021.5 secs

     total energy              =   -8078.55360726 Ry
     estimated scf accuracy    <       0.00031049 Ry

     total magnetization       =    97.20 Bohr mag/cell
     absolute magnetization    =    98.39 Bohr mag/cell

     iteration # 57     ecut=    50.00 Ry     beta= 0.10
     Davidson diagonalization with overlap
     ethr =  2.80E-08,  avg # of iterations =  1.5

     negative rho (up, down):  1.101E-03 7.605E-04
 
     Adding external electric field

     Computed dipole along edir(3) : 
        Dipole                0.2870 Ry au,          0.7294 Debye
        Dipole field          0.0002 Ry au, 
 
        Potential amp.       -0.0188 Ry
        Total length         54.7057 bohr
 
 
     Adding external electric field

     Computed dipole along edir(3) : 
        Dipole                0.2870 Ry au,          0.7294 Debye
        Dipole field          0.0002 Ry au, 
 
        Potential amp.       -0.0188 Ry
        Total length         54.7057 bohr
 

     total cpu time spent up to now is     1036.7 secs

     total energy              =   -8078.55362678 Ry
     estimated scf accuracy    <       0.00022639 Ry

     total magnetization       =    97.21 Bohr mag/cell
     absolute magnetization    =    98.39 Bohr mag/cell

     iteration # 58     ecut=    50.00 Ry     beta= 0.10
     Davidson diagonalization with overlap
     ethr =  2.04E-08,  avg # of iterations =  2.0

     negative rho (up, down):  7.266E-04 3.373E-04
 
     Adding external electric field

     Computed dipole along edir(3) : 
[...]
    -5.9896  -5.9855  -5.9562  -5.9337  -5.8978  -5.8834  -5.8594  -5.8495
    -5.8195  -5.8115  -5.7978  -5.7641  -5.7568  -5.7409  -5.7130  -5.6826
    -5.6713  -5.6425  -5.6344  -5.6134  -5.5788  -5.5674  -5.5644  -5.5378
    -5.5198  -5.5167  -5.4822  -5.4725  -5.4666  -5.4595  -5.3930  -5.3761
    -5.3627  -5.3140  -5.3018  -5.2859  -5.2368  -5.2048  -5.1752  -5.1714
    -5.1508  -5.1037  -5.1007  -5.0001  -4.9649  -4.9592  -4.9510  -4.9163
    -4.8923  -4.8633  -4.8040  -4.7989  -4.7912  -4.7319  -4.7191  -4.7067
    -4.6569  -4.6041  -4.5822  -4.5667  -4.5102  -4.4705  -4.4600  -4.3945
    -4.3765  -4.3579  -4.3226  -4.2972  -4.2759  -4.2505  -4.2112  -4.1885
    -4.1362  -4.1099  -4.0958  -4.0559  -4.0456  -4.0113  -3.9991  -3.9621
    -3.8723  -3.8669  -3.8326  -3.8095  -3.8035  -3.7779  -3.7510  -3.7208
    -3.7117  -3.7039  -3.6746  -3.6194  -3.6109  -3.5909  -3.5807  -3.5729
    -3.5495  -3.5384  -3.5031  -3.4995  -3.4890  -3.4861  -3.4454  -3.4289
    -3.4113  -3.3979  -3.3965  -3.3717  -3.3323  -3.3254  -3.3115  -3.3006
    -3.2915  -3.2871  -3.2658  -3.2440  -3.2263  -3.1936  -3.1792  -3.1496
    -3.1375  -3.1029  -3.0563  -3.0350  -3.0284  -3.0183  -3.0046  -2.9837
    -2.9809  -2.9710  -2.9475  -2.9013  -2.8794  -2.8667  -2.8415  -2.8128
    -2.8013  -2.7813  -2.7257  -2.7128  -2.7003  -2.6934  -2.6793  -2.6621
    -2.6591  -2.6410  -2.6333  -2.6132  -2.5969  -2.5954  -2.5873  -2.5783
    -2.5579  -2.5500  -2.5310  -2.5208  -2.5005  -2.4916  -2.4822  -2.4454
    -2.4320  -2.4206  -2.3854  -2.3715  -2.3512  -2.3426  -2.3250  -2.3048
    -2.2878  -2.2851  -2.2674  -2.2570  -2.2200  -2.2092  -2.1900  -2.1841
    -2.1583  -2.1266  -2.1055  -2.0888  -2.0857  -2.0650  -2.0501  -2.0300
    -2.0177  -1.9911  -1.9781  -1.9597  -1.9344  -1.9171  -1.9103  -1.8836
    -1.8710  -1.8611  -1.8464  -1.8418  -1.8323  -1.7986  -1.7636  -1.7495
    -1.7398  -1.7187  -1.7020  -1.6910  -1.6698  -1.6517  -1.6034  -1.5929
    -1.5713  -1.5578  -1.5277  -1.5179  -1.4986  -1.4872  -1.4733  -1.4580
    -1.4362  -1.4330  -1.4111  -1.3818  -1.3742  -1.3530  -1.3231  -1.3053
    -1.2972  -1.2911  -1.2326  -1.2068  -1.1874  -1.1518  -1.1432  -1.1370
    -1.0777  -1.0704  -1.0014  -0.9697  -0.9441  -0.8224  -0.8123  -0.7717
    -0.7059  -0.6755  -0.6725  -0.4885  -0.3400  -0.2780  -0.2313  -0.1769
     0.1809   0.1923   0.2383   0.2493   0.2571   0.2657   0.2719   0.2988
     0.3362   0.3505   0.3805   0.3909   0.3945   0.3956   0.3977   0.4090
     0.4143   0.4228   0.4398   0.4446   0.4508   0.4618   0.4675   0.4710
     0.4730   0.4832   0.4921   0.5016   0.5119   0.5199   0.5259   0.5360
     0.5450   0.5507   0.5771   0.5824   0.5843   0.5863   0.5934   0.6044
     0.6143   0.6215   0.6353   0.6411   0.6487   0.6618   0.6690   0.6779
     0.6899   0.7032   0.7092   0.7164   0.7255   0.7327   0.7374   0.7524
     0.7626   0.7750   0.7907   0.7914   0.8065   0.8131   0.8158   0.8235
     0.8323   0.8473   0.8619   0.8661   0.8768   0.8874   0.9084   0.9417
     0.9520   0.9931   1.0047   1.0238   1.0342   1.1013   1.1674   1.2175
     1.7005   1.7679   1.7790   1.7861   1.8113   1.8163   1.8399   1.8611
     1.8893   1.9019   1.9188   1.9280   1.9561   1.9754   2.0141   2.0441
     2.0517   2.0677   2.0898   2.0939   2.1193   2.1254   2.1446   2.1647
     2.1855   2.1990   2.2107   2.2352   2.2409   2.2799   2.2934   2.3049
     2.3339   2.3363   2.3458   2.3619   2.3806   2.3850   2.4178   2.4332
     2.4555   2.4727   2.4836   2.5276   2.5346   2.5457   2.5790   2.6056
     2.6456   2.6535   2.7564   2.7812   2.8171   2.8366   2.8929   3.4933
     3.5691   3.6733   3.7179   3.7420   3.7677   3.7881   3.7930   3.9132
     3.9227   3.9491   3.9757   3.9864   3.9898   3.9978   4.0004   4.0537
     4.0613   4.0802   4.0871   4.1210   4.1493   4.1597   4.2052   4.2236
     4.2334   4.2418   4.2482   4.2661   4.3122   4.6029   4.6943   4.7792
     4.8078   4.8612   4.8943   4.9130   4.9756   4.9967   5.0224   5.0693
     5.1018   5.1074   5.1406   5.1755   5.2189   5.2309   5.3819   6.2061
     6.3394   6.4466   6.5301   6.6852   6.7082   6.7783   6.8454   6.8993
     6.9363   6.9889   7.0087   7.0543   7.2461   7.2935   7.3103   7.3685
     7.4091   7.4236   7.5096   7.5185   7.5609   7.6562   7.7019   7.7577
     7.8240   7.8391   7.9122   7.9324   7.9455   8.0057   8.0207   8.0699
     8.0811   8.1072   8.1209   8.1403   8.1740   8.2493   8.2782   8.2926
     8.3257   8.3465   8.3755   8.3862   8.3944   8.4276   8.4412   8.4488
     8.4675   8.4979   8.5049   8.5530   8.5705   8.6062   8.6124   8.6402
     8.6752

     the Fermi energy is     1.6926 ev

!    total energy              =   -8078.55368488 Ry
     estimated scf accuracy    <       0.00000066 Ry
     smearing contrib. (-TS)   =      -0.02584911 Ry
     internal energy E=F+TS    =   -8078.52783577 Ry

     The total energy is F=E-TS. E is the sum of the following terms:
     one-electron contribution =  -94603.41088032 Ry
     hartree contribution      =   47886.32177382 Ry
     xc contribution           =   -2177.38584433 Ry
     ewald contribution        =   40817.71538889 Ry
     Dispersion Correction     =      -1.76833048 Ry
     electric field correction =       0.00005666 Ry

     total magnetization       =    97.20 Bohr mag/cell
     absolute magnetization    =    98.40 Bohr mag/cell

     convergence has been achieved in  68 iterations

     negative rho (up, down):  1.156E-03 6.234E-04

     Forces acting on atoms (cartesian axes, Ry/au):

     atom    1 type  1   force =    -0.00017478   -0.00058515    0.00047403
     atom    2 type  1   force =    -0.00001556    0.00006743   -0.00018405
     atom    3 type  2   force =    -0.00015860    0.00094269   -0.00006491
     atom    4 type  1   force =    -0.00011921    0.00014998    0.00030016
     atom    5 type  1   force =     0.00008983    0.00002116    0.00041569
     atom    6 type  1   force =    -0.00048873    0.00072373    0.00034429
     atom    7 type  1   force =    -0.00032487    0.00008998    0.00030278
     atom    8 type  2   force =     0.00039749    0.00027548    0.00032109
     atom    9 type  2   force =     0.00003864    0.00001430    0.00032903
     atom   10 type  1   force =    -0.00019502   -0.00004576    0.00044852
     atom   11 type  1   force =     0.00097813   -0.00043363    0.00008040
     atom   12 type  1   force =    -0.00052492    0.00029719    0.00054379
     atom   13 type  3   force =     0.00010964    0.00000293    0.00007178
     atom   14 type  3   force =    -0.00025510   -0.00039708    0.00020137
     atom   15 type  3   force =    -0.00042290    0.00014328    0.00043896
     atom   16 type  3   force =     0.00009523    0.00012163   -0.00002963
     atom   17 type  4   force =    -0.00008751    0.00015968    0.00015045
     atom   18 type  4   force =    -0.00045367   -0.00050858   -0.00016041
     atom   19 type  4   force =    -0.00034944   -0.00018480   -0.00081062
     atom   20 type  4   force =     0.00006943   -0.00032688   -0.00011792
     atom   21 type  4   force =     0.00002277    0.00006790   -0.00008956
     atom   22 type  4   force =    -0.00049771    0.00031524    0.00044747
     atom   23 type  4   force =     0.00043978    0.00008124    0.00051492
     atom   24 type  4   force =     0.00005845    0.00014055   -0.00005748
     atom   25 type  4   force =     0.00026318    0.00033118    0.00013211
     atom   26 type  4   force =     0.00003602   -0.00018984    0.00001255
     atom   27 type  4   force =    -0.00007970   -0.00004349    0.00026104
     atom   28 type  4   force =    -0.00043326   -0.00046546   -0.00044891
     atom   29 type  4   force =     0.00015147   -0.00017182   -0.00002346
     atom   30 type  4   force =    -0.00021115   -0.00040826   -0.00044704
     atom   31 type  4   force =    -0.00017999    0.00017983    0.00034035
     atom   32 type  4   force =    -0.00000424    0.00030848    0.00007600
     atom   33 type  3   force =    -0.00046382    0.00014441    0.00002037
     atom   34 type  3   force =     0.00014272    0.00010690    0.00051785
     atom   35 type  3   force =    -0.00091303   -0.00044944   -0.00006923
     atom   36 type  3   force =    -0.00014206   -0.00010250    0.00006885
     atom   37 type  4   force =    -0.00019210    0.00014402    0.00024431
     atom   38 type  4   force =    -0.00041257   -0.00044495   -0.00033787
     atom   39 type  4   force =     0.00006597   -0.00050642   -0.00005076
     atom   40 type  4   force =     0.00002347   -0.00036810    0.00015771
     atom   41 type  4   force =    -0.00011605    0.00014768    0.00010406
     atom   42 type  4   force =    -0.00032221    0.00043901   -0.00063860
     atom   43 type  4   force =     0.00088584    0.00054842    0.00038158
     atom   44 type  4   force =    -0.00023526    0.00005463    0.00013713
     atom   45 type  4   force =     0.00013043    0.00028319   -0.00008265
     atom   46 type  4   force =    -0.00011927   -0.00008154   -0.00013308
     atom   47 type  4   force =    -0.00017626   -0.00023371   -0.00016008
     atom   48 type  4   force =    -0.00019592   -0.00006633   -0.00002634
     atom   49 type  4   force =    -0.00028810    0.00023458    0.00015788
     atom   50 type  4   force =    -0.00021333   -0.00077231   -0.00018897
     atom   51 type  4   force =    -0.00024375    0.00017322    0.00017335
     atom   52 type  4   force =     0.00008043    0.00037740    0.00002067
     atom   53 type  1   force =    -0.00035952    0.00088908    0.00279475
     atom   54 type  1   force =     0.00083411    0.00051787   -0.00163875
     atom   55 type  2   force =     0.00158790    0.00131235    0.00569350
     atom   56 type  1   force =    -0.00067626   -0.00108869   -0.00131133
     atom   57 type  1   force =     0.00043958   -0.00015236   -0.00023856
     atom   58 type  1   force =     0.00003516    0.00044855    0.00001064
     atom   59 type  1   force =     0.00215056   -0.00110292   -0.00114176
     atom   60 type  2   force =     0.00008522    0.00021729   -0.00195951
     atom   61 type  2   force =     0.00055445    0.00097665    0.00417723
     atom   62 type  1   force =    -0.00048211   -0.00078364   -0.00151861
     atom   63 type  1   force =    -0.00035330   -0.00001243   -0.00028065
     atom   64 type  1   force =     0.00003235    0.00016034    0.00009959
     atom   65 type  3   force =    -0.00020223   -0.00101593   -0.00209098
     atom   66 type  3   force =    -0.00029168    0.00038504    0.00114895
     atom   67 type  3   force =    -0.00020662   -0.00151124    0.00160743
     atom   68 type  3   force =    -0.00070816    0.00082586   -0.00093035
     atom   69 type  4   force =    -0.00072784    0.00036464    0.00071820
     atom   70 type  4   force =     0.00056881   -0.00069067   -0.00113926
     atom   71 type  4   force =     0.00048956    0.00055776   -0.00038857
     atom   72 type  4   force =     0.00029955   -0.00053522    0.00167552
     atom   73 type  4   force =    -0.00079025    0.00068396    0.00169240
     atom   74 type  4   force =     0.00145326   -0.00263932   -0.00227006
     atom   75 type  4   force =    -0.00168010    0.00067556    0.00011035
     atom   76 type  4   force =     0.00012341   -0.00073340    0.00139182
     atom   77 type  4   force =    -0.00044991   -0.00000926    0.00057865
     atom   78 type  4   force =    -0.00095156    0.00058530   -0.00012577
     atom   79 type  4   force =     0.00022097    0.00026175    0.00062221
     atom   80 type  4   force =     0.00009153    0.00098271   -0.00021460
     atom   81 type  4   force =    -0.00035415   -0.00153333   -0.00101694
     atom   82 type  4   force =     0.00097725   -0.00154558    0.00080076
     atom   83 type  4   force =    -0.00009206    0.00081399    0.00037090
     atom   84 type  4   force =    -0.00053390    0.00027918    0.00054517
     atom   85 type  3   force =    -0.00027486   -0.00089657   -0.00262449
     atom   86 type  3   force =     0.00078331    0.00183147    0.00361696
     atom   87 type  3   force =    -0.00052639   -0.00061193   -0.00027125
     atom   88 type  3   force =    -0.00068193    0.00085566   -0.00079328
     atom   89 type  4   force =    -0.00013655   -0.00019252    0.00048355
     atom   90 type  4   force =    -0.00055353   -0.00034293   -0.00129208
     atom   91 type  4   force =     0.00034387    0.00031340   -0.00039697
     atom   92 type  4   force =     0.00039653   -0.00043166    0.00120441
     atom   93 type  4   force =    -0.00008058    0.00115623    0.00100017
     atom   94 type  4   force =     0.00173891    0.00077492    0.00323893
     atom   95 type  4   force =    -0.00029992    0.00005501   -0.00009797
     atom   96 type  4   force =    -0.00019410   -0.00028361    0.00109857
     atom   97 type  4   force =    -0.00000641   -0.00055956    0.00072052
     atom   98 type  4   force =    -0.00035936    0.00045819   -0.00006494
     atom   99 type  4   force =     0.00053776   -0.00008967    0.00072100
     atom  100 type  4   force =     0.00068361    0.00069313   -0.00026123
     atom  101 type  4   force =    -0.00020332   -0.00082479   -0.00074243
     atom  102 type  4   force =     0.00131377   -0.00188567    0.00041237
     atom  103 type  4   force =     0.00039725    0.00032982    0.00028326
     atom  104 type  4   force =     0.00000714   -0.00056057   -0.00012374
     atom  105 type  1   force =    -0.00068597    0.00197034   -0.00663899
     atom  106 type  1   force =     0.02836307    0.01370802    0.02194005
     atom  107 type  2   force =     0.00167855    0.00034596   -0.01072621
     atom  108 type  1   force =    -0.03115042    0.02313536    0.01663905
     atom  109 type  1   force =     0.00408951   -0.00291026   -0.00353738
     atom  110 type  1   force =    -0.00125467   -0.00650209   -0.00558514
     atom  111 type  1   force =    -0.00380337    0.00228215   -0.00596353
     atom  112 type  2   force =     0.03228231    0.01648184   -0.01047590
     atom  113 type  2   force =     0.00153231    0.00113266   -0.01035526
     atom  114 type  1   force =    -0.03205785    0.02442380    0.01758183
     atom  115 type  1   force =     0.00360440   -0.00484755   -0.00451664
     atom  116 type  1   force =    -0.00498066   -0.00812359   -0.00673932
     atom  117 type  3   force =    -0.02899178   -0.03569337   -0.06275846
     atom  118 type  3   force =     0.00318296    0.00036670   -0.00692179
     atom  119 type  3   force =     0.00073009   -0.00066064   -0.00911957
     atom  120 type  3   force =     0.02796287   -0.05775117   -0.08372247
     atom  121 type  4   force =    -0.00652912   -0.00322169    0.03046895
     atom  122 type  4   force =    -0.00143756   -0.00113062    0.00258316
     atom  123 type  4   force =     0.00158161   -0.00100996    0.00483419
     atom  124 type  4   force =     0.00355122    0.00314986    0.03398750
     atom  125 type  4   force =    -0.00224977   -0.00224077    0.03412103
     atom  126 type  4   force =    -0.00085531    0.00069335    0.00298327
     atom  127 type  4   force =     0.00220809    0.00315216    0.00433989
     atom  128 type  4   force =    -0.00317890   -0.00165750    0.02239591
     atom  129 type  4   force =    -0.01250334    0.03637089    0.00494049
     atom  130 type  4   force =    -0.00147402    0.00032829    0.00234031
     atom  131 type  4   force =    -0.01938462    0.00357395    0.00992718
     atom  132 type  4   force =    -0.00111239    0.00354110    0.00432008
     atom  133 type  4   force =    -0.00288333    0.00063688    0.00239223
     atom  134 type  4   force =     0.00146469   -0.00436818    0.00349539
     atom  135 type  4   force =     0.01381103    0.02356961   -0.00092849
     atom  136 type  4   force =     0.01317109   -0.00064478    0.00238036
     atom  137 type  3   force =    -0.03818902   -0.04126201   -0.06617306
     atom  138 type  3   force =     0.00647075   -0.00301777   -0.00137406
     atom  139 type  3   force =     0.00028668   -0.00156700   -0.00938152
     atom  140 type  3   force =     0.02904411   -0.05118258   -0.08328416
     atom  141 type  4   force =    -0.00103192    0.00274810    0.02931457
     atom  142 type  4   force =     0.00044841    0.00237086   -0.00630752
     atom  143 type  4   force =     0.00163394   -0.00085329    0.00422140
     atom  144 type  4   force =     0.00420898    0.00184024    0.03457791
     atom  145 type  4   force =     0.00900915    0.00389859    0.03133924
     atom  146 type  4   force =    -0.00034428    0.00056436    0.00172715
     atom  147 type  4   force =     0.00271600    0.00347126    0.00399000
     atom  148 type  4   force =    -0.00398340   -0.00130827    0.02234389
     atom  149 type  4   force =    -0.00999228    0.03011291    0.00424570
     atom  150 type  4   force =    -0.00190452    0.00039567    0.00278271
     atom  151 type  4   force =    -0.01848408    0.00504473    0.00989005
     atom  152 type  4   force =    -0.00086236    0.00344327    0.00430218
     atom  153 type  4   force =    -0.00132068    0.00026020    0.00294580
     atom  154 type  4   force =     0.00211345   -0.00255323    0.00280849
     atom  155 type  4   force =     0.01476553    0.02458416    0.00014764
     atom  156 type  4   force =     0.02234451   -0.00367100    0.00141667
     atom  157 type  4   force =     0.00684177    0.00622117   -0.00248497
     atom  158 type  5   force =    -0.00748951   -0.00531466    0.00131745

     Total force =     0.238060     Total SCF correction =     0.004123
 
     init_run     :      9.27s CPU      9.95s WALL (       1 calls)
     electrons    :   1158.27s CPU   1210.09s WALL (       1 calls)
     forces       :      4.32s CPU      4.66s WALL (       1 calls)
     force_london :      0.12s CPU      0.12s WALL (       1 calls)

     Called by init_run:
     wfcinit      :      5.33s CPU      5.53s WALL (       1 calls)
     potinit      :      0.72s CPU      0.93s WALL (       1 calls)
     hinit0       :      1.77s CPU      1.86s WALL (       1 calls)

     Called by electrons:
     c_bands      :    924.19s CPU    952.67s WALL (      68 calls)
     sum_band     :    148.50s CPU    160.68s WALL (      68 calls)
     v_of_rho     :     20.93s CPU     22.04s WALL (      69 calls)
     newd         :     41.15s CPU     51.02s WALL (      69 calls)
     mix_rho      :     22.56s CPU     22.91s WALL (      68 calls)
     energy_londo :      0.10s CPU      0.10s WALL (       1 calls)

     Called by c_bands:
     init_us_2    :      2.45s CPU      2.50s WALL (     276 calls)
     init_us_2:cp :      2.45s CPU      2.50s WALL (     276 calls)
     regterg      :    908.19s CPU    936.43s WALL (     138 calls)

     Called by *egterg:
     rdiaghg      :    266.12s CPU    280.39s WALL (     647 calls)
     h_psi        :    354.02s CPU    359.87s WALL (     649 calls)
     s_psi        :     54.99s CPU     55.05s WALL (     649 calls)
     g_psi        :      0.39s CPU      0.39s WALL (     509 calls)

     Called by h_psi:
     h_psi:calbec :     83.46s CPU     88.08s WALL (     649 calls)
     vloc_psi     :    213.98s CPU    214.66s WALL (     649 calls)
     add_vuspsi   :     55.74s CPU     56.28s WALL (     649 calls)

     General routines
     calbec       :    123.08s CPU    129.84s WALL (     793 calls)
     fft          :     25.43s CPU     27.16s WALL (    1255 calls)
     ffts         :     13.78s CPU     13.81s WALL (    8447 calls)
     fftw         :    242.98s CPU    243.72s WALL (  236922 calls)
     interpolate  :      1.60s CPU      1.68s WALL (     138 calls)
 
     Parallel routines
 
     PWSCF        :  19m34.14s CPU  20m27.47s WALL

 
   This run was terminated on:   0:58:28  18Nov2025            

=------------------------------------------------------------------------------=
   JOB DONE.
=------------------------------------------------------------------------------=
