
     Program PWSCF v.7.2 starts on 17Nov2025 at 21:39:43 

     This program is part of the open-source Quantum ESPRESSO suite
     for quantum simulation of materials; please cite
         "P. Giannozzi et al., J. Phys.:Condens. Matter 21 395502 (2009);
         "P. Giannozzi et al., J. Phys.:Condens. Matter 29 465901 (2017);
         "P. Giannozzi et al., J. Chem. Phys. 152 154105 (2020);
          URL http://www.quantum-espresso.org", 
     in publications or presentations arising from this work. More details at
     http://www.quantum-espresso.org/quote

     Parallel version (MPI), running on    64 processors

     MPI processes distributed on     4 nodes
     389498 MiB available memory on the printing compute node when the environment starts
 
     Reading input from PWINPUT_atm157_yp

     Current dimensions of program PWSCF are:
     Max number of different atomic species (ntypx) = 10
     Max number of k-points (npk) =  40000
     Max angular momentum in pseudopotentials (lmaxx) =  4
     Presently no symmetry can be used with electric field

     file Ni.pbe-n-rrkjus_psl.1.0.0.UPF: wavefunction(s)  3D renormalized
     file Mn.pbe-spn-rrkjus_psl.0.3.1.UPF: wavefunction(s)  3D renormalized
     file O.pbe-rrkjus.UPF: wavefunction(s)  2S renormalized
     file H.pbe-rrkjus.UPF: wavefunction(s)  1S renormalized

     gamma-point specific algorithms are used
 
     R & G space division:  proc/nbgrp/npool/nimage =      64
     Subspace diagonalization in iterative solution of the eigenvalue problem:
     one sub-group per band group will be used
     custom distributed-memory algorithm (size of sub-group:  7*  7 procs)

 
     Parallelization info
     --------------------
     sticks:   dense  smooth     PW     G-vecs:    dense   smooth      PW
     Min         214      85     20                61830    15614    1928
     Max         216      86     22                61864    15658    1982
     Sum       13727    5503   1375              3958051  1001255  125211
 
     Using Slab Decomposition
 


     bravais-lattice index     =            0
     lattice parameter (alat)  =      17.8532  a.u.
     unit-cell volume          =   20962.6682 (a.u.)^3
     number of atoms/cell      =          158
     number of atomic types    =            5
     number of electrons       =      1108.00
     number of Kohn-Sham states=          665
     kinetic-energy cutoff     =      50.0000  Ry
     charge density cutoff     =     500.0000  Ry
     scf convergence threshold =      1.0E-06
     mixing beta               =       0.1000
     number of iterations used =            8  local-TF  mixing
     Exchange-correlation=  SLA  PW   PBE  PBE
                           (   1   4   3   4   0   0   0)

     celldm(1)=  17.853155  celldm(2)=   0.000000  celldm(3)=   0.000000
     celldm(4)=   0.000000  celldm(5)=   0.000000  celldm(6)=   0.000000

     crystal axes: (cart. coord. in units of alat)
               a(1) = (   1.000000   0.000000   0.000000 )  
               a(2) = (   0.003237   1.081997   0.000000 )  
               a(3) = (   0.000000   0.000000   3.404673 )  

     reciprocal axes: (cart. coord. in units 2 pi/alat)
               b(1) = (  1.000000 -0.002992  0.000000 )  
               b(2) = (  0.000000  0.924217  0.000000 )  
               b(3) = (  0.000000  0.000000  0.293714 )  


     PseudoPot. # 1 for Ni read from file:
     ~/PSEUDO/Ni.pbe-n-rrkjus_psl.1.0.0.UPF
     MD5 check sum: Not computed, couldn't open file
     Pseudo is Ultrasoft + core correction, Zval = 10.0
     Generated using "atomic" code by A. Dal Corso  v.5.1.2
     Using radial grid of 1195 points,  6 beta functions with: 
                l(1) =   0
                l(2) =   0
                l(3) =   1
                l(4) =   1
                l(5) =   2
                l(6) =   2
     Q(r) pseudized with 0 coefficients 


     PseudoPot. # 2 for Mn read from file:
     ~/PSEUDO/Mn.pbe-spn-rrkjus_psl.0.3.1.UPF
     MD5 check sum: Not computed, couldn't open file
     Pseudo is Ultrasoft + core correction, Zval = 15.0
     Generated using &quot;atomic&quot; code by A. Dal Corso  v.6.2.2
     Using radial grid of 1187 points,  6 beta functions with: 
                l(1) =   0
                l(2) =   0
                l(3) =   1
                l(4) =   1
                l(5) =   2
                l(6) =   2
     Q(r) pseudized with 0 coefficients 


     PseudoPot. # 3 for P  read from file:
     ~/PSEUDO/P.pbe-n-rrkjus_psl.1.0.0.UPF
     MD5 check sum: Not computed, couldn't open file
     Pseudo is Ultrasoft + core correction, Zval =  5.0
     Generated using "atomic" code by A. Dal Corso  v.5.1
     Using radial grid of 1147 points,  6 beta functions with: 
                l(1) =   0
                l(2) =   0
                l(3) =   1
                l(4) =   1
                l(5) =   2
                l(6) =   2
     Q(r) pseudized with 0 coefficients 


     PseudoPot. # 4 for O  read from file:
     ~/PSEUDO/O.pbe-rrkjus.UPF
     MD5 check sum: Not computed, couldn't open file
     Pseudo is Ultrasoft, Zval =  6.0
     Generated by new atomic code, or converted to UPF format
     Using radial grid of 1269 points,  4 beta functions with: 
                l(1) =   0
                l(2) =   0
                l(3) =   1
                l(4) =   1
     Q(r) pseudized with 0 coefficients 


     PseudoPot. # 5 for H  read from file:
     ~/PSEUDO/H.pbe-rrkjus.UPF
     MD5 check sum: Not computed, couldn't open file
     Pseudo is Ultrasoft, Zval =  1.0
     Generated by new atomic code, or converted to UPF format
     Using radial grid of 1061 points,  2 beta functions with: 
                l(1) =   0
                l(2) =   0
     Q(r) pseudized with 0 coefficients 


     atomic species   valence    mass     pseudopotential
     Ni               10.00    58.69300     Ni( 1.00)
     Mn               15.00    54.93800     Mn( 1.00)
     P                 5.00    30.97300     P ( 1.00)
     O                 6.00    15.99900     O ( 1.00)
     H                 1.00     1.00790     H ( 1.00)

     Starting magnetic structure 
     atomic species   magnetization
     Ni              1.000
     Mn              1.000
     P               1.000
     O               1.000
     H               0.000

     No symmetry found



   Cartesian axes

     site n.     atom                  positions (alat units)
         1        Ni     tau(   1) = (   0.2422259   0.8412654   1.7135021  )
         2        Ni     tau(   2) = (   0.4939939   0.7703882   1.3745235  )
         3        Mn     tau(   3) = (   0.0000622   0.2881594   1.6998608  )
         4        Ni     tau(   4) = (   0.2575438   0.2247311   1.3772755  )
         5        Ni     tau(   5) = (   1.0001613   1.0688286   1.5379356  )
         6        Ni     tau(   6) = (   0.2547438   0.5337506   1.5423852  )
         7        Ni     tau(   7) = (   0.7513156   0.8294534   1.6816756  )
         8        Mn     tau(   8) = (   0.9892084   0.7665403   1.3736225  )
         9        Mn     tau(   9) = (   0.4989277   0.2948958   1.6996914  )
        10        Ni     tau(  10) = (   0.7551301   0.2242805   1.3768936  )
        11        Ni     tau(  11) = (   0.4972159   1.0711780   1.5373138  )
        12        Ni     tau(  12) = (   0.7540948   0.5300080   1.5408646  )
        13        P      tau(  13) = (   0.2134946   0.9657767   1.3822356  )
        14        P      tau(  14) = (   0.4661089   0.6500297   1.6909232  )
        15        P      tau(  15) = (   0.2845404   0.0987020   1.6930817  )
        16        P      tau(  16) = (   0.0413508   0.4217554   1.3879311  )
        17        O      tau(  17) = (   0.1375837   0.8978226   1.5176406  )
        18        O      tau(  18) = (   0.3887107   0.7011557   1.5470611  )
        19        O      tau(  19) = (   0.3618628   0.1611333   1.5509837  )
        20        O      tau(  20) = (   0.1189827   0.3568247   1.5240423  )
        21        O      tau(  21) = (   0.1540234   0.8767886   1.2572786  )
        22        O      tau(  22) = (   0.4110393   0.7496192   1.8050939  )
        23        O      tau(  23) = (   0.3377663   0.1986516   1.8089954  )
        24        O      tau(  24) = (   0.0997683   0.3312674   1.2645563  )
        25        O      tau(  25) = (   0.0989528   0.5758934   1.3854866  )
        26        O      tau(  26) = (   0.3497729   1.0280907   1.6930286  )
        27        O      tau(  27) = (   0.3790282   0.4183038   1.3960614  )
        28        O      tau(  28) = (   0.1208846   0.1037110   1.6793767  )
        29        O      tau(  29) = (   0.1286718   0.6449077   1.6890912  )
        30        O      tau(  30) = (   0.4112377   0.4929637   1.7009712  )
        31        O      tau(  31) = (   0.1495635   0.0377931   1.3821793  )
        32        O      tau(  32) = (   0.3765682   0.9602194   1.3906658  )
        33        P      tau(  33) = (   0.7075432   0.9666523   1.3784783  )
        34        P      tau(  34) = (   0.9652203   0.6409374   1.7033271  )
        35        P      tau(  35) = (   0.7832453   0.0931683   1.6926874  )
        36        P      tau(  36) = (   0.5417589   0.4270160   1.3849132  )
        37        O      tau(  37) = (   0.6313395   0.8958630   1.5135851  )
        38        O      tau(  38) = (   0.8885617   0.6990470   1.5595003  )
        39        O      tau(  39) = (   0.8598518   0.1543399   1.5504633  )
        40        O      tau(  40) = (   0.6193560   0.3582236   1.5201696  )
        41        O      tau(  41) = (   0.6486466   0.8777050   1.2536013  )
        42        O      tau(  42) = (   0.9019443   0.7356849   1.8178004  )
        43        O      tau(  43) = (   0.8422733   0.1897880   1.8089519  )
        44        O      tau(  44) = (   0.6013153   0.3355234   1.2622316  )
        45        O      tau(  45) = (   0.6019813   0.5803347   1.3826084  )
        46        O      tau(  46) = (   0.8418205   1.0195119   1.6947938  )
        47        O      tau(  47) = (   0.8784115   0.4141755   1.3983387  )
        48        O      tau(  48) = (   0.6198107   0.1022917   1.6830133  )
        49        O      tau(  49) = (   0.6307259   0.6490344   1.6799765  )
        50        O      tau(  50) = (   0.9102631   0.4838853   1.7042751  )
        51        O      tau(  51) = (   0.6452681   0.0385369   1.3812216  )
        52        O      tau(  52) = (   0.8702745   0.9586382   1.3915595  )
        53        Ni     tau(  53) = (   0.2420320   0.8169913   1.0699082  )
        54        Ni     tau(  54) = (   0.4893084   0.7542727   0.7477128  )
        55        Mn     tau(  55) = (   0.0085152   0.2729728   1.0755565  )
        56        Ni     tau(  56) = (   0.2558246   0.2079345   0.7498450  )
        57        Ni     tau(  57) = (   0.9991959   1.0516583   0.9080455  )
        58        Ni     tau(  58) = (   0.2490231   0.5149840   0.9092594  )
        59        Ni     tau(  59) = (   0.7373131   0.8159965   1.0690453  )
        60        Mn     tau(  60) = (   0.9859093   0.7511625   0.7423903  )
        61        Mn     tau(  61) = (   0.5085552   0.2755447   1.0757185  )
        62        Ni     tau(  62) = (   0.7532989   0.2074622   0.7493279  )
        63        Ni     tau(  63) = (   0.4981517   1.0523018   0.9093468  )
        64        Ni     tau(  64) = (   0.7469109   0.5147379   0.9081681  )
        65        P      tau(  65) = (   0.2119924   0.9497675   0.7533413  )
        66        P      tau(  66) = (   0.4579509   0.6252695   1.0650744  )
        67        P      tau(  67) = (   0.2855349   0.0724244   1.0650326  )
        68        P      tau(  68) = (   0.0381112   0.4032615   0.7561117  )
        69        O      tau(  69) = (   0.1352995   0.8818598   0.8892857  )
        70        O      tau(  70) = (   0.3789570   0.6924463   0.9291468  )
        71        O      tau(  71) = (   0.3610496   0.1419327   0.9291660  )
        72        O      tau(  72) = (   0.1179700   0.3356534   0.8894858  )
        73        O      tau(  73) = (   0.1524325   0.8608343   0.6290918  )
        74        O      tau(  74) = (   0.3994952   0.7128748   1.1905493  )
        75        O      tau(  75) = (   0.3426976   0.1634744   1.1889742  )
        76        O      tau(  76) = (   0.0989151   0.3155758   0.6321220  )
        77        O      tau(  77) = (   0.0942206   0.5581494   0.7569623  )
        78        O      tau(  78) = (   0.3506297   1.0014456   1.0645371  )
        79        O      tau(  79) = (   0.3750155   0.3983181   0.7655049  )
        80        O      tau(  80) = (   0.1228303   0.0764842   1.0543924  )
        81        O      tau(  81) = (   0.1204299   0.6293201   1.0530905  )
        82        O      tau(  82) = (   0.4000664   0.4708612   1.0626359  )
        83        O      tau(  83) = (   0.1483182   0.0216333   0.7546099  )
        84        O      tau(  84) = (   0.3748687   0.9435072   0.7627918  )
        85        P      tau(  85) = (   0.7056901   0.9492898   0.7521526  )
        86        P      tau(  86) = (   0.9575286   0.6220438   1.0623609  )
        87        P      tau(  87) = (   0.7847866   0.0710549   1.0641979  )
        88        P      tau(  88) = (   0.5377283   0.4083400   0.7551622  )
        89        O      tau(  89) = (   0.6295714   0.8788409   0.8879407  )
        90        O      tau(  90) = (   0.8781778   0.6902700   0.9288966  )
        91        O      tau(  91) = (   0.8603186   0.1398018   0.9279591  )
        92        O      tau(  92) = (   0.6174712   0.3389159   0.8881839  )
        93        O      tau(  93) = (   0.6471291   0.8583376   0.6285166  )
        94        O      tau(  94) = (   0.8962302   0.7094244   1.1861651  )
        95        O      tau(  95) = (   0.8420493   0.1616933   1.1885419  )
        96        O      tau(  96) = (   0.5995227   0.3203391   0.6315608  )
        97        O      tau(  97) = (   0.5932354   0.5636910   0.7569738  )
        98        O      tau(  98) = (   0.8487155   0.9994995   1.0634446  )
        99        O      tau(  99) = (   0.8751772   0.3959680   0.7655094  )
       100        O      tau( 100) = (   0.6223291   0.0767949   1.0539182  )
       101        O      tau( 101) = (   0.6209785   0.6292365   1.0537708  )
       102        O      tau( 102) = (   0.9010178   0.4674118   1.0608723  )
       103        O      tau( 103) = (   0.6430869   0.0213354   0.7538098  )
       104        O      tau( 104) = (   0.8684566   0.9446034   0.7630440  )
       105        Ni     tau( 105) = (   0.2392451   0.7980692   0.4424501  )
       106        Ni     tau( 106) = (   0.4865215   0.7353506   0.1202547  )
       107        Mn     tau( 107) = (   0.0057284   0.2540508   0.4480984  )
       108        Ni     tau( 108) = (   0.2530377   0.1890124   0.1223869  )
       109        Ni     tau( 109) = (   0.9964090   1.0327362   0.2805874  )
       110        Ni     tau( 110) = (   0.2462362   0.4960619   0.2818013  )
       111        Ni     tau( 111) = (   0.7345262   0.7970744   0.4415872  )
       112        Mn     tau( 112) = (   0.9831224   0.7322404   0.1149322  )
       113        Mn     tau( 113) = (   0.5057684   0.2566226   0.4482604  )
       114        Ni     tau( 114) = (   0.7505120   0.1885401   0.1218698  )
       115        Ni     tau( 115) = (   0.4953648   1.0333797   0.2818887  )
       116        Ni     tau( 116) = (   0.7441241   0.4958159   0.2807100  )
       117        P      tau( 117) = (   0.2092055   0.9308455   0.1258832  )
       118        P      tau( 118) = (   0.4551640   0.6063475   0.4376163  )
       119        P      tau( 119) = (   0.2827481   0.0535023   0.4375745  )
       120        P      tau( 120) = (   0.0353243   0.3843395   0.1286536  )
       121        O      tau( 121) = (   0.1325127   0.8629378   0.2618276  )
       122        O      tau( 122) = (   0.3761702   0.6735242   0.3016887  )
       123        O      tau( 123) = (   0.3582627   0.1230106   0.3017079  )
       124        O      tau( 124) = (   0.1151831   0.3167313   0.2620277  )
       125        O      tau( 125) = (   0.1496456   0.8419122   0.0016337  )
       126        O      tau( 126) = (   0.3967083   0.6939527   0.5630912  )
       127        O      tau( 127) = (   0.3399107   0.1445523   0.5615161  )
       128        O      tau( 128) = (   0.0961282   0.2966537   0.0046639  )
       129        O      tau( 129) = (   0.0914337   0.5392273   0.1295042  )
       130        O      tau( 130) = (   0.3478428   0.9825235   0.4370790  )
       131        O      tau( 131) = (   0.3722287   0.3793961   0.1380469  )
       132        O      tau( 132) = (   0.1200434   0.0575621   0.4269343  )
       133        O      tau( 133) = (   0.1176431   0.6103980   0.4256324  )
       134        O      tau( 134) = (   0.3972796   0.4519391   0.4351778  )
       135        O      tau( 135) = (   0.1455313   0.0027113   0.1271518  )
       136        O      tau( 136) = (   0.3720819   0.9245852   0.1353338  )
       137        P      tau( 137) = (   0.7029032   0.9303678   0.1246945  )
       138        P      tau( 138) = (   0.9547417   0.6031217   0.4349028  )
       139        P      tau( 139) = (   0.7819997   0.0521328   0.4367398  )
       140        P      tau( 140) = (   0.5349415   0.3894179   0.1277041  )
       141        O      tau( 141) = (   0.6267846   0.8599188   0.2604826  )
       142        O      tau( 142) = (   0.8753909   0.6713480   0.3014385  )
       143        O      tau( 143) = (   0.8575317   0.1208797   0.3005010  )
       144        O      tau( 144) = (   0.6146843   0.3199938   0.2607258  )
       145        O      tau( 145) = (   0.6443422   0.8394155   0.0010585  )
       146        O      tau( 146) = (   0.8934434   0.6905023   0.5587070  )
       147        O      tau( 147) = (   0.8392624   0.1427713   0.5610838  )
       148        O      tau( 148) = (   0.5967359   0.3014171   0.0041027  )
       149        O      tau( 149) = (   0.5904485   0.5447689   0.1295157  )
       150        O      tau( 150) = (   0.8459286   0.9805774   0.4359865  )
       151        O      tau( 151) = (   0.8723903   0.3770459   0.1380513  )
       152        O      tau( 152) = (   0.6195422   0.0578729   0.4264602  )
       153        O      tau( 153) = (   0.6181917   0.6103144   0.4263127  )
       154        O      tau( 154) = (   0.8982309   0.4484897   0.4334142  )
       155        O      tau( 155) = (   0.6403000   0.0024133   0.1263517  )
       156        O      tau( 156) = (   0.8656697   0.9256814   0.1355859  )
       157        O      tau( 157) = (   1.1309085   0.9223688   1.8489698  )
       158        H      tau( 158) = (   1.0479508   0.8617503   1.8725428  )

     -------------------------------------------------
     Parameters for Dispersion (Grimme-D2) Correction:
     -------------------------------------------------
       atom      VdW radius       C_6     

        Ni         2.952        374.666
        Mn         2.952        374.666
        P          3.222        271.980
        O          2.536         24.284
        H          1.892          4.857

     number of k points=     1  Gaussian smearing, width (Ry)=  0.0100
                       cart. coord. in units 2pi/alat
        k(    1) = (   0.0000000   0.0000000   0.0000000), wk =   1.0000000

     Dense  grid:  1979026 G-vectors     FFT dimensions: ( 128, 144, 450)

     Smooth grid:   500628 G-vectors     FFT dimensions: (  81,  90, 288)

     Estimated max dynamical RAM per process >     333.40 MB

     Estimated total dynamical RAM >      20.84 GB

     Check: negative core charge=   -0.000002
     Generating pointlists ...
     new r_m :   0.0797 (alat units)  1.4227 (a.u.) for type    1
     new r_m :   0.0884 (alat units)  1.5790 (a.u.) for type    2
     new r_m :   0.0665 (alat units)  1.1872 (a.u.) for type    3
     new r_m :   0.0435 (alat units)  0.7763 (a.u.) for type    4
     new r_m :   0.0435 (alat units)  0.7763 (a.u.) for type    5

     Initial potential from superposition of free atoms

     starting charge    1107.8886, renormalised to    1108.0000

     negative rho (up, down):  1.506E-03 4.674E-04
 
     Adding external electric field

     Computed dipole along edir(3) : 
        Dipole                1.6401 Ry au,          4.1686 Debye
        Dipole field          0.0010 Ry au, 
 
        Potential amp.       -0.1076 Ry
        Total length         54.7057 bohr
 
 
     Adding external electric field

     Computed dipole along edir(3) : 
        Dipole                1.6401 Ry au,          4.1686 Debye
        Dipole field          0.0010 Ry au, 
 
        Potential amp.       -0.1076 Ry
        Total length         54.7057 bohr
 
     Starting wfcs are  818 randomized atomic wfcs

     total cpu time spent up to now is       13.6 secs

     Self-consistent Calculation

     iteration #  1     ecut=    50.00 Ry     beta= 0.10
     Davidson diagonalization with overlap
     ethr =  1.00E-02,  avg # of iterations =  5.5

     negative rho (up, down):  4.624E-01 5.393E-07
 
     Adding external electric field

     Computed dipole along edir(3) : 
        Dipole               -3.1621 Ry au,         -8.0374 Debye
        Dipole field         -0.0019 Ry au, 
 
        Potential amp.        0.2074 Ry
        Total length         54.7057 bohr
 
 
     Adding external electric field

     Computed dipole along edir(3) : 
        Dipole               -3.1621 Ry au,         -8.0374 Debye
        Dipole field         -0.0019 Ry au, 
 
        Potential amp.        0.2074 Ry
        Total length         54.7057 bohr
 

     total cpu time spent up to now is       45.3 secs

     total energy              =   -7859.80848018 Ry
     estimated scf accuracy    <     733.39523654 Ry

     total magnetization       =   222.00 Bohr mag/cell
     absolute magnetization    =   320.10 Bohr mag/cell

     iteration #  2     ecut=    50.00 Ry     beta= 0.10
     Davidson diagonalization with overlap
     ethr =  1.00E-02,  avg # of iterations =  2.0

     negative rho (up, down):  4.187E-01 4.637E-07
 
     Adding external electric field

     Computed dipole along edir(3) : 
        Dipole               -2.4678 Ry au,         -6.2726 Debye
        Dipole field         -0.0015 Ry au, 
 
        Potential amp.        0.1619 Ry
        Total length         54.7057 bohr
 
 
     Adding external electric field

     Computed dipole along edir(3) : 
        Dipole               -2.4678 Ry au,         -6.2726 Debye
        Dipole field         -0.0015 Ry au, 
 
        Potential amp.        0.1619 Ry
        Total length         54.7057 bohr
 

     total cpu time spent up to now is       64.0 secs

     total energy              =   -7943.17946933 Ry
     estimated scf accuracy    <     144.74977241 Ry

     total magnetization       =   159.05 Bohr mag/cell
     absolute magnetization    =   208.59 Bohr mag/cell

     iteration #  3     ecut=    50.00 Ry     beta= 0.10
     Davidson diagonalization with overlap
     ethr =  1.00E-02,  avg # of iterations =  1.0

     negative rho (up, down):  3.609E-01 3.618E-07
 
     Adding external electric field

     Computed dipole along edir(3) : 
        Dipole               -1.9759 Ry au,         -5.0222 Debye
        Dipole field         -0.0012 Ry au, 
 
        Potential amp.        0.1296 Ry
        Total length         54.7057 bohr
 
 
     Adding external electric field

     Computed dipole along edir(3) : 
        Dipole               -1.9759 Ry au,         -5.0222 Debye
        Dipole field         -0.0012 Ry au, 
 
        Potential amp.        0.1296 Ry
        Total length         54.7057 bohr
 

     total cpu time spent up to now is       78.4 secs

     total energy              =   -7977.64892914 Ry
     estimated scf accuracy    <     102.36285715 Ry

     total magnetization       =   138.31 Bohr mag/cell
     absolute magnetization    =   189.00 Bohr mag/cell

     iteration #  4     ecut=    50.00 Ry     beta= 0.10
     Davidson diagonalization with overlap
     ethr =  9.24E-03,  avg # of iterations =  1.0

     negative rho (up, down):  2.911E-01 2.692E-08
 
     Adding external electric field

     Computed dipole along edir(3) : 
        Dipole               -2.0114 Ry au,         -5.1124 Debye
        Dipole field         -0.0012 Ry au, 
 
        Potential amp.        0.1319 Ry
        Total length         54.7057 bohr
 
 
     Adding external electric field

     Computed dipole along edir(3) : 
        Dipole               -2.0114 Ry au,         -5.1124 Debye
        Dipole field         -0.0012 Ry au, 
 
        Potential amp.        0.1319 Ry
        Total length         54.7057 bohr
 

     total cpu time spent up to now is       92.6 secs

     total energy              =   -8004.89131390 Ry
     estimated scf accuracy    <      81.03319110 Ry

     total magnetization       =   120.25 Bohr mag/cell
     absolute magnetization    =   173.66 Bohr mag/cell

     iteration #  5     ecut=    50.00 Ry     beta= 0.10
     Davidson diagonalization with overlap
     ethr =  7.31E-03,  avg # of iterations =  1.0

     negative rho (up, down):  1.997E-02 0.000E+00
 
     Adding external electric field

     Computed dipole along edir(3) : 
        Dipole               -1.3495 Ry au,         -3.4300 Debye
        Dipole field         -0.0008 Ry au, 
 
        Potential amp.        0.0885 Ry
        Total length         54.7057 bohr
 
 
     Adding external electric field

     Computed dipole along edir(3) : 
        Dipole               -1.3495 Ry au,         -3.4300 Debye
        Dipole field         -0.0008 Ry au, 
 
        Potential amp.        0.0885 Ry
        Total length         54.7057 bohr
 

     total cpu time spent up to now is      106.9 secs

     total energy              =   -8066.50208220 Ry
     estimated scf accuracy    <      65.84077936 Ry

     total magnetization       =   106.04 Bohr mag/cell
     absolute magnetization    =   159.10 Bohr mag/cell

     iteration #  6     ecut=    50.00 Ry     beta= 0.10
     Davidson diagonalization with overlap
     ethr =  5.94E-03,  avg # of iterations =  1.0

     negative rho (up, down):  1.018E-04 7.612E-05
 
     Adding external electric field

     Computed dipole along edir(3) : 
        Dipole               -0.9066 Ry au,         -2.3043 Debye
        Dipole field         -0.0005 Ry au, 
 
        Potential amp.        0.0595 Ry
        Total length         54.7057 bohr
 
 
     Adding external electric field

     Computed dipole along edir(3) : 
        Dipole               -0.9066 Ry au,         -2.3043 Debye
        Dipole field         -0.0005 Ry au, 
 
        Potential amp.        0.0595 Ry
        Total length         54.7057 bohr
 

     total cpu time spent up to now is      120.7 secs

     total energy              =   -8076.46745508 Ry
     estimated scf accuracy    <      11.83187012 Ry

     total magnetization       =   100.00 Bohr mag/cell
     absolute magnetization    =   130.23 Bohr mag/cell

     iteration #  7     ecut=    50.00 Ry     beta= 0.10
     Davidson diagonalization with overlap
     ethr =  1.07E-03,  avg # of iterations =  6.0

     negative rho (up, down):  1.011E-04 7.257E-05
 
     Adding external electric field

     Computed dipole along edir(3) : 
        Dipole               -0.9096 Ry au,         -2.3120 Debye
        Dipole field         -0.0005 Ry au, 
 
        Potential amp.        0.0597 Ry
        Total length         54.7057 bohr
 
 
     Adding external electric field

     Computed dipole along edir(3) : 
        Dipole               -0.9096 Ry au,         -2.3120 Debye
        Dipole field         -0.0005 Ry au, 
 
        Potential amp.        0.0597 Ry
        Total length         54.7057 bohr
 

     total cpu time spent up to now is      146.9 secs

     total energy              =   -8078.83454081 Ry
     estimated scf accuracy    <      31.98081490 Ry

     total magnetization       =    69.92 Bohr mag/cell
     absolute magnetization    =    87.56 Bohr mag/cell

     iteration #  8     ecut=    50.00 Ry     beta= 0.10
     Davidson diagonalization with overlap
     ethr =  1.07E-03,  avg # of iterations =  1.0

     negative rho (up, down):  1.123E-04 1.084E-04
 
     Adding external electric field

     Computed dipole along edir(3) : 
        Dipole               -0.8853 Ry au,         -2.2503 Debye
        Dipole field         -0.0005 Ry au, 
 
        Potential amp.        0.0581 Ry
        Total length         54.7057 bohr
 
 
     Adding external electric field

     Computed dipole along edir(3) : 
        Dipole               -0.8853 Ry au,         -2.2503 Debye
        Dipole field         -0.0005 Ry au, 
 
        Potential amp.        0.0581 Ry
        Total length         54.7057 bohr
 

     total cpu time spent up to now is      160.5 secs

     total energy              =   -8078.87680205 Ry
     estimated scf accuracy    <      32.17343083 Ry

     total magnetization       =    69.92 Bohr mag/cell
     absolute magnetization    =    87.19 Bohr mag/cell

     iteration #  9     ecut=    50.00 Ry     beta= 0.10
     Davidson diagonalization with overlap
     ethr =  1.07E-03,  avg # of iterations =  1.0

     negative rho (up, down):  2.374E-04 2.392E-04
 
     Adding external electric field

     Computed dipole along edir(3) : 
        Dipole               -0.8098 Ry au,         -2.0583 Debye
        Dipole field         -0.0005 Ry au, 
 
        Potential amp.        0.0531 Ry
        Total length         54.7057 bohr
 
 
     Adding external electric field

     Computed dipole along edir(3) : 
        Dipole               -0.8098 Ry au,         -2.0583 Debye
        Dipole field         -0.0005 Ry au, 
 
        Potential amp.        0.0531 Ry
        Total length         54.7057 bohr
 

     total cpu time spent up to now is      174.9 secs

     total energy              =   -8078.74424013 Ry
     estimated scf accuracy    <      31.60444957 Ry

     total magnetization       =    69.91 Bohr mag/cell
     absolute magnetization    =    86.85 Bohr mag/cell

     iteration # 10     ecut=    50.00 Ry     beta= 0.10
     Davidson diagonalization with overlap
     ethr =  1.07E-03,  avg # of iterations =  1.0

     negative rho (up, down):  3.269E-04 2.411E-04
 
     Adding external electric field

     Computed dipole along edir(3) : 
        Dipole               -0.7886 Ry au,         -2.0044 Debye
        Dipole field         -0.0005 Ry au, 
 
        Potential amp.        0.0517 Ry
        Total length         54.7057 bohr
 
 
     Adding external electric field

     Computed dipole along edir(3) : 
        Dipole               -0.7886 Ry au,         -2.0044 Debye
        Dipole field         -0.0005 Ry au, 
 
        Potential amp.        0.0517 Ry
        Total length         54.7057 bohr
 

     total cpu time spent up to now is      188.8 secs

     total energy              =   -8078.65537910 Ry
     estimated scf accuracy    <      29.36374912 Ry

     total magnetization       =    70.09 Bohr mag/cell
     absolute magnetization    =    86.90 Bohr mag/cell

     iteration # 11     ecut=    50.00 Ry     beta= 0.10
     Davidson diagonalization with overlap
     ethr =  1.07E-03,  avg # of iterations =  1.0

     negative rho (up, down):  3.529E-04 4.114E-04
 
     Adding external electric field

     Computed dipole along edir(3) : 
        Dipole               -0.6994 Ry au,         -1.7778 Debye
        Dipole field         -0.0004 Ry au, 
 
        Potential amp.        0.0459 Ry
        Total length         54.7057 bohr
 
 
     Adding external electric field

     Computed dipole along edir(3) : 
        Dipole               -0.6994 Ry au,         -1.7778 Debye
        Dipole field         -0.0004 Ry au, 
 
        Potential amp.        0.0459 Ry
        Total length         54.7057 bohr
 

     total cpu time spent up to now is      202.2 secs

     total energy              =   -8078.66357246 Ry
     estimated scf accuracy    <      27.97269224 Ry

     total magnetization       =    70.79 Bohr mag/cell
     absolute magnetization    =    87.63 Bohr mag/cell

     iteration # 12     ecut=    50.00 Ry     beta= 0.10
     Davidson diagonalization with overlap
     ethr =  1.07E-03,  avg # of iterations =  1.0

     negative rho (up, down):  1.604E-03 1.722E-03
 
     Adding external electric field

     Computed dipole along edir(3) : 
        Dipole               -0.5590 Ry au,         -1.4209 Debye
        Dipole field         -0.0003 Ry au, 
 
        Potential amp.        0.0367 Ry
        Total length         54.7057 bohr
 
 
     Adding external electric field

     Computed dipole along edir(3) : 
        Dipole               -0.5590 Ry au,         -1.4209 Debye
        Dipole field         -0.0003 Ry au, 
 
        Potential amp.        0.0367 Ry
        Total length         54.7057 bohr
 

     total cpu time spent up to now is      215.2 secs

     total energy              =   -8078.43983423 Ry
     estimated scf accuracy    <      25.30539405 Ry

     total magnetization       =    70.85 Bohr mag/cell
     absolute magnetization    =    87.35 Bohr mag/cell

     iteration # 13     ecut=    50.00 Ry     beta= 0.10
     Davidson diagonalization with overlap
     ethr =  1.07E-03,  avg # of iterations =  1.0

     negative rho (up, down):  6.876E-03 5.399E-03
 
     Adding external electric field

     Computed dipole along edir(3) : 
        Dipole               -0.4170 Ry au,         -1.0598 Debye
        Dipole field         -0.0002 Ry au, 
 
        Potential amp.        0.0273 Ry
        Total length         54.7057 bohr
 
 
     Adding external electric field

     Computed dipole along edir(3) : 
        Dipole               -0.4170 Ry au,         -1.0598 Debye
        Dipole field         -0.0002 Ry au, 
 
        Potential amp.        0.0273 Ry
        Total length         54.7057 bohr
 

     total cpu time spent up to now is      228.3 secs

     total energy              =   -8078.33706055 Ry
     estimated scf accuracy    <      16.84172183 Ry

     total magnetization       =    76.27 Bohr mag/cell
     absolute magnetization    =    92.38 Bohr mag/cell

     iteration # 14     ecut=    50.00 Ry     beta= 0.10
     Davidson diagonalization with overlap
     ethr =  1.07E-03,  avg # of iterations =  1.0

     negative rho (up, down):  2.486E-02 1.164E-02
 
     Adding external electric field

     Computed dipole along edir(3) : 
        Dipole               -0.1703 Ry au,         -0.4328 Debye
        Dipole field         -0.0001 Ry au, 
 
        Potential amp.        0.0112 Ry
        Total length         54.7057 bohr
 
 
     Adding external electric field

     Computed dipole along edir(3) : 
        Dipole               -0.1703 Ry au,         -0.4328 Debye
        Dipole field         -0.0001 Ry au, 
 
        Potential amp.        0.0112 Ry
        Total length         54.7057 bohr
 

     total cpu time spent up to now is      241.9 secs

     total energy              =   -8078.20363470 Ry
     estimated scf accuracy    <       9.41384671 Ry

     total magnetization       =    84.64 Bohr mag/cell
     absolute magnetization    =   100.17 Bohr mag/cell

     iteration # 15     ecut=    50.00 Ry     beta= 0.10
     Davidson diagonalization with overlap
     ethr =  8.50E-04,  avg # of iterations =  1.0

     negative rho (up, down):  1.461E-02 9.744E-03
 
     Adding external electric field

     Computed dipole along edir(3) : 
        Dipole               -0.2127 Ry au,         -0.5407 Debye
        Dipole field         -0.0001 Ry au, 
 
        Potential amp.        0.0140 Ry
        Total length         54.7057 bohr
 
 
     Adding external electric field

     Computed dipole along edir(3) : 
        Dipole               -0.2127 Ry au,         -0.5407 Debye
        Dipole field         -0.0001 Ry au, 
 
        Potential amp.        0.0140 Ry
        Total length         54.7057 bohr
 

     total cpu time spent up to now is      255.3 secs

     total energy              =   -8078.43516040 Ry
     estimated scf accuracy    <       4.82790059 Ry

     total magnetization       =    98.15 Bohr mag/cell
     absolute magnetization    =   113.28 Bohr mag/cell

     iteration # 16     ecut=    50.00 Ry     beta= 0.10
     Davidson diagonalization with overlap
     ethr =  4.36E-04,  avg # of iterations =  1.5

     negative rho (up, down):  4.712E-04 6.596E-04
 
     Adding external electric field

     Computed dipole along edir(3) : 
        Dipole               -0.6371 Ry au,         -1.6192 Debye
        Dipole field         -0.0004 Ry au, 
 
        Potential amp.        0.0418 Ry
        Total length         54.7057 bohr
 
 
     Adding external electric field

     Computed dipole along edir(3) : 
        Dipole               -0.6371 Ry au,         -1.6192 Debye
        Dipole field         -0.0004 Ry au, 
 
        Potential amp.        0.0418 Ry
        Total length         54.7057 bohr
 

     total cpu time spent up to now is      269.0 secs

     total energy              =   -8077.94682640 Ry
     estimated scf accuracy    <       4.70206555 Ry

     total magnetization       =    93.35 Bohr mag/cell
     absolute magnetization    =   107.66 Bohr mag/cell

     iteration # 17     ecut=    50.00 Ry     beta= 0.10
     Davidson diagonalization with overlap
     ethr =  4.24E-04,  avg # of iterations =  1.5

     negative rho (up, down):  1.620E-03 1.241E-03
 
     Adding external electric field

     Computed dipole along edir(3) : 
        Dipole               -0.7212 Ry au,         -1.8330 Debye
        Dipole field         -0.0004 Ry au, 
 
        Potential amp.        0.0473 Ry
        Total length         54.7057 bohr
 
 
     Adding external electric field

     Computed dipole along edir(3) : 
        Dipole               -0.7212 Ry au,         -1.8330 Debye
        Dipole field         -0.0004 Ry au, 
 
        Potential amp.        0.0473 Ry
        Total length         54.7057 bohr
 

     total cpu time spent up to now is      283.5 secs

     total energy              =   -8078.53199266 Ry
     estimated scf accuracy    <      21.28282640 Ry

     total magnetization       =    71.59 Bohr mag/cell
     absolute magnetization    =    85.34 Bohr mag/cell

     iteration # 18     ecut=    50.00 Ry     beta= 0.10
     Davidson diagonalization with overlap
     ethr =  4.24E-04,  avg # of iterations =  1.5

     negative rho (up, down):  4.774E-03 3.693E-03
 
     Adding external electric field

     Computed dipole along edir(3) : 
        Dipole               -0.6659 Ry au,         -1.6926 Debye
        Dipole field         -0.0004 Ry au, 
 
        Potential amp.        0.0437 Ry
        Total length         54.7057 bohr
 
 
     Adding external electric field

     Computed dipole along edir(3) : 
        Dipole               -0.6659 Ry au,         -1.6926 Debye
        Dipole field         -0.0004 Ry au, 
 
        Potential amp.        0.0437 Ry
        Total length         54.7057 bohr
 

     total cpu time spent up to now is      298.2 secs

     total energy              =   -8078.47048027 Ry
     estimated scf accuracy    <      14.44600240 Ry

     total magnetization       =    79.50 Bohr mag/cell
     absolute magnetization    =    90.33 Bohr mag/cell

     iteration # 19     ecut=    50.00 Ry     beta= 0.10
     Davidson diagonalization with overlap
     ethr =  4.24E-04,  avg # of iterations =  1.0

     negative rho (up, down):  7.472E-03 3.562E-03
 
     Adding external electric field

     Computed dipole along edir(3) : 
        Dipole               -0.6295 Ry au,         -1.6000 Debye
        Dipole field         -0.0004 Ry au, 
 
        Potential amp.        0.0413 Ry
        Total length         54.7057 bohr
 
 
     Adding external electric field

     Computed dipole along edir(3) : 
        Dipole               -0.6295 Ry au,         -1.6000 Debye
        Dipole field         -0.0004 Ry au, 
 
        Potential amp.        0.0413 Ry
        Total length         54.7057 bohr
 

     total cpu time spent up to now is      312.1 secs

     total energy              =   -8078.33816517 Ry
     estimated scf accuracy    <       8.16823693 Ry

     total magnetization       =    88.27 Bohr mag/cell
     absolute magnetization    =    96.77 Bohr mag/cell

     iteration # 20     ecut=    50.00 Ry     beta= 0.10
     Davidson diagonalization with overlap
     ethr =  4.24E-04,  avg # of iterations =  1.5

     negative rho (up, down):  4.762E-03 2.398E-03
 
     Adding external electric field

     Computed dipole along edir(3) : 
        Dipole               -0.6370 Ry au,         -1.6191 Debye
        Dipole field         -0.0004 Ry au, 
 
        Potential amp.        0.0418 Ry
        Total length         54.7057 bohr
 
 
     Adding external electric field

     Computed dipole along edir(3) : 
        Dipole               -0.6370 Ry au,         -1.6191 Debye
        Dipole field         -0.0004 Ry au, 
 
        Potential amp.        0.0418 Ry
        Total length         54.7057 bohr
 

     total cpu time spent up to now is      326.6 secs

     total energy              =   -8078.42268645 Ry
     estimated scf accuracy    <       3.27981925 Ry

     total magnetization       =    95.21 Bohr mag/cell
     absolute magnetization    =   103.22 Bohr mag/cell

     iteration # 21     ecut=    50.00 Ry     beta= 0.10
     Davidson diagonalization with overlap
     ethr =  2.96E-04,  avg # of iterations =  1.5

     negative rho (up, down):  4.268E-03 1.635E-03
 
     Adding external electric field

     Computed dipole along edir(3) : 
        Dipole               -0.7042 Ry au,         -1.7898 Debye
        Dipole field         -0.0004 Ry au, 
 
        Potential amp.        0.0462 Ry
        Total length         54.7057 bohr
 
 
     Adding external electric field

     Computed dipole along edir(3) : 
        Dipole               -0.7042 Ry au,         -1.7898 Debye
        Dipole field         -0.0004 Ry au, 
 
        Potential amp.        0.0462 Ry
        Total length         54.7057 bohr
 

     total cpu time spent up to now is      341.5 secs

     total energy              =   -8078.39527460 Ry
     estimated scf accuracy    <       3.15685480 Ry

     total magnetization       =    94.83 Bohr mag/cell
     absolute magnetization    =   102.00 Bohr mag/cell

     iteration # 22     ecut=    50.00 Ry     beta= 0.10
     Davidson diagonalization with overlap
     ethr =  2.85E-04,  avg # of iterations =  1.5

     negative rho (up, down):  3.335E-03 1.569E-03
 
     Adding external electric field

     Computed dipole along edir(3) : 
        Dipole               -0.7916 Ry au,         -2.0121 Debye
        Dipole field         -0.0005 Ry au, 
 
        Potential amp.        0.0519 Ry
        Total length         54.7057 bohr
 
 
     Adding external electric field

     Computed dipole along edir(3) : 
        Dipole               -0.7916 Ry au,         -2.0121 Debye
        Dipole field         -0.0005 Ry au, 
 
        Potential amp.        0.0519 Ry
        Total length         54.7057 bohr
 

     total cpu time spent up to now is      357.3 secs

     total energy              =   -8078.50299445 Ry
     estimated scf accuracy    <       1.21028595 Ry

     total magnetization       =    97.38 Bohr mag/cell
     absolute magnetization    =   103.47 Bohr mag/cell

     iteration # 23     ecut=    50.00 Ry     beta= 0.10
     Davidson diagonalization with overlap
     ethr =  1.09E-04,  avg # of iterations =  2.0

     negative rho (up, down):  3.309E-03 2.596E-03
 
     Adding external electric field

     Computed dipole along edir(3) : 
        Dipole               -0.7493 Ry au,         -1.9046 Debye
        Dipole field         -0.0004 Ry au, 
 
        Potential amp.        0.0491 Ry
        Total length         54.7057 bohr
 
 
     Adding external electric field

     Computed dipole along edir(3) : 
        Dipole               -0.7493 Ry au,         -1.9046 Debye
        Dipole field         -0.0004 Ry au, 
 
        Potential amp.        0.0491 Ry
        Total length         54.7057 bohr
 

     total cpu time spent up to now is      372.8 secs

     total energy              =   -8078.57033478 Ry
     estimated scf accuracy    <       0.85101316 Ry

     total magnetization       =    96.50 Bohr mag/cell
     absolute magnetization    =   100.58 Bohr mag/cell

     iteration # 24     ecut=    50.00 Ry     beta= 0.10
     Davidson diagonalization with overlap
     c_bands:  3 eigenvalues not converged
     ethr =  7.68E-05,  avg # of iterations = 10.5

     negative rho (up, down):  2.679E-03 2.632E-03
 
     Adding external electric field

     Computed dipole along edir(3) : 
        Dipole               -0.6744 Ry au,         -1.7142 Debye
        Dipole field         -0.0004 Ry au, 
 
        Potential amp.        0.0442 Ry
        Total length         54.7057 bohr
 
 
     Adding external electric field

     Computed dipole along edir(3) : 
        Dipole               -0.6744 Ry au,         -1.7142 Debye
        Dipole field         -0.0004 Ry au, 
 
        Potential amp.        0.0442 Ry
        Total length         54.7057 bohr
 

     total cpu time spent up to now is      395.4 secs

     total energy              =   -8078.56366198 Ry
     estimated scf accuracy    <       0.65463952 Ry

     total magnetization       =    96.37 Bohr mag/cell
     absolute magnetization    =    99.44 Bohr mag/cell

     iteration # 25     ecut=    50.00 Ry     beta= 0.10
     Davidson diagonalization with overlap
     ethr =  5.91E-05,  avg # of iterations =  2.0

     negative rho (up, down):  1.371E-03 2.282E-03
 
     Adding external electric field

     Computed dipole along edir(3) : 
        Dipole               -0.6322 Ry au,         -1.6068 Debye
        Dipole field         -0.0004 Ry au, 
 
        Potential amp.        0.0415 Ry
        Total length         54.7057 bohr
 
 
     Adding external electric field

     Computed dipole along edir(3) : 
        Dipole               -0.6322 Ry au,         -1.6068 Debye
        Dipole field         -0.0004 Ry au, 
 
        Potential amp.        0.0415 Ry
        Total length         54.7057 bohr
 

     total cpu time spent up to now is      410.9 secs

     total energy              =   -8078.55742928 Ry
     estimated scf accuracy    <       0.37894702 Ry

     total magnetization       =    97.31 Bohr mag/cell
     absolute magnetization    =   100.01 Bohr mag/cell

     iteration # 26     ecut=    50.00 Ry     beta= 0.10
     Davidson diagonalization with overlap
     ethr =  3.42E-05,  avg # of iterations =  1.5

     negative rho (up, down):  5.796E-04 1.169E-03
 
     Adding external electric field

     Computed dipole along edir(3) : 
        Dipole               -0.6152 Ry au,         -1.5637 Debye
        Dipole field         -0.0004 Ry au, 
 
        Potential amp.        0.0404 Ry
        Total length         54.7057 bohr
 
 
     Adding external electric field

     Computed dipole along edir(3) : 
        Dipole               -0.6152 Ry au,         -1.5637 Debye
        Dipole field         -0.0004 Ry au, 
 
        Potential amp.        0.0404 Ry
        Total length         54.7057 bohr
 

     total cpu time spent up to now is      426.1 secs

     total energy              =   -8078.55703264 Ry
     estimated scf accuracy    <       0.27019672 Ry

     total magnetization       =    97.04 Bohr mag/cell
     absolute magnetization    =    99.33 Bohr mag/cell

     iteration # 27     ecut=    50.00 Ry     beta= 0.10
     Davidson diagonalization with overlap
     ethr =  2.44E-05,  avg # of iterations =  1.5

     negative rho (up, down):  4.042E-08 2.977E-05
 
     Adding external electric field

     Computed dipole along edir(3) : 
        Dipole               -0.5711 Ry au,         -1.4515 Debye
        Dipole field         -0.0003 Ry au, 
 
        Potential amp.        0.0375 Ry
        Total length         54.7057 bohr
 
 
     Adding external electric field

     Computed dipole along edir(3) : 
        Dipole               -0.5711 Ry au,         -1.4515 Debye
        Dipole field         -0.0003 Ry au, 
 
        Potential amp.        0.0375 Ry
        Total length         54.7057 bohr
 

     total cpu time spent up to now is      441.0 secs

     total energy              =   -8078.55049490 Ry
     estimated scf accuracy    <       0.16920140 Ry

     total magnetization       =    97.92 Bohr mag/cell
     absolute magnetization    =    99.91 Bohr mag/cell

     iteration # 28     ecut=    50.00 Ry     beta= 0.10
     Davidson diagonalization with overlap
     ethr =  1.53E-05,  avg # of iterations = 12.0

     negative rho (up, down):  1.025E-07 3.825E-05
 
     Adding external electric field

     Computed dipole along edir(3) : 
        Dipole               -0.5635 Ry au,         -1.4322 Debye
        Dipole field         -0.0003 Ry au, 
 
        Potential amp.        0.0370 Ry
        Total length         54.7057 bohr
 
 
     Adding external electric field

     Computed dipole along edir(3) : 
        Dipole               -0.5635 Ry au,         -1.4322 Debye
        Dipole field         -0.0003 Ry au, 
 
        Potential amp.        0.0370 Ry
        Total length         54.7057 bohr
 

     total cpu time spent up to now is      467.8 secs

     total energy              =   -8078.55198083 Ry
     estimated scf accuracy    <       0.11049004 Ry

     total magnetization       =    97.49 Bohr mag/cell
     absolute magnetization    =    99.24 Bohr mag/cell

     iteration # 29     ecut=    50.00 Ry     beta= 0.10
     Davidson diagonalization with overlap
     c_bands:  4 eigenvalues not converged
     ethr =  9.97E-06,  avg # of iterations = 11.0

     negative rho (up, down):  3.641E-09 2.061E-08
 
     Adding external electric field

     Computed dipole along edir(3) : 
        Dipole               -0.5245 Ry au,         -1.3332 Debye
        Dipole field         -0.0003 Ry au, 
 
        Potential amp.        0.0344 Ry
        Total length         54.7057 bohr
 
 
     Adding external electric field

     Computed dipole along edir(3) : 
        Dipole               -0.5245 Ry au,         -1.3332 Debye
        Dipole field         -0.0003 Ry au, 
 
        Potential amp.        0.0344 Ry
        Total length         54.7057 bohr
 

     total cpu time spent up to now is      489.6 secs

     total energy              =   -8078.55182397 Ry
     estimated scf accuracy    <       0.06838166 Ry

     total magnetization       =    97.38 Bohr mag/cell
     absolute magnetization    =    98.99 Bohr mag/cell

     iteration # 30     ecut=    50.00 Ry     beta= 0.10
     Davidson diagonalization with overlap
     c_bands:  1 eigenvalues not converged
     ethr =  6.17E-06,  avg # of iterations = 11.0

     negative rho (up, down):  5.199E-09 2.190E-08
 
     Adding external electric field

     Computed dipole along edir(3) : 
        Dipole               -0.5261 Ry au,         -1.3372 Debye
        Dipole field         -0.0003 Ry au, 
 
        Potential amp.        0.0345 Ry
        Total length         54.7057 bohr
 
 
     Adding external electric field

     Computed dipole along edir(3) : 
        Dipole               -0.5261 Ry au,         -1.3372 Debye
        Dipole field         -0.0003 Ry au, 
 
        Potential amp.        0.0345 Ry
        Total length         54.7057 bohr
 

     total cpu time spent up to now is      516.8 secs

     total energy              =   -8078.55749377 Ry
     estimated scf accuracy    <       0.07110699 Ry

     total magnetization       =    97.02 Bohr mag/cell
     absolute magnetization    =    98.41 Bohr mag/cell

     iteration # 31     ecut=    50.00 Ry     beta= 0.10
     Davidson diagonalization with overlap
     ethr =  6.17E-06,  avg # of iterations =  1.5

     negative rho (up, down):  2.187E-09 1.996E-08
 
     Adding external electric field

     Computed dipole along edir(3) : 
        Dipole               -0.4972 Ry au,         -1.2638 Debye
        Dipole field         -0.0003 Ry au, 
 
        Potential amp.        0.0326 Ry
        Total length         54.7057 bohr
 
 
     Adding external electric field

     Computed dipole along edir(3) : 
        Dipole               -0.4972 Ry au,         -1.2638 Debye
        Dipole field         -0.0003 Ry au, 
 
        Potential amp.        0.0326 Ry
        Total length         54.7057 bohr
 

     total cpu time spent up to now is      532.0 secs

     total energy              =   -8078.55729885 Ry
     estimated scf accuracy    <       0.06023800 Ry

     total magnetization       =    97.13 Bohr mag/cell
     absolute magnetization    =    98.53 Bohr mag/cell

     iteration # 32     ecut=    50.00 Ry     beta= 0.10
     Davidson diagonalization with overlap
     ethr =  5.44E-06,  avg # of iterations =  1.5

     negative rho (up, down):  4.470E-09 3.596E-08
 
     Adding external electric field

     Computed dipole along edir(3) : 
        Dipole               -0.4824 Ry au,         -1.2260 Debye
        Dipole field         -0.0003 Ry au, 
 
        Potential amp.        0.0316 Ry
        Total length         54.7057 bohr
 
 
     Adding external electric field

     Computed dipole along edir(3) : 
        Dipole               -0.4824 Ry au,         -1.2260 Debye
        Dipole field         -0.0003 Ry au, 
 
        Potential amp.        0.0316 Ry
        Total length         54.7057 bohr
 

     total cpu time spent up to now is      547.4 secs

     total energy              =   -8078.55632974 Ry
     estimated scf accuracy    <       0.06244575 Ry

     total magnetization       =    96.93 Bohr mag/cell
     absolute magnetization    =    98.25 Bohr mag/cell

     iteration # 33     ecut=    50.00 Ry     beta= 0.10
     Davidson diagonalization with overlap
     ethr =  5.44E-06,  avg # of iterations =  1.5

     negative rho (up, down):  2.677E-09 1.964E-08
 
     Adding external electric field

     Computed dipole along edir(3) : 
        Dipole               -0.4762 Ry au,         -1.2104 Debye
        Dipole field         -0.0003 Ry au, 
 
        Potential amp.        0.0312 Ry
        Total length         54.7057 bohr
 
 
     Adding external electric field

     Computed dipole along edir(3) : 
        Dipole               -0.4762 Ry au,         -1.2104 Debye
        Dipole field         -0.0003 Ry au, 
 
        Potential amp.        0.0312 Ry
        Total length         54.7057 bohr
 

     total cpu time spent up to now is      562.1 secs

     total energy              =   -8078.55676683 Ry
     estimated scf accuracy    <       0.03737899 Ry

     total magnetization       =    97.05 Bohr mag/cell
     absolute magnetization    =    98.33 Bohr mag/cell

     iteration # 34     ecut=    50.00 Ry     beta= 0.10
     Davidson diagonalization with overlap
     ethr =  3.37E-06,  avg # of iterations =  1.5

     negative rho (up, down):  6.079E-09 7.017E-08
 
     Adding external electric field

     Computed dipole along edir(3) : 
        Dipole               -0.4847 Ry au,         -1.2319 Debye
        Dipole field         -0.0003 Ry au, 
 
        Potential amp.        0.0318 Ry
        Total length         54.7057 bohr
 
 
     Adding external electric field

     Computed dipole along edir(3) : 
        Dipole               -0.4847 Ry au,         -1.2319 Debye
        Dipole field         -0.0003 Ry au, 
 
        Potential amp.        0.0318 Ry
        Total length         54.7057 bohr
 

     total cpu time spent up to now is      577.1 secs

     total energy              =   -8078.55636926 Ry
     estimated scf accuracy    <       0.04156694 Ry

     total magnetization       =    97.05 Bohr mag/cell
     absolute magnetization    =    98.35 Bohr mag/cell

     iteration # 35     ecut=    50.00 Ry     beta= 0.10
     Davidson diagonalization with overlap
     ethr =  3.37E-06,  avg # of iterations =  1.5

     negative rho (up, down):  4.530E-09 1.239E-07
 
     Adding external electric field

     Computed dipole along edir(3) : 
        Dipole               -0.4920 Ry au,         -1.2505 Debye
        Dipole field         -0.0003 Ry au, 
 
        Potential amp.        0.0323 Ry
        Total length         54.7057 bohr
 
 
     Adding external electric field

     Computed dipole along edir(3) : 
        Dipole               -0.4920 Ry au,         -1.2505 Debye
        Dipole field         -0.0003 Ry au, 
 
        Potential amp.        0.0323 Ry
        Total length         54.7057 bohr
 

     total cpu time spent up to now is      592.2 secs

     total energy              =   -8078.55642614 Ry
     estimated scf accuracy    <       0.03412585 Ry

     total magnetization       =    97.09 Bohr mag/cell
     absolute magnetization    =    98.33 Bohr mag/cell

     iteration # 36     ecut=    50.00 Ry     beta= 0.10
     Davidson diagonalization with overlap
     c_bands:  2 eigenvalues not converged
     ethr =  3.08E-06,  avg # of iterations = 10.5

     negative rho (up, down):  1.714E-08 5.021E-07
 
     Adding external electric field

     Computed dipole along edir(3) : 
        Dipole               -0.4920 Ry au,         -1.2506 Debye
        Dipole field         -0.0003 Ry au, 
 
        Potential amp.        0.0323 Ry
        Total length         54.7057 bohr
 
 
     Adding external electric field

     Computed dipole along edir(3) : 
        Dipole               -0.4920 Ry au,         -1.2506 Debye
        Dipole field         -0.0003 Ry au, 
 
        Potential amp.        0.0323 Ry
        Total length         54.7057 bohr
 

     total cpu time spent up to now is      613.3 secs

     total energy              =   -8078.55589105 Ry
     estimated scf accuracy    <       0.03213049 Ry

     total magnetization       =    97.14 Bohr mag/cell
     absolute magnetization    =    98.36 Bohr mag/cell

     iteration # 37     ecut=    50.00 Ry     beta= 0.10
     Davidson diagonalization with overlap
     ethr =  2.90E-06,  avg # of iterations =  1.5

     negative rho (up, down):  3.580E-07 2.577E-06
 
     Adding external electric field

     Computed dipole along edir(3) : 
        Dipole               -0.4911 Ry au,         -1.2482 Debye
        Dipole field         -0.0003 Ry au, 
 
        Potential amp.        0.0322 Ry
        Total length         54.7057 bohr
 
 
     Adding external electric field

     Computed dipole along edir(3) : 
        Dipole               -0.4911 Ry au,         -1.2482 Debye
        Dipole field         -0.0003 Ry au, 
 
        Potential amp.        0.0322 Ry
        Total length         54.7057 bohr
 

     total cpu time spent up to now is      628.1 secs

     total energy              =   -8078.55639256 Ry
     estimated scf accuracy    <       0.02812482 Ry

     total magnetization       =    97.22 Bohr mag/cell
     absolute magnetization    =    98.41 Bohr mag/cell

     iteration # 38     ecut=    50.00 Ry     beta= 0.10
     Davidson diagonalization with overlap
     ethr =  2.54E-06,  avg # of iterations =  1.5

     negative rho (up, down):  2.774E-07 2.208E-06
 
     Adding external electric field

     Computed dipole along edir(3) : 
        Dipole               -0.4782 Ry au,         -1.2154 Debye
        Dipole field         -0.0003 Ry au, 
 
        Potential amp.        0.0314 Ry
        Total length         54.7057 bohr
 
 
     Adding external electric field

     Computed dipole along edir(3) : 
        Dipole               -0.4782 Ry au,         -1.2154 Debye
        Dipole field         -0.0003 Ry au, 
 
        Potential amp.        0.0314 Ry
        Total length         54.7057 bohr
 

     total cpu time spent up to now is      643.3 secs

     total energy              =   -8078.55625992 Ry
     estimated scf accuracy    <       0.03288050 Ry

     total magnetization       =    97.37 Bohr mag/cell
     absolute magnetization    =    98.52 Bohr mag/cell

     iteration # 39     ecut=    50.00 Ry     beta= 0.10
     Davidson diagonalization with overlap
     ethr =  2.54E-06,  avg # of iterations =  1.5

     negative rho (up, down):  2.761E-07 2.106E-06
 
     Adding external electric field

     Computed dipole along edir(3) : 
        Dipole               -0.4790 Ry au,         -1.2176 Debye
        Dipole field         -0.0003 Ry au, 
 
        Potential amp.        0.0314 Ry
        Total length         54.7057 bohr
 
 
     Adding external electric field

     Computed dipole along edir(3) : 
        Dipole               -0.4790 Ry au,         -1.2176 Debye
        Dipole field         -0.0003 Ry au, 
 
        Potential amp.        0.0314 Ry
        Total length         54.7057 bohr
 

     total cpu time spent up to now is      658.7 secs

     total energy              =   -8078.55640042 Ry
     estimated scf accuracy    <       0.03119634 Ry

     total magnetization       =    97.34 Bohr mag/cell
     absolute magnetization    =    98.47 Bohr mag/cell

     iteration # 40     ecut=    50.00 Ry     beta= 0.10
     Davidson diagonalization with overlap
     ethr =  2.54E-06,  avg # of iterations =  1.0

     negative rho (up, down):  4.940E-07 3.459E-06
 
     Adding external electric field

     Computed dipole along edir(3) : 
        Dipole               -0.4767 Ry au,         -1.2117 Debye
        Dipole field         -0.0003 Ry au, 
 
        Potential amp.        0.0313 Ry
        Total length         54.7057 bohr
 
 
     Adding external electric field

     Computed dipole along edir(3) : 
        Dipole               -0.4767 Ry au,         -1.2117 Debye
        Dipole field         -0.0003 Ry au, 
 
        Potential amp.        0.0313 Ry
        Total length         54.7057 bohr
 

     total cpu time spent up to now is      672.9 secs

     total energy              =   -8078.55631656 Ry
     estimated scf accuracy    <       0.03139020 Ry

     total magnetization       =    97.34 Bohr mag/cell
     absolute magnetization    =    98.48 Bohr mag/cell

     iteration # 41     ecut=    50.00 Ry     beta= 0.10
     Davidson diagonalization with overlap
     ethr =  2.54E-06,  avg # of iterations =  1.5

     negative rho (up, down):  1.014E-06 2.914E-06
 
     Adding external electric field

     Computed dipole along edir(3) : 
        Dipole               -0.4591 Ry au,         -1.1670 Debye
        Dipole field         -0.0003 Ry au, 
 
        Potential amp.        0.0301 Ry
        Total length         54.7057 bohr
 
 
     Adding external electric field

     Computed dipole along edir(3) : 
        Dipole               -0.4591 Ry au,         -1.1670 Debye
        Dipole field         -0.0003 Ry au, 
 
        Potential amp.        0.0301 Ry
        Total length         54.7057 bohr
 

     total cpu time spent up to now is      688.4 secs

     total energy              =   -8078.55742479 Ry
     estimated scf accuracy    <       0.03366476 Ry

     total magnetization       =    97.35 Bohr mag/cell
     absolute magnetization    =    98.48 Bohr mag/cell

     iteration # 42     ecut=    50.00 Ry     beta= 0.10
     Davidson diagonalization with overlap
     ethr =  2.54E-06,  avg # of iterations =  1.5

     negative rho (up, down):  3.528E-06 5.767E-06
 
     Adding external electric field

     Computed dipole along edir(3) : 
        Dipole               -0.4163 Ry au,         -1.0581 Debye
        Dipole field         -0.0002 Ry au, 
 
        Potential amp.        0.0273 Ry
        Total length         54.7057 bohr
 
 
     Adding external electric field

     Computed dipole along edir(3) : 
        Dipole               -0.4163 Ry au,         -1.0581 Debye
        Dipole field         -0.0002 Ry au, 
 
        Potential amp.        0.0273 Ry
        Total length         54.7057 bohr
 

     total cpu time spent up to now is      702.6 secs

     total energy              =   -8078.55629762 Ry
     estimated scf accuracy    <       0.03141760 Ry

     total magnetization       =    97.35 Bohr mag/cell
     absolute magnetization    =    98.46 Bohr mag/cell

     iteration # 43     ecut=    50.00 Ry     beta= 0.10
     Davidson diagonalization with overlap
     c_bands:  1 eigenvalues not converged
     ethr =  2.54E-06,  avg # of iterations = 11.0

     negative rho (up, down):  3.621E-06 8.073E-06
 
     Adding external electric field

     Computed dipole along edir(3) : 
        Dipole               -0.4062 Ry au,         -1.0324 Debye
        Dipole field         -0.0002 Ry au, 
 
        Potential amp.        0.0266 Ry
        Total length         54.7057 bohr
 
 
     Adding external electric field

     Computed dipole along edir(3) : 
        Dipole               -0.4062 Ry au,         -1.0324 Debye
        Dipole field         -0.0002 Ry au, 
 
        Potential amp.        0.0266 Ry
        Total length         54.7057 bohr
 

     total cpu time spent up to now is      726.3 secs

     total energy              =   -8078.55571304 Ry
     estimated scf accuracy    <       0.02768081 Ry

     total magnetization       =    97.14 Bohr mag/cell
     absolute magnetization    =    98.26 Bohr mag/cell

     iteration # 44     ecut=    50.00 Ry     beta= 0.10
     Davidson diagonalization with overlap
     ethr =  2.50E-06,  avg # of iterations =  1.5

     negative rho (up, down):  2.789E-06 4.223E-06
 
     Adding external electric field

     Computed dipole along edir(3) : 
        Dipole               -0.4283 Ry au,         -1.0886 Debye
        Dipole field         -0.0003 Ry au, 
 
        Potential amp.        0.0281 Ry
        Total length         54.7057 bohr
 
 
     Adding external electric field

     Computed dipole along edir(3) : 
        Dipole               -0.4283 Ry au,         -1.0886 Debye
        Dipole field         -0.0003 Ry au, 
 
        Potential amp.        0.0281 Ry
        Total length         54.7057 bohr
 

     total cpu time spent up to now is      742.7 secs

     total energy              =   -8078.55715079 Ry
     estimated scf accuracy    <       0.02820037 Ry

     total magnetization       =    97.16 Bohr mag/cell
     absolute magnetization    =    98.22 Bohr mag/cell

     iteration # 45     ecut=    50.00 Ry     beta= 0.10
     Davidson diagonalization with overlap
     ethr =  2.50E-06,  avg # of iterations =  1.0

     negative rho (up, down):  4.451E-06 6.535E-06
 
     Adding external electric field

     Computed dipole along edir(3) : 
        Dipole               -0.4134 Ry au,         -1.0509 Debye
        Dipole field         -0.0002 Ry au, 
 
        Potential amp.        0.0271 Ry
        Total length         54.7057 bohr
 
 
     Adding external electric field

     Computed dipole along edir(3) : 
        Dipole               -0.4134 Ry au,         -1.0509 Debye
        Dipole field         -0.0002 Ry au, 
 
        Potential amp.        0.0271 Ry
        Total length         54.7057 bohr
 

     total cpu time spent up to now is      758.4 secs

     total energy              =   -8078.55699697 Ry
     estimated scf accuracy    <       0.02631681 Ry

     total magnetization       =    97.23 Bohr mag/cell
     absolute magnetization    =    98.34 Bohr mag/cell

     iteration # 46     ecut=    50.00 Ry     beta= 0.10
     Davidson diagonalization with overlap
     ethr =  2.38E-06,  avg # of iterations =  1.5

     negative rho (up, down):  4.007E-05 4.920E-05
 
     Adding external electric field

     Computed dipole along edir(3) : 
        Dipole               -0.3488 Ry au,         -0.8865 Debye
        Dipole field         -0.0002 Ry au, 
 
        Potential amp.        0.0229 Ry
        Total length         54.7057 bohr
 
 
     Adding external electric field

     Computed dipole along edir(3) : 
        Dipole               -0.3488 Ry au,         -0.8865 Debye
        Dipole field         -0.0002 Ry au, 
 
        Potential amp.        0.0229 Ry
        Total length         54.7057 bohr
 

     total cpu time spent up to now is      774.9 secs

     total energy              =   -8078.55603029 Ry
     estimated scf accuracy    <       0.02552452 Ry

     total magnetization       =    97.28 Bohr mag/cell
     absolute magnetization    =    98.37 Bohr mag/cell

     iteration # 47     ecut=    50.00 Ry     beta= 0.10
     Davidson diagonalization with overlap
     ethr =  2.30E-06,  avg # of iterations =  1.5

     negative rho (up, down):  3.525E-05 4.436E-05
 
     Adding external electric field

     Computed dipole along edir(3) : 
        Dipole               -0.3595 Ry au,         -0.9136 Debye
        Dipole field         -0.0002 Ry au, 
 
        Potential amp.        0.0236 Ry
        Total length         54.7057 bohr
 
 
     Adding external electric field

     Computed dipole along edir(3) : 
        Dipole               -0.3595 Ry au,         -0.9136 Debye
        Dipole field         -0.0002 Ry au, 
 
        Potential amp.        0.0236 Ry
        Total length         54.7057 bohr
 

     total cpu time spent up to now is      791.3 secs

     total energy              =   -8078.55629143 Ry
     estimated scf accuracy    <       0.02490963 Ry

     total magnetization       =    97.26 Bohr mag/cell
     absolute magnetization    =    98.34 Bohr mag/cell

     iteration # 48     ecut=    50.00 Ry     beta= 0.10
     Davidson diagonalization with overlap
     ethr =  2.25E-06,  avg # of iterations =  1.0

     negative rho (up, down):  3.011E-05 3.552E-05
 
     Adding external electric field

     Computed dipole along edir(3) : 
        Dipole               -0.3967 Ry au,         -1.0084 Debye
        Dipole field         -0.0002 Ry au, 
 
        Potential amp.        0.0260 Ry
        Total length         54.7057 bohr
 
 
     Adding external electric field

     Computed dipole along edir(3) : 
        Dipole               -0.3967 Ry au,         -1.0084 Debye
        Dipole field         -0.0002 Ry au, 
 
        Potential amp.        0.0260 Ry
        Total length         54.7057 bohr
 

     total cpu time spent up to now is      806.3 secs

     total energy              =   -8078.55679148 Ry
     estimated scf accuracy    <       0.02425896 Ry

     total magnetization       =    97.25 Bohr mag/cell
     absolute magnetization    =    98.33 Bohr mag/cell

     iteration # 49     ecut=    50.00 Ry     beta= 0.10
     Davidson diagonalization with overlap
     ethr =  2.19E-06,  avg # of iterations =  1.5

     negative rho (up, down):  9.811E-06 1.410E-05
 
     Adding external electric field

     Computed dipole along edir(3) : 
        Dipole               -0.4022 Ry au,         -1.0224 Debye
        Dipole field         -0.0002 Ry au, 
 
        Potential amp.        0.0264 Ry
        Total length         54.7057 bohr
 
 
     Adding external electric field

     Computed dipole along edir(3) : 
        Dipole               -0.4022 Ry au,         -1.0224 Debye
        Dipole field         -0.0002 Ry au, 
 
        Potential amp.        0.0264 Ry
        Total length         54.7057 bohr
 

     total cpu time spent up to now is      822.7 secs

     total energy              =   -8078.55676742 Ry
     estimated scf accuracy    <       0.02542291 Ry

     total magnetization       =    97.23 Bohr mag/cell
     absolute magnetization    =    98.32 Bohr mag/cell

     iteration # 50     ecut=    50.00 Ry     beta= 0.10
     Davidson diagonalization with overlap
     ethr =  2.19E-06,  avg # of iterations =  2.5

     negative rho (up, down):  2.663E-05 3.527E-05
 
     Adding external electric field

     Computed dipole along edir(3) : 
        Dipole               -0.3888 Ry au,         -0.9881 Debye
        Dipole field         -0.0002 Ry au, 
 
        Potential amp.        0.0255 Ry
        Total length         54.7057 bohr
 
 
     Adding external electric field

     Computed dipole along edir(3) : 
        Dipole               -0.3888 Ry au,         -0.9881 Debye
        Dipole field         -0.0002 Ry au, 
 
        Potential amp.        0.0255 Ry
        Total length         54.7057 bohr
 

     total cpu time spent up to now is      839.6 secs

     total energy              =   -8078.55670949 Ry
     estimated scf accuracy    <       0.02330221 Ry

     total magnetization       =    97.20 Bohr mag/cell
     absolute magnetization    =    98.31 Bohr mag/cell

     iteration # 51     ecut=    50.00 Ry     beta= 0.10
     Davidson diagonalization with overlap
     ethr =  2.10E-06,  avg # of iterations =  1.5

     negative rho (up, down):  7.564E-05 9.266E-05
 
     Adding external electric field

     Computed dipole along edir(3) : 
        Dipole               -0.3728 Ry au,         -0.9476 Debye
        Dipole field         -0.0002 Ry au, 
 
        Potential amp.        0.0245 Ry
        Total length         54.7057 bohr
 
 
     Adding external electric field

     Computed dipole along edir(3) : 
        Dipole               -0.3728 Ry au,         -0.9476 Debye
        Dipole field         -0.0002 Ry au, 
 
        Potential amp.        0.0245 Ry
        Total length         54.7057 bohr
 

     total cpu time spent up to now is      856.7 secs

     total energy              =   -8078.55654315 Ry
     estimated scf accuracy    <       0.02117986 Ry

     total magnetization       =    97.26 Bohr mag/cell
     absolute magnetization    =    98.36 Bohr mag/cell

     iteration # 52     ecut=    50.00 Ry     beta= 0.10
     Davidson diagonalization with overlap
     ethr =  1.91E-06,  avg # of iterations =  1.5

     negative rho (up, down):  9.666E-05 1.143E-04
 
     Adding external electric field

     Computed dipole along edir(3) : 
        Dipole               -0.3438 Ry au,         -0.8738 Debye
        Dipole field         -0.0002 Ry au, 
 
        Potential amp.        0.0225 Ry
        Total length         54.7057 bohr
 
 
     Adding external electric field

     Computed dipole along edir(3) : 
        Dipole               -0.3438 Ry au,         -0.8738 Debye
        Dipole field         -0.0002 Ry au, 
 
        Potential amp.        0.0225 Ry
        Total length         54.7057 bohr
 

     total cpu time spent up to now is      873.6 secs

     total energy              =   -8078.55628301 Ry
     estimated scf accuracy    <       0.01862971 Ry

     total magnetization       =    97.23 Bohr mag/cell
     absolute magnetization    =    98.35 Bohr mag/cell

     iteration # 53     ecut=    50.00 Ry     beta= 0.10
     Davidson diagonalization with overlap
     ethr =  1.68E-06,  avg # of iterations =  1.0

     negative rho (up, down):  5.219E-05 8.413E-05
 
     Adding external electric field

     Computed dipole along edir(3) : 
        Dipole               -0.3546 Ry au,         -0.9014 Debye
        Dipole field         -0.0002 Ry au, 
 
        Potential amp.        0.0233 Ry
        Total length         54.7057 bohr
 
 
     Adding external electric field

     Computed dipole along edir(3) : 
        Dipole               -0.3546 Ry au,         -0.9014 Debye
        Dipole field         -0.0002 Ry au, 
 
        Potential amp.        0.0233 Ry
        Total length         54.7057 bohr
 

     total cpu time spent up to now is      888.8 secs

     total energy              =   -8078.55609148 Ry
     estimated scf accuracy    <       0.01695771 Ry

     total magnetization       =    97.32 Bohr mag/cell
     absolute magnetization    =    98.46 Bohr mag/cell

     iteration # 54     ecut=    50.00 Ry     beta= 0.10
     Davidson diagonalization with overlap
     ethr =  1.53E-06,  avg # of iterations =  1.5

     negative rho (up, down):  5.997E-05 1.099E-04
 
     Adding external electric field

     Computed dipole along edir(3) : 
        Dipole               -0.3235 Ry au,         -0.8221 Debye
        Dipole field         -0.0002 Ry au, 
 
        Potential amp.        0.0212 Ry
        Total length         54.7057 bohr
 
 
     Adding external electric field

     Computed dipole along edir(3) : 
        Dipole               -0.3235 Ry au,         -0.8221 Debye
        Dipole field         -0.0002 Ry au, 
 
        Potential amp.        0.0212 Ry
        Total length         54.7057 bohr
 

     total cpu time spent up to now is      905.6 secs

     total energy              =   -8078.55539827 Ry
     estimated scf accuracy    <       0.01563890 Ry

     total magnetization       =    97.23 Bohr mag/cell
     absolute magnetization    =    98.38 Bohr mag/cell

     iteration # 55     ecut=    50.00 Ry     beta= 0.10
     Davidson diagonalization with overlap
     ethr =  1.41E-06,  avg # of iterations =  1.5

     negative rho (up, down):  6.395E-05 1.019E-04
 
     Adding external electric field

     Computed dipole along edir(3) : 
        Dipole               -0.3017 Ry au,         -0.7669 Debye
        Dipole field         -0.0002 Ry au, 
 
        Potential amp.        0.0198 Ry
        Total length         54.7057 bohr
 
 
     Adding external electric field

     Computed dipole along edir(3) : 
        Dipole               -0.3017 Ry au,         -0.7669 Debye
        Dipole field         -0.0002 Ry au, 
 
        Potential amp.        0.0198 Ry
        Total length         54.7057 bohr
 

     total cpu time spent up to now is      920.7 secs

     total energy              =   -8078.55523675 Ry
     estimated scf accuracy    <       0.01455463 Ry

     total magnetization       =    97.23 Bohr mag/cell
     absolute magnetization    =    98.36 Bohr mag/cell

     iteration # 56     ecut=    50.00 Ry     beta= 0.10
     Davidson diagonalization with overlap
     ethr =  1.31E-06,  avg # of iterations =  2.0

     negative rho (up, down):  7.861E-05 9.769E-05
 
     Adding external electric field

     Computed dipole along edir(3) : 
        Dipole               -0.2587 Ry au,         -0.6576 Debye
        Dipole field         -0.0002 Ry au, 
 
        Potential amp.        0.0170 Ry
        Total length         54.7057 bohr
 
 
     Adding external electric field

     Computed dipole along edir(3) : 
        Dipole               -0.2587 Ry au,         -0.6576 Debye
        Dipole field         -0.0002 Ry au, 
 
        Potential amp.        0.0170 Ry
        Total length         54.7057 bohr
 

     total cpu time spent up to now is      936.7 secs

     total energy              =   -8078.55509957 Ry
     estimated scf accuracy    <       0.01356241 Ry

     total magnetization       =    97.24 Bohr mag/cell
     absolute magnetization    =    98.35 Bohr mag/cell

     iteration # 57     ecut=    50.00 Ry     beta= 0.10
     Davidson diagonalization with overlap
     ethr =  1.22E-06,  avg # of iterations =  2.0

     negative rho (up, down):  1.073E-04 1.189E-04
 
     Adding external electric field

     Computed dipole along edir(3) : 
        Dipole               -0.2407 Ry au,         -0.6117 Debye
        Dipole field         -0.0001 Ry au, 
 
        Potential amp.        0.0158 Ry
        Total length         54.7057 bohr
 
 
     Adding external electric field

     Computed dipole along edir(3) : 
        Dipole               -0.2407 Ry au,         -0.6117 Debye
        Dipole field         -0.0001 Ry au, 
 
        Potential amp.        0.0158 Ry
        Total length         54.7057 bohr
 

     total cpu time spent up to now is      951.9 secs

     total energy              =   -8078.55509540 Ry
     estimated scf accuracy    <       0.01335083 Ry

     total magnetization       =    97.24 Bohr mag/cell
     absolute magnetization    =    98.35 Bohr mag/cell

     iteration # 58     ecut=    50.00 Ry     beta= 0.10
     Davidson diagonalization with overlap
     ethr =  1.20E-06,  avg # of iterations =  2.0

     negative rho (up, down):  2.425E-05 2.700E-05
 
     Adding external electric field

     Computed dipole along edir(3) : 
[...]
    -5.9876  -5.9836  -5.9543  -5.9320  -5.8961  -5.8817  -5.8580  -5.8477
    -5.8177  -5.8098  -5.7961  -5.7624  -5.7551  -5.7393  -5.7115  -5.6807
    -5.6695  -5.6411  -5.6326  -5.6117  -5.5770  -5.5658  -5.5627  -5.5360
    -5.5180  -5.5149  -5.4804  -5.4707  -5.4648  -5.4577  -5.3910  -5.3741
    -5.3608  -5.3126  -5.3005  -5.2839  -5.2351  -5.2034  -5.1732  -5.1696
    -5.1489  -5.1018  -5.0989  -4.9983  -4.9630  -4.9581  -4.9492  -4.9144
    -4.8902  -4.8620  -4.8026  -4.7971  -4.7886  -4.7300  -4.7172  -4.7048
    -4.6560  -4.6007  -4.5796  -4.5648  -4.5086  -4.4689  -4.4499  -4.3927
    -4.3747  -4.3546  -4.3206  -4.2948  -4.2685  -4.2487  -4.2001  -4.1863
    -4.1342  -4.1078  -4.0936  -4.0540  -4.0439  -4.0083  -3.9971  -3.9604
    -3.8704  -3.8658  -3.8309  -3.8065  -3.8015  -3.7747  -3.7493  -3.7195
    -3.7096  -3.6999  -3.6726  -3.6174  -3.6092  -3.5892  -3.5787  -3.5710
    -3.5479  -3.5368  -3.5014  -3.4975  -3.4871  -3.4843  -3.4432  -3.4270
    -3.4086  -3.3962  -3.3940  -3.3701  -3.3306  -3.3236  -3.3092  -3.2988
    -3.2891  -3.2844  -3.2635  -3.2422  -3.2243  -3.1918  -3.1770  -3.1481
    -3.1356  -3.1010  -3.0544  -3.0331  -3.0265  -3.0164  -3.0030  -2.9818
    -2.9793  -2.9692  -2.9463  -2.8996  -2.8775  -2.8651  -2.8392  -2.8109
    -2.7995  -2.7782  -2.7239  -2.7109  -2.6981  -2.6911  -2.6775  -2.6603
    -2.6572  -2.6393  -2.6312  -2.6113  -2.5948  -2.5938  -2.5854  -2.5763
    -2.5556  -2.5480  -2.5292  -2.5188  -2.4983  -2.4897  -2.4803  -2.4420
    -2.4299  -2.4189  -2.3840  -2.3684  -2.3496  -2.3410  -2.3232  -2.3032
    -2.2859  -2.2834  -2.2653  -2.2552  -2.2183  -2.2079  -2.1879  -2.1823
    -2.1565  -2.1248  -2.1037  -2.0875  -2.0836  -2.0634  -2.0483  -2.0279
    -2.0160  -1.9893  -1.9749  -1.9578  -1.9321  -1.9152  -1.9084  -1.8819
    -1.8689  -1.8593  -1.8446  -1.8399  -1.8305  -1.7968  -1.7619  -1.7483
    -1.7380  -1.7168  -1.7002  -1.6901  -1.6677  -1.6499  -1.6016  -1.5912
    -1.5700  -1.5581  -1.5276  -1.5166  -1.4968  -1.4857  -1.4715  -1.4559
    -1.4347  -1.4305  -1.4094  -1.3801  -1.3723  -1.3514  -1.3217  -1.3036
    -1.2959  -1.2893  -1.2310  -1.2056  -1.1853  -1.1512  -1.1413  -1.1352
    -1.0760  -1.0692  -0.9996  -0.9683  -0.9424  -0.8207  -0.8115  -0.7699
    -0.7048  -0.6801  -0.6708  -0.4868  -0.3382  -0.2762  -0.2150  -0.1751
     0.1826   0.1939   0.2400   0.2507   0.2588   0.2674   0.2735   0.3006
     0.3378   0.3518   0.3824   0.3927   0.3963   0.3979   0.3994   0.4107
     0.4161   0.4248   0.4415   0.4463   0.4527   0.4637   0.4695   0.4728
     0.4748   0.4851   0.4942   0.5034   0.5137   0.5218   0.5277   0.5378
     0.5465   0.5525   0.5789   0.5842   0.5861   0.5879   0.5953   0.6062
     0.6161   0.6235   0.6370   0.6431   0.6505   0.6637   0.6709   0.6797
     0.6920   0.7052   0.7111   0.7185   0.7274   0.7345   0.7390   0.7539
     0.7645   0.7768   0.7925   0.7933   0.8080   0.8150   0.8165   0.8253
     0.8342   0.8494   0.8635   0.8679   0.8782   0.8891   0.9103   0.9436
     0.9526   0.9950   1.0066   1.0233   1.0361   1.1033   1.1694   1.2194
     1.7026   1.7698   1.7807   1.7879   1.8131   1.8181   1.8418   1.8629
     1.8911   1.9037   1.9204   1.9298   1.9579   1.9774   2.0158   2.0459
     2.0537   2.0695   2.0915   2.0958   2.1209   2.1275   2.1464   2.1666
     2.1874   2.2011   2.2124   2.2368   2.2426   2.2818   2.2951   2.3069
     2.3357   2.3380   2.3476   2.3638   2.3826   2.3869   2.4198   2.4350
     2.4572   2.4750   2.4856   2.5296   2.5364   2.5477   2.5811   2.6077
     2.6476   2.6554   2.7582   2.7827   2.8194   2.8385   2.8948   3.4952
     3.5711   3.6751   3.7198   3.7438   3.7695   3.7899   3.7950   3.9152
     3.9246   3.9510   3.9776   3.9884   3.9920   3.9997   4.0024   4.0558
     4.0633   4.0822   4.0892   4.1229   4.1514   4.1617   4.2072   4.2256
     4.2355   4.2438   4.2502   4.2682   4.3141   4.6046   4.6964   4.7813
     4.8099   4.8631   4.8959   4.9148   4.9778   4.9988   5.0246   5.0714
     5.1039   5.1095   5.1425   5.1776   5.2209   5.2328   5.3832   6.2072
     6.3413   6.4483   6.5320   6.6867   6.7093   6.7797   6.8465   6.9010
     6.9375   6.9903   7.0104   7.0546   7.2475   7.2949   7.3120   7.3700
     7.4105   7.4225   7.5113   7.5195   7.5623   7.6579   7.7035   7.7592
     7.8248   7.8402   7.9136   7.9342   7.9471   8.0070   8.0219   8.0710
     8.0827   8.1083   8.1213   8.1407   8.1755   8.2508   8.2794   8.2939
     8.3269   8.3477   8.3764   8.3875   8.3948   8.4285   8.4429   8.4499
     8.4689   8.4984   8.5057   8.5525   8.5711   8.6034   8.6113   8.6298
     8.6402

     the Fermi energy is     1.6945 ev

!    total energy              =   -8078.55366108 Ry
     estimated scf accuracy    <       0.00000098 Ry
     smearing contrib. (-TS)   =      -0.02585522 Ry
     internal energy E=F+TS    =   -8078.52780586 Ry

     The total energy is F=E-TS. E is the sum of the following terms:
     one-electron contribution =  -94603.11205163 Ry
     hartree contribution      =   47886.13097162 Ry
     xc contribution           =   -2177.37376828 Ry
     ewald contribution        =   40817.59530135 Ry
     Dispersion Correction     =      -1.76831537 Ry
     electric field correction =       0.00005646 Ry

     total magnetization       =    97.20 Bohr mag/cell
     absolute magnetization    =    98.40 Bohr mag/cell

     convergence has been achieved in  81 iterations

     negative rho (up, down):  1.156E-03 6.234E-04

     Forces acting on atoms (cartesian axes, Ry/au):

     atom    1 type  1   force =    -0.00065430    0.00111636    0.00113565
     atom    2 type  1   force =    -0.00002210    0.00014594   -0.00026433
     atom    3 type  2   force =    -0.00003828    0.00076591   -0.00059265
     atom    4 type  1   force =    -0.00022119    0.00010166    0.00016131
     atom    5 type  1   force =     0.00018226    0.00019135    0.00019845
     atom    6 type  1   force =    -0.00048960    0.00048808   -0.00003616
     atom    7 type  1   force =    -0.00051865    0.00041546   -0.00007362
     atom    8 type  2   force =     0.00043143    0.00032192    0.00019422
     atom    9 type  2   force =    -0.00001393   -0.00006044   -0.00013212
     atom   10 type  1   force =    -0.00010418   -0.00002046    0.00029286
     atom   11 type  1   force =     0.00089274   -0.00034786   -0.00020276
     atom   12 type  1   force =    -0.00052249    0.00009952    0.00018634
     atom   13 type  3   force =     0.00012678    0.00001432    0.00010318
     atom   14 type  3   force =    -0.00027948   -0.00035204    0.00022095
     atom   15 type  3   force =    -0.00052037    0.00012129    0.00044228
     atom   16 type  3   force =     0.00009376    0.00010855   -0.00004042
     atom   17 type  4   force =    -0.00008498    0.00017064    0.00009447
     atom   18 type  4   force =    -0.00046305   -0.00060403   -0.00007386
     atom   19 type  4   force =    -0.00039328   -0.00021819   -0.00075178
     atom   20 type  4   force =    -0.00001078   -0.00024305   -0.00024515
     atom   21 type  4   force =     0.00007479    0.00014405    0.00001756
     atom   22 type  4   force =    -0.00055165    0.00037404    0.00065514
     atom   23 type  4   force =     0.00046911    0.00013130    0.00051805
     atom   24 type  4   force =    -0.00003553    0.00022189    0.00009748
     atom   25 type  4   force =     0.00021459    0.00021440    0.00016742
     atom   26 type  4   force =     0.00018973   -0.00015201   -0.00014376
     atom   27 type  4   force =     0.00004391   -0.00004546    0.00028096
     atom   28 type  4   force =    -0.00033124   -0.00025655   -0.00060693
     atom   29 type  4   force =     0.00003943    0.00007081    0.00024926
     atom   30 type  4   force =    -0.00020908   -0.00037686   -0.00046534
     atom   31 type  4   force =    -0.00009833    0.00004137    0.00035885
     atom   32 type  4   force =    -0.00013041    0.00031246    0.00007295
     atom   33 type  3   force =    -0.00044418    0.00016705    0.00004456
     atom   34 type  3   force =     0.00016788   -0.00045166   -0.00020132
     atom   35 type  3   force =    -0.00087793   -0.00053102   -0.00002868
     atom   36 type  3   force =    -0.00013864   -0.00010942    0.00007140
     atom   37 type  4   force =    -0.00015413    0.00016390    0.00015858
     atom   38 type  4   force =    -0.00029974   -0.00052559   -0.00010374
     atom   39 type  4   force =     0.00002364   -0.00052865    0.00000906
     atom   40 type  4   force =    -0.00002426   -0.00030328    0.00005069
     atom   41 type  4   force =    -0.00007613    0.00021239    0.00022917
     atom   42 type  4   force =     0.00016364    0.00082401   -0.00000021
     atom   43 type  4   force =     0.00087760    0.00060730    0.00038031
     atom   44 type  4   force =    -0.00030646    0.00012538    0.00027363
     atom   45 type  4   force =     0.00007840    0.00017794   -0.00005099
     atom   46 type  4   force =    -0.00021202   -0.00002961   -0.00022026
     atom   47 type  4   force =    -0.00000846   -0.00024089   -0.00013945
     atom   48 type  4   force =    -0.00016929   -0.00003138   -0.00005851
     atom   49 type  4   force =    -0.00029462    0.00023299    0.00015259
     atom   50 type  4   force =    -0.00018332   -0.00055192   -0.00012991
     atom   51 type  4   force =    -0.00016816    0.00003997    0.00018721
     atom   52 type  4   force =    -0.00003816    0.00038361    0.00001281
     atom   53 type  1   force =    -0.00035674    0.00104126    0.00308313
     atom   54 type  1   force =     0.00091268    0.00046185   -0.00147630
     atom   55 type  2   force =     0.00161732    0.00118322    0.00586668
     atom   56 type  1   force =    -0.00060208   -0.00102120   -0.00120041
     atom   57 type  1   force =     0.00035237    0.00014948    0.00006575
     atom   58 type  1   force =    -0.00002710    0.00019728    0.00008646
     atom   59 type  1   force =     0.00215420   -0.00091806   -0.00098505
     atom   60 type  2   force =    -0.00003807    0.00011798   -0.00170494
     atom   61 type  2   force =     0.00054692    0.00078823    0.00427758
     atom   62 type  1   force =    -0.00044248   -0.00081042   -0.00141782
     atom   63 type  1   force =    -0.00030936    0.00025315   -0.00003637
     atom   64 type  1   force =     0.00009470   -0.00005748    0.00020534
     atom   65 type  3   force =    -0.00020843   -0.00101376   -0.00207945
     atom   66 type  3   force =    -0.00029304    0.00038408    0.00115386
     atom   67 type  3   force =    -0.00021211   -0.00151122    0.00161813
     atom   68 type  3   force =    -0.00071843    0.00082344   -0.00092808
     atom   69 type  4   force =    -0.00071659    0.00039609    0.00070531
     atom   70 type  4   force =     0.00059949   -0.00072206   -0.00105492
     atom   71 type  4   force =     0.00043144    0.00049191   -0.00025746
     atom   72 type  4   force =     0.00021678   -0.00048171    0.00161532
     atom   73 type  4   force =    -0.00082035    0.00068146    0.00169073
     atom   74 type  4   force =     0.00150831   -0.00269329   -0.00233152
     atom   75 type  4   force =    -0.00176663    0.00059299   -0.00000972
     atom   76 type  4   force =     0.00008394   -0.00071020    0.00147778
     atom   77 type  4   force =    -0.00048939   -0.00008442    0.00062529
     atom   78 type  4   force =    -0.00101580    0.00071961   -0.00012160
     atom   79 type  4   force =     0.00030017    0.00024432    0.00065479
     atom   80 type  4   force =     0.00022813    0.00102589   -0.00019876
     atom   81 type  4   force =    -0.00044532   -0.00154476   -0.00098935
     atom   82 type  4   force =     0.00101200   -0.00148489    0.00082059
     atom   83 type  4   force =    -0.00006263    0.00076588    0.00040659
     atom   84 type  4   force =    -0.00057066    0.00030149    0.00056952
     atom   85 type  3   force =    -0.00028312   -0.00089376   -0.00261830
     atom   86 type  3   force =     0.00078066    0.00183685    0.00362410
     atom   87 type  3   force =    -0.00054070   -0.00061512   -0.00026300
     atom   88 type  3   force =    -0.00068584    0.00085785   -0.00078427
     atom   89 type  4   force =    -0.00010118   -0.00013457    0.00045361
     atom   90 type  4   force =    -0.00050799   -0.00037760   -0.00122560
     atom   91 type  4   force =     0.00029613    0.00024853   -0.00025597
     atom   92 type  4   force =     0.00034628   -0.00039488    0.00115503
     atom   93 type  4   force =    -0.00007076    0.00118765    0.00103215
     atom   94 type  4   force =     0.00177939    0.00072351    0.00318962
     atom   95 type  4   force =    -0.00036526   -0.00002353   -0.00022987
     atom   96 type  4   force =    -0.00023123   -0.00026531    0.00118180
     atom   97 type  4   force =    -0.00002486   -0.00060735    0.00075463
     atom   98 type  4   force =    -0.00042135    0.00059972   -0.00006357
     atom   99 type  4   force =     0.00063502   -0.00011152    0.00075767
     atom  100 type  4   force =     0.00082556    0.00071260   -0.00025145
     atom  101 type  4   force =    -0.00028492   -0.00082540   -0.00071070
     atom  102 type  4   force =     0.00138038   -0.00181121    0.00042826
     atom  103 type  4   force =     0.00044514    0.00024988    0.00032469
     atom  104 type  4   force =    -0.00006239   -0.00054890   -0.00009194
     atom  105 type  1   force =    -0.00061930    0.00218444   -0.00681902
     atom  106 type  1   force =     0.02836807    0.01369103    0.02189451
     atom  107 type  2   force =     0.00168758    0.00011595   -0.01063396
     atom  108 type  1   force =    -0.03106119    0.02306980    0.01674652
     atom  109 type  1   force =     0.00409818   -0.00268686   -0.00349066
     atom  110 type  1   force =    -0.00120480   -0.00669178   -0.00573014
     atom  111 type  1   force =    -0.00388414    0.00253702   -0.00604705
     atom  112 type  2   force =     0.03223971    0.01647250   -0.01051610
     atom  113 type  2   force =     0.00152389    0.00092094   -0.01030872
     atom  114 type  1   force =    -0.03201449    0.02433136    0.01767505
     atom  115 type  1   force =     0.00360387   -0.00466537   -0.00448566
     atom  116 type  1   force =    -0.00504203   -0.00829653   -0.00685702
     atom  117 type  3   force =    -0.02899253   -0.03569364   -0.06275390
     atom  118 type  3   force =     0.00317582    0.00037145   -0.00691606
     atom  119 type  3   force =     0.00072013   -0.00065706   -0.00911427
     atom  120 type  3   force =     0.02795728   -0.05774312   -0.08372119
     atom  121 type  4   force =    -0.00651618   -0.00319088    0.03045569
     atom  122 type  4   force =    -0.00141599   -0.00114153    0.00260956
     atom  123 type  4   force =     0.00154529   -0.00105966    0.00491801
     atom  124 type  4   force =     0.00352078    0.00316998    0.03395149
     atom  125 type  4   force =    -0.00224912   -0.00224022    0.03412071
     atom  126 type  4   force =    -0.00085961    0.00069341    0.00301335
     atom  127 type  4   force =     0.00217521    0.00311684    0.00429549
     atom  128 type  4   force =    -0.00317858   -0.00166746    0.02239108
     atom  129 type  4   force =    -0.01251188    0.03633884    0.00495364
     atom  130 type  4   force =    -0.00149113    0.00037798    0.00234196
     atom  131 type  4   force =    -0.01934284    0.00356843    0.00994313
     atom  132 type  4   force =    -0.00105708    0.00355812    0.00433137
     atom  133 type  4   force =    -0.00285309    0.00062485    0.00241568
     atom  134 type  4   force =     0.00146897   -0.00437383    0.00351742
     atom  135 type  4   force =     0.01383791    0.02352279   -0.00090003
     atom  136 type  4   force =     0.01312408   -0.00063930    0.00240205
     atom  137 type  3   force =    -0.03817920   -0.04125896   -0.06616517
     atom  138 type  3   force =     0.00645625   -0.00301234   -0.00137279
     atom  139 type  3   force =     0.00028211   -0.00156292   -0.00937485
     atom  140 type  3   force =     0.02903898   -0.05117727   -0.08328332
     atom  141 type  4   force =    -0.00101891    0.00278187    0.02928846
     atom  142 type  4   force =     0.00045171    0.00236896   -0.00628534
     atom  143 type  4   force =     0.00160055   -0.00090163    0.00430616
     atom  144 type  4   force =     0.00418198    0.00186013    0.03454796
     atom  145 type  4   force =     0.00899666    0.00388365    0.03130758
     atom  146 type  4   force =    -0.00035030    0.00057201    0.00178277
     atom  147 type  4   force =     0.00268147    0.00343150    0.00394523
     atom  148 type  4   force =    -0.00398365   -0.00131283    0.02234900
     atom  149 type  4   force =    -0.01001495    0.03007638    0.00426145
     atom  150 type  4   force =    -0.00193550    0.00045531    0.00279006
     atom  151 type  4   force =    -0.01845375    0.00503370    0.00990354
     atom  152 type  4   force =    -0.00079079    0.00345771    0.00431723
     atom  153 type  4   force =    -0.00133094    0.00025547    0.00296434
     atom  154 type  4   force =     0.00211404   -0.00256269    0.00283708
     atom  155 type  4   force =     0.01479335    0.02452588    0.00017906
     atom  156 type  4   force =     0.02230405   -0.00366077    0.00143162
     atom  157 type  4   force =    -0.00714896   -0.00755994    0.00003336
     atom  158 type  5   force =     0.00669950    0.00648920   -0.00243979

     Total force =     0.238050     Total SCF correction =     0.003891
 
     init_run     :      9.40s CPU     10.08s WALL (       1 calls)
     electrons    :   1318.99s CPU   1380.09s WALL (       1 calls)
     forces       :      4.60s CPU      4.99s WALL (       1 calls)
     force_london :      0.13s CPU      0.13s WALL (       1 calls)

     Called by init_run:
     wfcinit      :      5.87s CPU      6.05s WALL (       1 calls)
     potinit      :      0.59s CPU      0.78s WALL (       1 calls)
     hinit0       :      1.57s CPU      1.67s WALL (       1 calls)

     Called by electrons:
     c_bands      :   1037.24s CPU   1069.15s WALL (      81 calls)
     sum_band     :    178.13s CPU    193.37s WALL (      81 calls)
     v_of_rho     :     24.57s CPU     25.79s WALL (      82 calls)
     newd         :     49.72s CPU     62.21s WALL (      82 calls)
     mix_rho      :     27.97s CPU     28.40s WALL (      81 calls)
     energy_londo :      0.10s CPU      0.10s WALL (       1 calls)

     Called by c_bands:
     init_us_2    :      3.20s CPU      3.26s WALL (     328 calls)
     init_us_2:cp :      3.20s CPU      3.26s WALL (     328 calls)
     regterg      :   1016.56s CPU   1048.14s WALL (     164 calls)

     Called by *egterg:
     rdiaghg      :    283.19s CPU    298.25s WALL (     640 calls)
     h_psi        :    417.76s CPU    425.53s WALL (     642 calls)
     s_psi        :     69.35s CPU     69.40s WALL (     642 calls)
     g_psi        :      0.52s CPU      0.52s WALL (     476 calls)

     Called by h_psi:
     h_psi:calbec :     97.12s CPU    103.18s WALL (     642 calls)
     vloc_psi     :    249.59s CPU    250.52s WALL (     642 calls)
     add_vuspsi   :     69.90s CPU     70.66s WALL (     642 calls)

     General routines
     calbec       :    143.59s CPU    152.68s WALL (     812 calls)
     fft          :     24.29s CPU     26.20s WALL (    1489 calls)
     ffts         :     16.78s CPU     16.81s WALL (   10085 calls)
     fftw         :    278.14s CPU    279.15s WALL (  279854 calls)
     interpolate  :      1.86s CPU      1.94s WALL (     164 calls)
 
     Parallel routines
 
     PWSCF        :  22m16.17s CPU  23m18.81s WALL

 
   This run was terminated on:  22: 3: 2  17Nov2025            

=------------------------------------------------------------------------------=
   JOB DONE.
=------------------------------------------------------------------------------=
