
     Program PWSCF v.7.2 starts on 18Nov2025 at  1:21: 1 

     This program is part of the open-source Quantum ESPRESSO suite
     for quantum simulation of materials; please cite
         "P. Giannozzi et al., J. Phys.:Condens. Matter 21 395502 (2009);
         "P. Giannozzi et al., J. Phys.:Condens. Matter 29 465901 (2017);
         "P. Giannozzi et al., J. Chem. Phys. 152 154105 (2020);
          URL http://www.quantum-espresso.org", 
     in publications or presentations arising from this work. More details at
     http://www.quantum-espresso.org/quote

     Parallel version (MPI), running on    64 processors

     MPI processes distributed on     4 nodes
     379836 MiB available memory on the printing compute node when the environment starts
 
     Reading input from PWINPUT_atm158_zp

     Current dimensions of program PWSCF are:
     Max number of different atomic species (ntypx) = 10
     Max number of k-points (npk) =  40000
     Max angular momentum in pseudopotentials (lmaxx) =  4
     Presently no symmetry can be used with electric field

     file Ni.pbe-n-rrkjus_psl.1.0.0.UPF: wavefunction(s)  3D renormalized
     file Mn.pbe-spn-rrkjus_psl.0.3.1.UPF: wavefunction(s)  3D renormalized
     file O.pbe-rrkjus.UPF: wavefunction(s)  2S renormalized
     file H.pbe-rrkjus.UPF: wavefunction(s)  1S renormalized

     gamma-point specific algorithms are used
 
     R & G space division:  proc/nbgrp/npool/nimage =      64
     Subspace diagonalization in iterative solution of the eigenvalue problem:
     one sub-group per band group will be used
     custom distributed-memory algorithm (size of sub-group:  7*  7 procs)

 
     Parallelization info
     --------------------
     sticks:   dense  smooth     PW     G-vecs:    dense   smooth      PW
     Min         214      85     20                61830    15614    1928
     Max         216      86     22                61864    15658    1982
     Sum       13727    5503   1375              3958051  1001255  125211
 
     Using Slab Decomposition
 


     bravais-lattice index     =            0
     lattice parameter (alat)  =      17.8532  a.u.
     unit-cell volume          =   20962.6682 (a.u.)^3
     number of atoms/cell      =          158
     number of atomic types    =            5
     number of electrons       =      1108.00
     number of Kohn-Sham states=          665
     kinetic-energy cutoff     =      50.0000  Ry
     charge density cutoff     =     500.0000  Ry
     scf convergence threshold =      1.0E-06
     mixing beta               =       0.1000
     number of iterations used =            8  local-TF  mixing
     Exchange-correlation=  SLA  PW   PBE  PBE
                           (   1   4   3   4   0   0   0)

     celldm(1)=  17.853155  celldm(2)=   0.000000  celldm(3)=   0.000000
     celldm(4)=   0.000000  celldm(5)=   0.000000  celldm(6)=   0.000000

     crystal axes: (cart. coord. in units of alat)
               a(1) = (   1.000000   0.000000   0.000000 )  
               a(2) = (   0.003237   1.081997   0.000000 )  
               a(3) = (   0.000000   0.000000   3.404673 )  

     reciprocal axes: (cart. coord. in units 2 pi/alat)
               b(1) = (  1.000000 -0.002992  0.000000 )  
               b(2) = (  0.000000  0.924217  0.000000 )  
               b(3) = (  0.000000  0.000000  0.293714 )  


     PseudoPot. # 1 for Ni read from file:
     ~/PSEUDO/Ni.pbe-n-rrkjus_psl.1.0.0.UPF
     MD5 check sum: Not computed, couldn't open file
     Pseudo is Ultrasoft + core correction, Zval = 10.0
     Generated using "atomic" code by A. Dal Corso  v.5.1.2
     Using radial grid of 1195 points,  6 beta functions with: 
                l(1) =   0
                l(2) =   0
                l(3) =   1
                l(4) =   1
                l(5) =   2
                l(6) =   2
     Q(r) pseudized with 0 coefficients 


     PseudoPot. # 2 for Mn read from file:
     ~/PSEUDO/Mn.pbe-spn-rrkjus_psl.0.3.1.UPF
     MD5 check sum: Not computed, couldn't open file
     Pseudo is Ultrasoft + core correction, Zval = 15.0
     Generated using &quot;atomic&quot; code by A. Dal Corso  v.6.2.2
     Using radial grid of 1187 points,  6 beta functions with: 
                l(1) =   0
                l(2) =   0
                l(3) =   1
                l(4) =   1
                l(5) =   2
                l(6) =   2
     Q(r) pseudized with 0 coefficients 


     PseudoPot. # 3 for P  read from file:
     ~/PSEUDO/P.pbe-n-rrkjus_psl.1.0.0.UPF
     MD5 check sum: Not computed, couldn't open file
     Pseudo is Ultrasoft + core correction, Zval =  5.0
     Generated using "atomic" code by A. Dal Corso  v.5.1
     Using radial grid of 1147 points,  6 beta functions with: 
                l(1) =   0
                l(2) =   0
                l(3) =   1
                l(4) =   1
                l(5) =   2
                l(6) =   2
     Q(r) pseudized with 0 coefficients 


     PseudoPot. # 4 for O  read from file:
     ~/PSEUDO/O.pbe-rrkjus.UPF
     MD5 check sum: Not computed, couldn't open file
     Pseudo is Ultrasoft, Zval =  6.0
     Generated by new atomic code, or converted to UPF format
     Using radial grid of 1269 points,  4 beta functions with: 
                l(1) =   0
                l(2) =   0
                l(3) =   1
                l(4) =   1
     Q(r) pseudized with 0 coefficients 


     PseudoPot. # 5 for H  read from file:
     ~/PSEUDO/H.pbe-rrkjus.UPF
     MD5 check sum: Not computed, couldn't open file
     Pseudo is Ultrasoft, Zval =  1.0
     Generated by new atomic code, or converted to UPF format
     Using radial grid of 1061 points,  2 beta functions with: 
                l(1) =   0
                l(2) =   0
     Q(r) pseudized with 0 coefficients 


     atomic species   valence    mass     pseudopotential
     Ni               10.00    58.69300     Ni( 1.00)
     Mn               15.00    54.93800     Mn( 1.00)
     P                 5.00    30.97300     P ( 1.00)
     O                 6.00    15.99900     O ( 1.00)
     H                 1.00     1.00790     H ( 1.00)

     Starting magnetic structure 
     atomic species   magnetization
     Ni              1.000
     Mn              1.000
     P               1.000
     O               1.000
     H               0.000

     No symmetry found



   Cartesian axes

     site n.     atom                  positions (alat units)
         1        Ni     tau(   1) = (   0.2422259   0.8412654   1.7135021  )
         2        Ni     tau(   2) = (   0.4939939   0.7703882   1.3745235  )
         3        Mn     tau(   3) = (   0.0000622   0.2881594   1.6998608  )
         4        Ni     tau(   4) = (   0.2575438   0.2247311   1.3772755  )
         5        Ni     tau(   5) = (   1.0001613   1.0688286   1.5379356  )
         6        Ni     tau(   6) = (   0.2547438   0.5337506   1.5423852  )
         7        Ni     tau(   7) = (   0.7513156   0.8294534   1.6816756  )
         8        Mn     tau(   8) = (   0.9892084   0.7665403   1.3736225  )
         9        Mn     tau(   9) = (   0.4989277   0.2948958   1.6996914  )
        10        Ni     tau(  10) = (   0.7551301   0.2242805   1.3768936  )
        11        Ni     tau(  11) = (   0.4972159   1.0711780   1.5373138  )
        12        Ni     tau(  12) = (   0.7540948   0.5300080   1.5408646  )
        13        P      tau(  13) = (   0.2134946   0.9657767   1.3822356  )
        14        P      tau(  14) = (   0.4661089   0.6500297   1.6909232  )
        15        P      tau(  15) = (   0.2845404   0.0987020   1.6930817  )
        16        P      tau(  16) = (   0.0413508   0.4217554   1.3879311  )
        17        O      tau(  17) = (   0.1375837   0.8978226   1.5176406  )
        18        O      tau(  18) = (   0.3887107   0.7011557   1.5470611  )
        19        O      tau(  19) = (   0.3618628   0.1611333   1.5509837  )
        20        O      tau(  20) = (   0.1189827   0.3568247   1.5240423  )
        21        O      tau(  21) = (   0.1540234   0.8767886   1.2572786  )
        22        O      tau(  22) = (   0.4110393   0.7496192   1.8050939  )
        23        O      tau(  23) = (   0.3377663   0.1986516   1.8089954  )
        24        O      tau(  24) = (   0.0997683   0.3312674   1.2645563  )
        25        O      tau(  25) = (   0.0989528   0.5758934   1.3854866  )
        26        O      tau(  26) = (   0.3497729   1.0280907   1.6930286  )
        27        O      tau(  27) = (   0.3790282   0.4183038   1.3960614  )
        28        O      tau(  28) = (   0.1208846   0.1037110   1.6793767  )
        29        O      tau(  29) = (   0.1286718   0.6449077   1.6890912  )
        30        O      tau(  30) = (   0.4112377   0.4929637   1.7009712  )
        31        O      tau(  31) = (   0.1495635   0.0377931   1.3821793  )
        32        O      tau(  32) = (   0.3765682   0.9602194   1.3906658  )
        33        P      tau(  33) = (   0.7075432   0.9666523   1.3784783  )
        34        P      tau(  34) = (   0.9652203   0.6409374   1.7033271  )
        35        P      tau(  35) = (   0.7832453   0.0931683   1.6926874  )
        36        P      tau(  36) = (   0.5417589   0.4270160   1.3849132  )
        37        O      tau(  37) = (   0.6313395   0.8958630   1.5135851  )
        38        O      tau(  38) = (   0.8885617   0.6990470   1.5595003  )
        39        O      tau(  39) = (   0.8598518   0.1543399   1.5504633  )
        40        O      tau(  40) = (   0.6193560   0.3582236   1.5201696  )
        41        O      tau(  41) = (   0.6486466   0.8777050   1.2536013  )
        42        O      tau(  42) = (   0.9019443   0.7356849   1.8178004  )
        43        O      tau(  43) = (   0.8422733   0.1897880   1.8089519  )
        44        O      tau(  44) = (   0.6013153   0.3355234   1.2622316  )
        45        O      tau(  45) = (   0.6019813   0.5803347   1.3826084  )
        46        O      tau(  46) = (   0.8418205   1.0195119   1.6947938  )
        47        O      tau(  47) = (   0.8784115   0.4141755   1.3983387  )
        48        O      tau(  48) = (   0.6198107   0.1022917   1.6830133  )
        49        O      tau(  49) = (   0.6307259   0.6490344   1.6799765  )
        50        O      tau(  50) = (   0.9102631   0.4838853   1.7042751  )
        51        O      tau(  51) = (   0.6452681   0.0385369   1.3812216  )
        52        O      tau(  52) = (   0.8702745   0.9586382   1.3915595  )
        53        Ni     tau(  53) = (   0.2420320   0.8169913   1.0699082  )
        54        Ni     tau(  54) = (   0.4893084   0.7542727   0.7477128  )
        55        Mn     tau(  55) = (   0.0085152   0.2729728   1.0755565  )
        56        Ni     tau(  56) = (   0.2558246   0.2079345   0.7498450  )
        57        Ni     tau(  57) = (   0.9991959   1.0516583   0.9080455  )
        58        Ni     tau(  58) = (   0.2490231   0.5149840   0.9092594  )
        59        Ni     tau(  59) = (   0.7373131   0.8159965   1.0690453  )
        60        Mn     tau(  60) = (   0.9859093   0.7511625   0.7423903  )
        61        Mn     tau(  61) = (   0.5085552   0.2755447   1.0757185  )
        62        Ni     tau(  62) = (   0.7532989   0.2074622   0.7493279  )
        63        Ni     tau(  63) = (   0.4981517   1.0523018   0.9093468  )
        64        Ni     tau(  64) = (   0.7469109   0.5147379   0.9081681  )
        65        P      tau(  65) = (   0.2119924   0.9497675   0.7533413  )
        66        P      tau(  66) = (   0.4579509   0.6252695   1.0650744  )
        67        P      tau(  67) = (   0.2855349   0.0724244   1.0650326  )
        68        P      tau(  68) = (   0.0381112   0.4032615   0.7561117  )
        69        O      tau(  69) = (   0.1352995   0.8818598   0.8892857  )
        70        O      tau(  70) = (   0.3789570   0.6924463   0.9291468  )
        71        O      tau(  71) = (   0.3610496   0.1419327   0.9291660  )
        72        O      tau(  72) = (   0.1179700   0.3356534   0.8894858  )
        73        O      tau(  73) = (   0.1524325   0.8608343   0.6290918  )
        74        O      tau(  74) = (   0.3994952   0.7128748   1.1905493  )
        75        O      tau(  75) = (   0.3426976   0.1634744   1.1889742  )
        76        O      tau(  76) = (   0.0989151   0.3155758   0.6321220  )
        77        O      tau(  77) = (   0.0942206   0.5581494   0.7569623  )
        78        O      tau(  78) = (   0.3506297   1.0014456   1.0645371  )
        79        O      tau(  79) = (   0.3750155   0.3983181   0.7655049  )
        80        O      tau(  80) = (   0.1228303   0.0764842   1.0543924  )
        81        O      tau(  81) = (   0.1204299   0.6293201   1.0530905  )
        82        O      tau(  82) = (   0.4000664   0.4708612   1.0626359  )
        83        O      tau(  83) = (   0.1483182   0.0216333   0.7546099  )
        84        O      tau(  84) = (   0.3748687   0.9435072   0.7627918  )
        85        P      tau(  85) = (   0.7056901   0.9492898   0.7521526  )
        86        P      tau(  86) = (   0.9575286   0.6220438   1.0623609  )
        87        P      tau(  87) = (   0.7847866   0.0710549   1.0641979  )
        88        P      tau(  88) = (   0.5377283   0.4083400   0.7551622  )
        89        O      tau(  89) = (   0.6295714   0.8788409   0.8879407  )
        90        O      tau(  90) = (   0.8781778   0.6902700   0.9288966  )
        91        O      tau(  91) = (   0.8603186   0.1398018   0.9279591  )
        92        O      tau(  92) = (   0.6174712   0.3389159   0.8881839  )
        93        O      tau(  93) = (   0.6471291   0.8583376   0.6285166  )
        94        O      tau(  94) = (   0.8962302   0.7094244   1.1861651  )
        95        O      tau(  95) = (   0.8420493   0.1616933   1.1885419  )
        96        O      tau(  96) = (   0.5995227   0.3203391   0.6315608  )
        97        O      tau(  97) = (   0.5932354   0.5636910   0.7569738  )
        98        O      tau(  98) = (   0.8487155   0.9994995   1.0634446  )
        99        O      tau(  99) = (   0.8751772   0.3959680   0.7655094  )
       100        O      tau( 100) = (   0.6223291   0.0767949   1.0539182  )
       101        O      tau( 101) = (   0.6209785   0.6292365   1.0537708  )
       102        O      tau( 102) = (   0.9010178   0.4674118   1.0608723  )
       103        O      tau( 103) = (   0.6430869   0.0213354   0.7538098  )
       104        O      tau( 104) = (   0.8684566   0.9446034   0.7630440  )
       105        Ni     tau( 105) = (   0.2392451   0.7980692   0.4424501  )
       106        Ni     tau( 106) = (   0.4865215   0.7353506   0.1202547  )
       107        Mn     tau( 107) = (   0.0057284   0.2540508   0.4480984  )
       108        Ni     tau( 108) = (   0.2530377   0.1890124   0.1223869  )
       109        Ni     tau( 109) = (   0.9964090   1.0327362   0.2805874  )
       110        Ni     tau( 110) = (   0.2462362   0.4960619   0.2818013  )
       111        Ni     tau( 111) = (   0.7345262   0.7970744   0.4415872  )
       112        Mn     tau( 112) = (   0.9831224   0.7322404   0.1149322  )
       113        Mn     tau( 113) = (   0.5057684   0.2566226   0.4482604  )
       114        Ni     tau( 114) = (   0.7505120   0.1885401   0.1218698  )
       115        Ni     tau( 115) = (   0.4953648   1.0333797   0.2818887  )
       116        Ni     tau( 116) = (   0.7441241   0.4958159   0.2807100  )
       117        P      tau( 117) = (   0.2092055   0.9308455   0.1258832  )
       118        P      tau( 118) = (   0.4551640   0.6063475   0.4376163  )
       119        P      tau( 119) = (   0.2827481   0.0535023   0.4375745  )
       120        P      tau( 120) = (   0.0353243   0.3843395   0.1286536  )
       121        O      tau( 121) = (   0.1325127   0.8629378   0.2618276  )
       122        O      tau( 122) = (   0.3761702   0.6735242   0.3016887  )
       123        O      tau( 123) = (   0.3582627   0.1230106   0.3017079  )
       124        O      tau( 124) = (   0.1151831   0.3167313   0.2620277  )
       125        O      tau( 125) = (   0.1496456   0.8419122   0.0016337  )
       126        O      tau( 126) = (   0.3967083   0.6939527   0.5630912  )
       127        O      tau( 127) = (   0.3399107   0.1445523   0.5615161  )
       128        O      tau( 128) = (   0.0961282   0.2966537   0.0046639  )
       129        O      tau( 129) = (   0.0914337   0.5392273   0.1295042  )
       130        O      tau( 130) = (   0.3478428   0.9825235   0.4370790  )
       131        O      tau( 131) = (   0.3722287   0.3793961   0.1380469  )
       132        O      tau( 132) = (   0.1200434   0.0575621   0.4269343  )
       133        O      tau( 133) = (   0.1176431   0.6103980   0.4256324  )
       134        O      tau( 134) = (   0.3972796   0.4519391   0.4351778  )
       135        O      tau( 135) = (   0.1455313   0.0027113   0.1271518  )
       136        O      tau( 136) = (   0.3720819   0.9245852   0.1353338  )
       137        P      tau( 137) = (   0.7029032   0.9303678   0.1246945  )
       138        P      tau( 138) = (   0.9547417   0.6031217   0.4349028  )
       139        P      tau( 139) = (   0.7819997   0.0521328   0.4367398  )
       140        P      tau( 140) = (   0.5349415   0.3894179   0.1277041  )
       141        O      tau( 141) = (   0.6267846   0.8599188   0.2604826  )
       142        O      tau( 142) = (   0.8753909   0.6713480   0.3014385  )
       143        O      tau( 143) = (   0.8575317   0.1208797   0.3005010  )
       144        O      tau( 144) = (   0.6146843   0.3199938   0.2607258  )
       145        O      tau( 145) = (   0.6443422   0.8394155   0.0010585  )
       146        O      tau( 146) = (   0.8934434   0.6905023   0.5587070  )
       147        O      tau( 147) = (   0.8392624   0.1427713   0.5610838  )
       148        O      tau( 148) = (   0.5967359   0.3014171   0.0041027  )
       149        O      tau( 149) = (   0.5904485   0.5447689   0.1295157  )
       150        O      tau( 150) = (   0.8459286   0.9805774   0.4359865  )
       151        O      tau( 151) = (   0.8723903   0.3770459   0.1380513  )
       152        O      tau( 152) = (   0.6195422   0.0578729   0.4264602  )
       153        O      tau( 153) = (   0.6181917   0.6103144   0.4263127  )
       154        O      tau( 154) = (   0.8982309   0.4484897   0.4334142  )
       155        O      tau( 155) = (   0.6403000   0.0024133   0.1263517  )
       156        O      tau( 156) = (   0.8656697   0.9256814   0.1355859  )
       157        O      tau( 157) = (   1.1309085   0.9213103   1.8489698  )
       158        H      tau( 158) = (   1.0479508   0.8617503   1.8736013  )

     -------------------------------------------------
     Parameters for Dispersion (Grimme-D2) Correction:
     -------------------------------------------------
       atom      VdW radius       C_6     

        Ni         2.952        374.666
        Mn         2.952        374.666
        P          3.222        271.980
        O          2.536         24.284
        H          1.892          4.857

     number of k points=     1  Gaussian smearing, width (Ry)=  0.0100
                       cart. coord. in units 2pi/alat
        k(    1) = (   0.0000000   0.0000000   0.0000000), wk =   1.0000000

     Dense  grid:  1979026 G-vectors     FFT dimensions: ( 128, 144, 450)

     Smooth grid:   500628 G-vectors     FFT dimensions: (  81,  90, 288)

     Estimated max dynamical RAM per process >     333.40 MB

     Estimated total dynamical RAM >      20.84 GB

     Check: negative core charge=   -0.000002
     Generating pointlists ...
     new r_m :   0.0795 (alat units)  1.4194 (a.u.) for type    1
     new r_m :   0.0884 (alat units)  1.5790 (a.u.) for type    2
     new r_m :   0.0665 (alat units)  1.1872 (a.u.) for type    3
     new r_m :   0.0433 (alat units)  0.7737 (a.u.) for type    4
     new r_m :   0.0433 (alat units)  0.7737 (a.u.) for type    5

     Initial potential from superposition of free atoms

     starting charge    1107.8886, renormalised to    1108.0000

     negative rho (up, down):  1.505E-03 4.673E-04
 
     Adding external electric field

     Computed dipole along edir(3) : 
        Dipole                1.6419 Ry au,          4.1732 Debye
        Dipole field          0.0010 Ry au, 
 
        Potential amp.       -0.1077 Ry
        Total length         54.7057 bohr
 
 
     Adding external electric field

     Computed dipole along edir(3) : 
        Dipole                1.6419 Ry au,          4.1732 Debye
        Dipole field          0.0010 Ry au, 
 
        Potential amp.       -0.1077 Ry
        Total length         54.7057 bohr
 
     Starting wfcs are  818 randomized atomic wfcs

     total cpu time spent up to now is       12.7 secs

     Self-consistent Calculation

     iteration #  1     ecut=    50.00 Ry     beta= 0.10
     Davidson diagonalization with overlap
     ethr =  1.00E-02,  avg # of iterations =  5.5

     negative rho (up, down):  4.414E-01 2.638E-07
 
     Adding external electric field

     Computed dipole along edir(3) : 
        Dipole               -3.7047 Ry au,         -9.4164 Debye
        Dipole field         -0.0022 Ry au, 
 
        Potential amp.        0.2430 Ry
        Total length         54.7057 bohr
 
 
     Adding external electric field

     Computed dipole along edir(3) : 
        Dipole               -3.7047 Ry au,         -9.4164 Debye
        Dipole field         -0.0022 Ry au, 
 
        Potential amp.        0.2430 Ry
        Total length         54.7057 bohr
 

     total cpu time spent up to now is       45.7 secs

     total energy              =   -7857.05631378 Ry
     estimated scf accuracy    <     733.98432006 Ry

     total magnetization       =   222.00 Bohr mag/cell
     absolute magnetization    =   320.14 Bohr mag/cell

     iteration #  2     ecut=    50.00 Ry     beta= 0.10
     Davidson diagonalization with overlap
     ethr =  1.00E-02,  avg # of iterations =  2.0

     negative rho (up, down):  4.136E-01 1.320E-07
 
     Adding external electric field

     Computed dipole along edir(3) : 
        Dipole               -2.5405 Ry au,         -6.4572 Debye
        Dipole field         -0.0015 Ry au, 
 
        Potential amp.        0.1666 Ry
        Total length         54.7057 bohr
 
 
     Adding external electric field

     Computed dipole along edir(3) : 
        Dipole               -2.5405 Ry au,         -6.4572 Debye
        Dipole field         -0.0015 Ry au, 
 
        Potential amp.        0.1666 Ry
        Total length         54.7057 bohr
 

     total cpu time spent up to now is       66.1 secs

     total energy              =   -7939.86720354 Ry
     estimated scf accuracy    <     199.37558063 Ry

     total magnetization       =   165.51 Bohr mag/cell
     absolute magnetization    =   212.90 Bohr mag/cell

     iteration #  3     ecut=    50.00 Ry     beta= 0.10
     Davidson diagonalization with overlap
     ethr =  1.00E-02,  avg # of iterations =  1.5

     negative rho (up, down):  3.671E-01 1.027E-07
 
     Adding external electric field

     Computed dipole along edir(3) : 
        Dipole               -2.1712 Ry au,         -5.5185 Debye
        Dipole field         -0.0013 Ry au, 
 
        Potential amp.        0.1424 Ry
        Total length         54.7057 bohr
 
 
     Adding external electric field

     Computed dipole along edir(3) : 
        Dipole               -2.1712 Ry au,         -5.5185 Debye
        Dipole field         -0.0013 Ry au, 
 
        Potential amp.        0.1424 Ry
        Total length         54.7057 bohr
 

     total cpu time spent up to now is       82.2 secs

     total energy              =   -7970.21831710 Ry
     estimated scf accuracy    <     105.01703817 Ry

     total magnetization       =   142.58 Bohr mag/cell
     absolute magnetization    =   191.97 Bohr mag/cell

     iteration #  4     ecut=    50.00 Ry     beta= 0.10
     Davidson diagonalization with overlap
     ethr =  9.48E-03,  avg # of iterations =  1.0

     negative rho (up, down):  2.978E-01 1.959E-08
 
     Adding external electric field

     Computed dipole along edir(3) : 
        Dipole               -2.1062 Ry au,         -5.3535 Debye
        Dipole field         -0.0013 Ry au, 
 
        Potential amp.        0.1381 Ry
        Total length         54.7057 bohr
 
 
     Adding external electric field

     Computed dipole along edir(3) : 
        Dipole               -2.1062 Ry au,         -5.3535 Debye
        Dipole field         -0.0013 Ry au, 
 
        Potential amp.        0.1381 Ry
        Total length         54.7057 bohr
 

     total cpu time spent up to now is       96.5 secs

     total energy              =   -7999.20643233 Ry
     estimated scf accuracy    <      84.50263136 Ry

     total magnetization       =   126.75 Bohr mag/cell
     absolute magnetization    =   177.78 Bohr mag/cell

     iteration #  5     ecut=    50.00 Ry     beta= 0.10
     Davidson diagonalization with overlap
     ethr =  7.63E-03,  avg # of iterations =  1.0

     negative rho (up, down):  6.080E-02 0.000E+00
 
     Adding external electric field

     Computed dipole along edir(3) : 
        Dipole               -1.6498 Ry au,         -4.1933 Debye
        Dipole field         -0.0010 Ry au, 
 
        Potential amp.        0.1082 Ry
        Total length         54.7057 bohr
 
 
     Adding external electric field

     Computed dipole along edir(3) : 
        Dipole               -1.6498 Ry au,         -4.1933 Debye
        Dipole field         -0.0010 Ry au, 
 
        Potential amp.        0.1082 Ry
        Total length         54.7057 bohr
 

     total cpu time spent up to now is      111.5 secs

     total energy              =   -8059.15575539 Ry
     estimated scf accuracy    <      70.50554604 Ry

     total magnetization       =   107.24 Bohr mag/cell
     absolute magnetization    =   160.98 Bohr mag/cell

     iteration #  6     ecut=    50.00 Ry     beta= 0.10
     Davidson diagonalization with overlap
     ethr =  6.36E-03,  avg # of iterations =  1.0

     negative rho (up, down):  5.081E-04 1.082E-03
 
     Adding external electric field

     Computed dipole along edir(3) : 
        Dipole               -1.1313 Ry au,         -2.8756 Debye
        Dipole field         -0.0007 Ry au, 
 
        Potential amp.        0.0742 Ry
        Total length         54.7057 bohr
 
 
     Adding external electric field

     Computed dipole along edir(3) : 
        Dipole               -1.1313 Ry au,         -2.8756 Debye
        Dipole field         -0.0007 Ry au, 
 
        Potential amp.        0.0742 Ry
        Total length         54.7057 bohr
 

     total cpu time spent up to now is      126.9 secs

     total energy              =   -8076.02737496 Ry
     estimated scf accuracy    <      19.45867574 Ry

     total magnetization       =   100.00 Bohr mag/cell
     absolute magnetization    =   134.93 Bohr mag/cell

     iteration #  7     ecut=    50.00 Ry     beta= 0.10
     Davidson diagonalization with overlap
     ethr =  1.76E-03,  avg # of iterations =  6.0

     negative rho (up, down):  4.955E-04 1.069E-03
 
     Adding external electric field

     Computed dipole along edir(3) : 
        Dipole               -1.1256 Ry au,         -2.8611 Debye
        Dipole field         -0.0007 Ry au, 
 
        Potential amp.        0.0738 Ry
        Total length         54.7057 bohr
 
 
     Adding external electric field

     Computed dipole along edir(3) : 
        Dipole               -1.1256 Ry au,         -2.8611 Debye
        Dipole field         -0.0007 Ry au, 
 
        Potential amp.        0.0738 Ry
        Total length         54.7057 bohr
 

     total cpu time spent up to now is      152.1 secs

     total energy              =   -8078.89896359 Ry
     estimated scf accuracy    <      34.30357240 Ry

     total magnetization       =    69.40 Bohr mag/cell
     absolute magnetization    =    87.06 Bohr mag/cell

     iteration #  8     ecut=    50.00 Ry     beta= 0.10
     Davidson diagonalization with overlap
     ethr =  1.76E-03,  avg # of iterations =  1.0

     negative rho (up, down):  4.761E-04 1.108E-03
 
     Adding external electric field

     Computed dipole along edir(3) : 
        Dipole               -1.1220 Ry au,         -2.8518 Debye
        Dipole field         -0.0007 Ry au, 
 
        Potential amp.        0.0736 Ry
        Total length         54.7057 bohr
 
 
     Adding external electric field

     Computed dipole along edir(3) : 
        Dipole               -1.1220 Ry au,         -2.8518 Debye
        Dipole field         -0.0007 Ry au, 
 
        Potential amp.        0.0736 Ry
        Total length         54.7057 bohr
 

     total cpu time spent up to now is      166.9 secs

     total energy              =   -8079.08290497 Ry
     estimated scf accuracy    <      33.94550677 Ry

     total magnetization       =    69.53 Bohr mag/cell
     absolute magnetization    =    86.69 Bohr mag/cell

     iteration #  9     ecut=    50.00 Ry     beta= 0.10
     Davidson diagonalization with overlap
     ethr =  1.76E-03,  avg # of iterations =  1.0

     negative rho (up, down):  4.812E-04 1.183E-03
 
     Adding external electric field

     Computed dipole along edir(3) : 
        Dipole               -1.0857 Ry au,         -2.7595 Debye
        Dipole field         -0.0007 Ry au, 
 
        Potential amp.        0.0712 Ry
        Total length         54.7057 bohr
 
 
     Adding external electric field

     Computed dipole along edir(3) : 
        Dipole               -1.0857 Ry au,         -2.7595 Debye
        Dipole field         -0.0007 Ry au, 
 
        Potential amp.        0.0712 Ry
        Total length         54.7057 bohr
 

     total cpu time spent up to now is      181.4 secs

     total energy              =   -8078.96940542 Ry
     estimated scf accuracy    <      36.23659000 Ry

     total magnetization       =    68.53 Bohr mag/cell
     absolute magnetization    =    85.45 Bohr mag/cell

     iteration # 10     ecut=    50.00 Ry     beta= 0.10
     Davidson diagonalization with overlap
     ethr =  1.76E-03,  avg # of iterations =  1.0

     negative rho (up, down):  6.814E-04 1.747E-03
 
     Adding external electric field

     Computed dipole along edir(3) : 
        Dipole               -0.9710 Ry au,         -2.4680 Debye
        Dipole field         -0.0006 Ry au, 
 
        Potential amp.        0.0637 Ry
        Total length         54.7057 bohr
 
 
     Adding external electric field

     Computed dipole along edir(3) : 
        Dipole               -0.9710 Ry au,         -2.4680 Debye
        Dipole field         -0.0006 Ry au, 
 
        Potential amp.        0.0637 Ry
        Total length         54.7057 bohr
 

     total cpu time spent up to now is      196.1 secs

     total energy              =   -8078.22165697 Ry
     estimated scf accuracy    <      32.70935302 Ry

     total magnetization       =    69.34 Bohr mag/cell
     absolute magnetization    =    85.63 Bohr mag/cell

     iteration # 11     ecut=    50.00 Ry     beta= 0.10
     Davidson diagonalization with overlap
     ethr =  1.76E-03,  avg # of iterations =  1.0

     negative rho (up, down):  7.990E-04 1.981E-03
 
     Adding external electric field

     Computed dipole along edir(3) : 
        Dipole               -0.9298 Ry au,         -2.3633 Debye
        Dipole field         -0.0006 Ry au, 
 
        Potential amp.        0.0610 Ry
        Total length         54.7057 bohr
 
 
     Adding external electric field

     Computed dipole along edir(3) : 
        Dipole               -0.9298 Ry au,         -2.3633 Debye
        Dipole field         -0.0006 Ry au, 
 
        Potential amp.        0.0610 Ry
        Total length         54.7057 bohr
 

     total cpu time spent up to now is      209.8 secs

     total energy              =   -8078.18093797 Ry
     estimated scf accuracy    <      14.55972996 Ry

     total magnetization       =    79.04 Bohr mag/cell
     absolute magnetization    =    92.22 Bohr mag/cell

     iteration # 12     ecut=    50.00 Ry     beta= 0.10
     Davidson diagonalization with overlap
     ethr =  1.31E-03,  avg # of iterations =  1.0

     negative rho (up, down):  7.405E-04 2.154E-03
 
     Adding external electric field

     Computed dipole along edir(3) : 
        Dipole               -0.8813 Ry au,         -2.2400 Debye
        Dipole field         -0.0005 Ry au, 
 
        Potential amp.        0.0578 Ry
        Total length         54.7057 bohr
 
 
     Adding external electric field

     Computed dipole along edir(3) : 
        Dipole               -0.8813 Ry au,         -2.2400 Debye
        Dipole field         -0.0005 Ry au, 
 
        Potential amp.        0.0578 Ry
        Total length         54.7057 bohr
 

     total cpu time spent up to now is      223.9 secs

     total energy              =   -8078.24454424 Ry
     estimated scf accuracy    <       7.64838102 Ry

     total magnetization       =    88.17 Bohr mag/cell
     absolute magnetization    =    98.96 Bohr mag/cell

     iteration # 13     ecut=    50.00 Ry     beta= 0.10
     Davidson diagonalization with overlap
     ethr =  6.90E-04,  avg # of iterations =  1.5

     negative rho (up, down):  5.507E-04 2.051E-03
 
     Adding external electric field

     Computed dipole along edir(3) : 
        Dipole               -0.8609 Ry au,         -2.1882 Debye
        Dipole field         -0.0005 Ry au, 
 
        Potential amp.        0.0565 Ry
        Total length         54.7057 bohr
 
 
     Adding external electric field

     Computed dipole along edir(3) : 
        Dipole               -0.8609 Ry au,         -2.1882 Debye
        Dipole field         -0.0005 Ry au, 
 
        Potential amp.        0.0565 Ry
        Total length         54.7057 bohr
 

     total cpu time spent up to now is      238.4 secs

     total energy              =   -8078.18958279 Ry
     estimated scf accuracy    <       5.59953905 Ry

     total magnetization       =    89.54 Bohr mag/cell
     absolute magnetization    =    99.62 Bohr mag/cell

     iteration # 14     ecut=    50.00 Ry     beta= 0.10
     Davidson diagonalization with overlap
     ethr =  5.05E-04,  avg # of iterations =  1.5

     negative rho (up, down):  5.140E-04 1.498E-03
 
     Adding external electric field

     Computed dipole along edir(3) : 
        Dipole               -0.8684 Ry au,         -2.2071 Debye
        Dipole field         -0.0005 Ry au, 
 
        Potential amp.        0.0570 Ry
        Total length         54.7057 bohr
 
 
     Adding external electric field

     Computed dipole along edir(3) : 
        Dipole               -0.8684 Ry au,         -2.2071 Debye
        Dipole field         -0.0005 Ry au, 
 
        Potential amp.        0.0570 Ry
        Total length         54.7057 bohr
 

     total cpu time spent up to now is      253.4 secs

     total energy              =   -8078.24826229 Ry
     estimated scf accuracy    <       3.41124082 Ry

     total magnetization       =    91.93 Bohr mag/cell
     absolute magnetization    =   100.59 Bohr mag/cell

     iteration # 15     ecut=    50.00 Ry     beta= 0.10
     Davidson diagonalization with overlap
     ethr =  3.08E-04,  avg # of iterations =  1.5

     negative rho (up, down):  5.986E-04 9.277E-04
 
     Adding external electric field

     Computed dipole along edir(3) : 
        Dipole               -0.8972 Ry au,         -2.2805 Debye
        Dipole field         -0.0005 Ry au, 
 
        Potential amp.        0.0588 Ry
        Total length         54.7057 bohr
 
 
     Adding external electric field

     Computed dipole along edir(3) : 
        Dipole               -0.8972 Ry au,         -2.2805 Debye
        Dipole field         -0.0005 Ry au, 
 
        Potential amp.        0.0588 Ry
        Total length         54.7057 bohr
 

     total cpu time spent up to now is      268.0 secs

     total energy              =   -8078.37917900 Ry
     estimated scf accuracy    <       2.47152071 Ry

     total magnetization       =    96.55 Bohr mag/cell
     absolute magnetization    =   103.85 Bohr mag/cell

     iteration # 16     ecut=    50.00 Ry     beta= 0.10
     Davidson diagonalization with overlap
     ethr =  2.23E-04,  avg # of iterations =  2.0

     negative rho (up, down):  5.717E-04 5.905E-04
 
     Adding external electric field

     Computed dipole along edir(3) : 
        Dipole               -0.8947 Ry au,         -2.2740 Debye
        Dipole field         -0.0005 Ry au, 
 
        Potential amp.        0.0587 Ry
        Total length         54.7057 bohr
 
 
     Adding external electric field

     Computed dipole along edir(3) : 
        Dipole               -0.8947 Ry au,         -2.2740 Debye
        Dipole field         -0.0005 Ry au, 
 
        Potential amp.        0.0587 Ry
        Total length         54.7057 bohr
 

     total cpu time spent up to now is      283.5 secs

     total energy              =   -8078.39823627 Ry
     estimated scf accuracy    <       1.64966250 Ry

     total magnetization       =    98.06 Bohr mag/cell
     absolute magnetization    =   105.31 Bohr mag/cell

     iteration # 17     ecut=    50.00 Ry     beta= 0.10
     Davidson diagonalization with overlap
     ethr =  1.49E-04,  avg # of iterations =  2.0

     negative rho (up, down):  5.233E-04 5.434E-04
 
     Adding external electric field

     Computed dipole along edir(3) : 
        Dipole               -0.9065 Ry au,         -2.3040 Debye
        Dipole field         -0.0005 Ry au, 
 
        Potential amp.        0.0595 Ry
        Total length         54.7057 bohr
 
 
     Adding external electric field

     Computed dipole along edir(3) : 
        Dipole               -0.9065 Ry au,         -2.3040 Debye
        Dipole field         -0.0005 Ry au, 
 
        Potential amp.        0.0595 Ry
        Total length         54.7057 bohr
 

     total cpu time spent up to now is      299.8 secs

     total energy              =   -8078.40238666 Ry
     estimated scf accuracy    <       1.62200738 Ry

     total magnetization       =    97.97 Bohr mag/cell
     absolute magnetization    =   105.20 Bohr mag/cell

     iteration # 18     ecut=    50.00 Ry     beta= 0.10
     Davidson diagonalization with overlap
     ethr =  1.46E-04,  avg # of iterations =  1.5

     negative rho (up, down):  1.581E-05 5.663E-05
 
     Adding external electric field

     Computed dipole along edir(3) : 
        Dipole               -1.0184 Ry au,         -2.5886 Debye
        Dipole field         -0.0006 Ry au, 
 
        Potential amp.        0.0668 Ry
        Total length         54.7057 bohr
 
 
     Adding external electric field

     Computed dipole along edir(3) : 
        Dipole               -1.0184 Ry au,         -2.5886 Debye
        Dipole field         -0.0006 Ry au, 
 
        Potential amp.        0.0668 Ry
        Total length         54.7057 bohr
 

     total cpu time spent up to now is      314.4 secs

     total energy              =   -8078.31606669 Ry
     estimated scf accuracy    <       1.42305405 Ry

     total magnetization       =    98.27 Bohr mag/cell
     absolute magnetization    =   105.38 Bohr mag/cell

     iteration # 19     ecut=    50.00 Ry     beta= 0.10
     Davidson diagonalization with overlap
     c_bands:  3 eigenvalues not converged
     ethr =  1.28E-04,  avg # of iterations = 11.0

     negative rho (up, down):  2.078E-05 9.507E-05
 
     Adding external electric field

     Computed dipole along edir(3) : 
        Dipole               -1.0221 Ry au,         -2.5979 Debye
        Dipole field         -0.0006 Ry au, 
 
        Potential amp.        0.0670 Ry
        Total length         54.7057 bohr
 
 
     Adding external electric field

     Computed dipole along edir(3) : 
        Dipole               -1.0221 Ry au,         -2.5979 Debye
        Dipole field         -0.0006 Ry au, 
 
        Potential amp.        0.0670 Ry
        Total length         54.7057 bohr
 

     total cpu time spent up to now is      339.4 secs

     total energy              =   -8078.51391991 Ry
     estimated scf accuracy    <       5.30813871 Ry

     total magnetization       =    90.69 Bohr mag/cell
     absolute magnetization    =    96.23 Bohr mag/cell

     iteration # 20     ecut=    50.00 Ry     beta= 0.10
     Davidson diagonalization with overlap
     ethr =  1.28E-04,  avg # of iterations =  1.0

     negative rho (up, down):  2.459E-05 1.793E-04
 
     Adding external electric field

     Computed dipole along edir(3) : 
        Dipole               -0.9666 Ry au,         -2.4569 Debye
        Dipole field         -0.0006 Ry au, 
 
        Potential amp.        0.0634 Ry
        Total length         54.7057 bohr
 
 
     Adding external electric field

     Computed dipole along edir(3) : 
        Dipole               -0.9666 Ry au,         -2.4569 Debye
        Dipole field         -0.0006 Ry au, 
 
        Potential amp.        0.0634 Ry
        Total length         54.7057 bohr
 

     total cpu time spent up to now is      353.4 secs

     total energy              =   -8078.46530102 Ry
     estimated scf accuracy    <       4.56375953 Ry

     total magnetization       =    91.38 Bohr mag/cell
     absolute magnetization    =    96.51 Bohr mag/cell

     iteration # 21     ecut=    50.00 Ry     beta= 0.10
     Davidson diagonalization with overlap
     ethr =  1.28E-04,  avg # of iterations =  1.0

     negative rho (up, down):  2.000E-05 1.868E-04
 
     Adding external electric field

     Computed dipole along edir(3) : 
        Dipole               -0.8948 Ry au,         -2.2743 Debye
        Dipole field         -0.0005 Ry au, 
 
        Potential amp.        0.0587 Ry
        Total length         54.7057 bohr
 
 
     Adding external electric field

     Computed dipole along edir(3) : 
        Dipole               -0.8948 Ry au,         -2.2743 Debye
        Dipole field         -0.0005 Ry au, 
 
        Potential amp.        0.0587 Ry
        Total length         54.7057 bohr
 

     total cpu time spent up to now is      367.7 secs

     total energy              =   -8078.46174663 Ry
     estimated scf accuracy    <       2.73847034 Ry

     total magnetization       =    92.34 Bohr mag/cell
     absolute magnetization    =    96.96 Bohr mag/cell

     iteration # 22     ecut=    50.00 Ry     beta= 0.10
     Davidson diagonalization with overlap
     ethr =  1.28E-04,  avg # of iterations =  1.0

     negative rho (up, down):  1.996E-05 2.140E-04
 
     Adding external electric field

     Computed dipole along edir(3) : 
        Dipole               -0.8621 Ry au,         -2.1913 Debye
        Dipole field         -0.0005 Ry au, 
 
        Potential amp.        0.0565 Ry
        Total length         54.7057 bohr
 
 
     Adding external electric field

     Computed dipole along edir(3) : 
        Dipole               -0.8621 Ry au,         -2.1913 Debye
        Dipole field         -0.0005 Ry au, 
 
        Potential amp.        0.0565 Ry
        Total length         54.7057 bohr
 

     total cpu time spent up to now is      382.5 secs

     total energy              =   -8078.46813242 Ry
     estimated scf accuracy    <       1.43631353 Ry

     total magnetization       =    93.77 Bohr mag/cell
     absolute magnetization    =    97.70 Bohr mag/cell

     iteration # 23     ecut=    50.00 Ry     beta= 0.10
     Davidson diagonalization with overlap
     ethr =  1.28E-04,  avg # of iterations =  1.0

     negative rho (up, down):  1.028E-05 1.965E-04
 
     Adding external electric field

     Computed dipole along edir(3) : 
        Dipole               -0.8787 Ry au,         -2.2335 Debye
        Dipole field         -0.0005 Ry au, 
 
        Potential amp.        0.0576 Ry
        Total length         54.7057 bohr
 
 
     Adding external electric field

     Computed dipole along edir(3) : 
        Dipole               -0.8787 Ry au,         -2.2335 Debye
        Dipole field         -0.0005 Ry au, 
 
        Potential amp.        0.0576 Ry
        Total length         54.7057 bohr
 

     total cpu time spent up to now is      396.3 secs

     total energy              =   -8078.50791331 Ry
     estimated scf accuracy    <       0.90500370 Ry

     total magnetization       =    95.11 Bohr mag/cell
     absolute magnetization    =    98.52 Bohr mag/cell

     iteration # 24     ecut=    50.00 Ry     beta= 0.10
     Davidson diagonalization with overlap
     ethr =  8.17E-05,  avg # of iterations =  1.5

     negative rho (up, down):  7.761E-06 1.695E-04
 
     Adding external electric field

     Computed dipole along edir(3) : 
        Dipole               -0.8328 Ry au,         -2.1169 Debye
        Dipole field         -0.0005 Ry au, 
 
        Potential amp.        0.0546 Ry
        Total length         54.7057 bohr
 
 
     Adding external electric field

     Computed dipole along edir(3) : 
        Dipole               -0.8328 Ry au,         -2.1169 Debye
        Dipole field         -0.0005 Ry au, 
 
        Potential amp.        0.0546 Ry
        Total length         54.7057 bohr
 

     total cpu time spent up to now is      412.1 secs

     total energy              =   -8078.53731780 Ry
     estimated scf accuracy    <       0.48322518 Ry

     total magnetization       =    95.90 Bohr mag/cell
     absolute magnetization    =    98.25 Bohr mag/cell

     iteration # 25     ecut=    50.00 Ry     beta= 0.10
     Davidson diagonalization with overlap
     ethr =  4.36E-05,  avg # of iterations =  1.5

     negative rho (up, down):  2.457E-06 1.562E-04
 
     Adding external electric field

     Computed dipole along edir(3) : 
        Dipole               -0.7212 Ry au,         -1.8332 Debye
        Dipole field         -0.0004 Ry au, 
 
        Potential amp.        0.0473 Ry
        Total length         54.7057 bohr
 
 
     Adding external electric field

     Computed dipole along edir(3) : 
        Dipole               -0.7212 Ry au,         -1.8332 Debye
        Dipole field         -0.0004 Ry au, 
 
        Potential amp.        0.0473 Ry
        Total length         54.7057 bohr
 

     total cpu time spent up to now is      427.2 secs

     total energy              =   -8078.54175243 Ry
     estimated scf accuracy    <       0.22152329 Ry

     total magnetization       =    97.62 Bohr mag/cell
     absolute magnetization    =    99.23 Bohr mag/cell

     iteration # 26     ecut=    50.00 Ry     beta= 0.10
     Davidson diagonalization with overlap
     ethr =  2.00E-05,  avg # of iterations = 12.5

     negative rho (up, down):  1.554E-06 9.905E-06
 
     Adding external electric field

     Computed dipole along edir(3) : 
        Dipole               -0.6565 Ry au,         -1.6685 Debye
        Dipole field         -0.0004 Ry au, 
 
        Potential amp.        0.0431 Ry
        Total length         54.7057 bohr
 
 
     Adding external electric field

     Computed dipole along edir(3) : 
        Dipole               -0.6565 Ry au,         -1.6685 Debye
        Dipole field         -0.0004 Ry au, 
 
        Potential amp.        0.0431 Ry
        Total length         54.7057 bohr
 

     total cpu time spent up to now is      456.5 secs

     total energy              =   -8078.56057495 Ry
     estimated scf accuracy    <       0.18886773 Ry

     total magnetization       =    97.61 Bohr mag/cell
     absolute magnetization    =    98.71 Bohr mag/cell

     iteration # 27     ecut=    50.00 Ry     beta= 0.10
     Davidson diagonalization with overlap
     ethr =  1.70E-05,  avg # of iterations =  3.0

     negative rho (up, down):  1.223E-05 6.397E-07
 
     Adding external electric field

     Computed dipole along edir(3) : 
        Dipole               -0.6254 Ry au,         -1.5896 Debye
        Dipole field         -0.0004 Ry au, 
 
        Potential amp.        0.0410 Ry
        Total length         54.7057 bohr
 
 
     Adding external electric field

     Computed dipole along edir(3) : 
        Dipole               -0.6254 Ry au,         -1.5896 Debye
        Dipole field         -0.0004 Ry au, 
 
        Potential amp.        0.0410 Ry
        Total length         54.7057 bohr
 

     total cpu time spent up to now is      473.5 secs

     total energy              =   -8078.55608185 Ry
     estimated scf accuracy    <       0.13482629 Ry

     total magnetization       =    98.01 Bohr mag/cell
     absolute magnetization    =    99.11 Bohr mag/cell

     iteration # 28     ecut=    50.00 Ry     beta= 0.10
     Davidson diagonalization with overlap
     ethr =  1.22E-05,  avg # of iterations =  2.0

     negative rho (up, down):  1.418E-05 3.516E-07
 
     Adding external electric field

     Computed dipole along edir(3) : 
        Dipole               -0.6195 Ry au,         -1.5746 Debye
        Dipole field         -0.0004 Ry au, 
 
        Potential amp.        0.0406 Ry
        Total length         54.7057 bohr
 
 
     Adding external electric field

     Computed dipole along edir(3) : 
        Dipole               -0.6195 Ry au,         -1.5746 Debye
        Dipole field         -0.0004 Ry au, 
 
        Potential amp.        0.0406 Ry
        Total length         54.7057 bohr
 

     total cpu time spent up to now is      490.0 secs

     total energy              =   -8078.55772958 Ry
     estimated scf accuracy    <       0.05553299 Ry

     total magnetization       =    97.47 Bohr mag/cell
     absolute magnetization    =    98.57 Bohr mag/cell

     iteration # 29     ecut=    50.00 Ry     beta= 0.10
     Davidson diagonalization with overlap
     c_bands:  5 eigenvalues not converged
     ethr =  5.01E-06,  avg # of iterations = 21.0

     negative rho (up, down):  7.646E-06 1.625E-08
 
     Adding external electric field

     Computed dipole along edir(3) : 
        Dipole               -0.5805 Ry au,         -1.4755 Debye
        Dipole field         -0.0003 Ry au, 
 
        Potential amp.        0.0381 Ry
        Total length         54.7057 bohr
 
 
     Adding external electric field

     Computed dipole along edir(3) : 
        Dipole               -0.5805 Ry au,         -1.4755 Debye
        Dipole field         -0.0003 Ry au, 
 
        Potential amp.        0.0381 Ry
        Total length         54.7057 bohr
 

     total cpu time spent up to now is      531.2 secs

     total energy              =   -8078.55537453 Ry
     estimated scf accuracy    <       0.05117046 Ry

     total magnetization       =    97.41 Bohr mag/cell
     absolute magnetization    =    98.50 Bohr mag/cell

     iteration # 30     ecut=    50.00 Ry     beta= 0.10
     Davidson diagonalization with overlap
     ethr =  4.62E-06,  avg # of iterations =  2.5

     negative rho (up, down):  8.528E-06 7.304E-09
 
     Adding external electric field

     Computed dipole along edir(3) : 
        Dipole               -0.5056 Ry au,         -1.2850 Debye
        Dipole field         -0.0003 Ry au, 
 
        Potential amp.        0.0332 Ry
        Total length         54.7057 bohr
 
 
     Adding external electric field

     Computed dipole along edir(3) : 
        Dipole               -0.5056 Ry au,         -1.2850 Debye
        Dipole field         -0.0003 Ry au, 
 
        Potential amp.        0.0332 Ry
        Total length         54.7057 bohr
 

     total cpu time spent up to now is      547.0 secs

     total energy              =   -8078.55280798 Ry
     estimated scf accuracy    <       0.03871604 Ry

     total magnetization       =    97.51 Bohr mag/cell
     absolute magnetization    =    98.62 Bohr mag/cell

     iteration # 31     ecut=    50.00 Ry     beta= 0.10
     Davidson diagonalization with overlap
     ethr =  3.49E-06,  avg # of iterations =  2.0

     negative rho (up, down):  8.329E-06 1.457E-07
 
     Adding external electric field

     Computed dipole along edir(3) : 
        Dipole               -0.4655 Ry au,         -1.1831 Debye
        Dipole field         -0.0003 Ry au, 
 
        Potential amp.        0.0305 Ry
        Total length         54.7057 bohr
 
 
     Adding external electric field

     Computed dipole along edir(3) : 
        Dipole               -0.4655 Ry au,         -1.1831 Debye
        Dipole field         -0.0003 Ry au, 
 
        Potential amp.        0.0305 Ry
        Total length         54.7057 bohr
 

     total cpu time spent up to now is      563.3 secs

     total energy              =   -8078.55383246 Ry
     estimated scf accuracy    <       0.08281824 Ry

     total magnetization       =    97.58 Bohr mag/cell
     absolute magnetization    =    98.69 Bohr mag/cell

     iteration # 32     ecut=    50.00 Ry     beta= 0.10
     Davidson diagonalization with overlap
     ethr =  3.49E-06,  avg # of iterations =  1.5

     negative rho (up, down):  8.291E-06 1.024E-08
 
     Adding external electric field

     Computed dipole along edir(3) : 
        Dipole               -0.5159 Ry au,         -1.3112 Debye
        Dipole field         -0.0003 Ry au, 
 
        Potential amp.        0.0338 Ry
        Total length         54.7057 bohr
 
 
     Adding external electric field

     Computed dipole along edir(3) : 
        Dipole               -0.5159 Ry au,         -1.3112 Debye
        Dipole field         -0.0003 Ry au, 
 
        Potential amp.        0.0338 Ry
        Total length         54.7057 bohr
 

     total cpu time spent up to now is      578.0 secs

     total energy              =   -8078.55225676 Ry
     estimated scf accuracy    <       0.09563461 Ry

     total magnetization       =    97.72 Bohr mag/cell
     absolute magnetization    =    98.86 Bohr mag/cell

     iteration # 33     ecut=    50.00 Ry     beta= 0.10
     Davidson diagonalization with overlap
     ethr =  3.49E-06,  avg # of iterations =  2.0

     negative rho (up, down):  5.638E-06 2.012E-09
 
     Adding external electric field

     Computed dipole along edir(3) : 
        Dipole               -0.5063 Ry au,         -1.2870 Debye
        Dipole field         -0.0003 Ry au, 
 
        Potential amp.        0.0332 Ry
        Total length         54.7057 bohr
 
 
     Adding external electric field

     Computed dipole along edir(3) : 
        Dipole               -0.5063 Ry au,         -1.2870 Debye
        Dipole field         -0.0003 Ry au, 
 
        Potential amp.        0.0332 Ry
        Total length         54.7057 bohr
 

     total cpu time spent up to now is      594.2 secs

     total energy              =   -8078.55190414 Ry
     estimated scf accuracy    <       0.04231963 Ry

     total magnetization       =    97.61 Bohr mag/cell
     absolute magnetization    =    98.76 Bohr mag/cell

     iteration # 34     ecut=    50.00 Ry     beta= 0.10
     Davidson diagonalization with overlap
     ethr =  3.49E-06,  avg # of iterations =  1.0

     negative rho (up, down):  1.567E-05 1.036E-08
 
     Adding external electric field

     Computed dipole along edir(3) : 
        Dipole               -0.5219 Ry au,         -1.3265 Debye
        Dipole field         -0.0003 Ry au, 
 
        Potential amp.        0.0342 Ry
        Total length         54.7057 bohr
 
 
     Adding external electric field

     Computed dipole along edir(3) : 
        Dipole               -0.5219 Ry au,         -1.3265 Debye
        Dipole field         -0.0003 Ry au, 
 
        Potential amp.        0.0342 Ry
        Total length         54.7057 bohr
 

     total cpu time spent up to now is      607.8 secs

     total energy              =   -8078.55142832 Ry
     estimated scf accuracy    <       0.04402547 Ry

     total magnetization       =    97.56 Bohr mag/cell
     absolute magnetization    =    98.74 Bohr mag/cell

     iteration # 35     ecut=    50.00 Ry     beta= 0.10
     Davidson diagonalization with overlap
     ethr =  3.49E-06,  avg # of iterations =  1.0

     negative rho (up, down):  3.181E-06 1.830E-08
 
     Adding external electric field

     Computed dipole along edir(3) : 
        Dipole               -0.5156 Ry au,         -1.3104 Debye
        Dipole field         -0.0003 Ry au, 
 
        Potential amp.        0.0338 Ry
        Total length         54.7057 bohr
 
 
     Adding external electric field

     Computed dipole along edir(3) : 
        Dipole               -0.5156 Ry au,         -1.3104 Debye
        Dipole field         -0.0003 Ry au, 
 
        Potential amp.        0.0338 Ry
        Total length         54.7057 bohr
 

     total cpu time spent up to now is      621.7 secs

     total energy              =   -8078.55502254 Ry
     estimated scf accuracy    <       0.04286029 Ry

     total magnetization       =    97.59 Bohr mag/cell
     absolute magnetization    =    98.72 Bohr mag/cell

     iteration # 36     ecut=    50.00 Ry     beta= 0.10
     Davidson diagonalization with overlap
     ethr =  3.49E-06,  avg # of iterations =  1.0

     negative rho (up, down):  2.013E-06 9.661E-08
 
     Adding external electric field

     Computed dipole along edir(3) : 
        Dipole               -0.5170 Ry au,         -1.3140 Debye
        Dipole field         -0.0003 Ry au, 
 
        Potential amp.        0.0339 Ry
        Total length         54.7057 bohr
 
 
     Adding external electric field

     Computed dipole along edir(3) : 
        Dipole               -0.5170 Ry au,         -1.3140 Debye
        Dipole field         -0.0003 Ry au, 
 
        Potential amp.        0.0339 Ry
        Total length         54.7057 bohr
 

     total cpu time spent up to now is      636.1 secs

     total energy              =   -8078.55711848 Ry
     estimated scf accuracy    <       0.04058105 Ry

     total magnetization       =    97.53 Bohr mag/cell
     absolute magnetization    =    98.70 Bohr mag/cell

     iteration # 37     ecut=    50.00 Ry     beta= 0.10
     Davidson diagonalization with overlap
     ethr =  3.49E-06,  avg # of iterations =  1.0

     negative rho (up, down):  2.785E-06 3.455E-07
 
     Adding external electric field

     Computed dipole along edir(3) : 
        Dipole               -0.4855 Ry au,         -1.2339 Debye
        Dipole field         -0.0003 Ry au, 
 
        Potential amp.        0.0318 Ry
        Total length         54.7057 bohr
 
 
     Adding external electric field

     Computed dipole along edir(3) : 
        Dipole               -0.4855 Ry au,         -1.2339 Debye
        Dipole field         -0.0003 Ry au, 
 
        Potential amp.        0.0318 Ry
        Total length         54.7057 bohr
 

     total cpu time spent up to now is      649.3 secs

     total energy              =   -8078.55708163 Ry
     estimated scf accuracy    <       0.03586896 Ry

     total magnetization       =    97.47 Bohr mag/cell
     absolute magnetization    =    98.65 Bohr mag/cell

     iteration # 38     ecut=    50.00 Ry     beta= 0.10
     Davidson diagonalization with overlap
     ethr =  3.24E-06,  avg # of iterations =  1.0

     negative rho (up, down):  3.864E-06 6.831E-07
 
     Adding external electric field

     Computed dipole along edir(3) : 
        Dipole               -0.4436 Ry au,         -1.1275 Debye
        Dipole field         -0.0003 Ry au, 
 
        Potential amp.        0.0291 Ry
        Total length         54.7057 bohr
 
 
     Adding external electric field

     Computed dipole along edir(3) : 
        Dipole               -0.4436 Ry au,         -1.1275 Debye
        Dipole field         -0.0003 Ry au, 
 
        Potential amp.        0.0291 Ry
        Total length         54.7057 bohr
 

     total cpu time spent up to now is      663.6 secs

     total energy              =   -8078.55637633 Ry
     estimated scf accuracy    <       0.03888626 Ry

     total magnetization       =    97.45 Bohr mag/cell
     absolute magnetization    =    98.62 Bohr mag/cell

     iteration # 39     ecut=    50.00 Ry     beta= 0.10
     Davidson diagonalization with overlap
     ethr =  3.24E-06,  avg # of iterations =  1.5

     negative rho (up, down):  2.195E-05 1.365E-05
 
     Adding external electric field

     Computed dipole along edir(3) : 
        Dipole               -0.3339 Ry au,         -0.8486 Debye
        Dipole field         -0.0002 Ry au, 
 
        Potential amp.        0.0219 Ry
        Total length         54.7057 bohr
 
 
     Adding external electric field

     Computed dipole along edir(3) : 
        Dipole               -0.3339 Ry au,         -0.8486 Debye
        Dipole field         -0.0002 Ry au, 
 
        Potential amp.        0.0219 Ry
        Total length         54.7057 bohr
 

     total cpu time spent up to now is      678.1 secs

     total energy              =   -8078.55619990 Ry
     estimated scf accuracy    <       0.03966229 Ry

     total magnetization       =    97.39 Bohr mag/cell
     absolute magnetization    =    98.59 Bohr mag/cell

     iteration # 40     ecut=    50.00 Ry     beta= 0.10
     Davidson diagonalization with overlap
     ethr =  3.24E-06,  avg # of iterations =  3.0

     negative rho (up, down):  2.268E-05 1.161E-05
 
     Adding external electric field

     Computed dipole along edir(3) : 
        Dipole               -0.3530 Ry au,         -0.8974 Debye
        Dipole field         -0.0002 Ry au, 
 
        Potential amp.        0.0232 Ry
        Total length         54.7057 bohr
 
 
     Adding external electric field

     Computed dipole along edir(3) : 
        Dipole               -0.3530 Ry au,         -0.8974 Debye
        Dipole field         -0.0002 Ry au, 
 
        Potential amp.        0.0232 Ry
        Total length         54.7057 bohr
 

     total cpu time spent up to now is      695.3 secs

     total energy              =   -8078.55596075 Ry
     estimated scf accuracy    <       0.04851314 Ry

     total magnetization       =    97.40 Bohr mag/cell
     absolute magnetization    =    98.58 Bohr mag/cell

     iteration # 41     ecut=    50.00 Ry     beta= 0.10
     Davidson diagonalization with overlap
     ethr =  3.24E-06,  avg # of iterations =  1.5

     negative rho (up, down):  1.171E-05 6.241E-06
 
     Adding external electric field

     Computed dipole along edir(3) : 
        Dipole               -0.3457 Ry au,         -0.8787 Debye
        Dipole field         -0.0002 Ry au, 
 
        Potential amp.        0.0227 Ry
        Total length         54.7057 bohr
 
 
     Adding external electric field

     Computed dipole along edir(3) : 
        Dipole               -0.3457 Ry au,         -0.8787 Debye
        Dipole field         -0.0002 Ry au, 
 
        Potential amp.        0.0227 Ry
        Total length         54.7057 bohr
 

     total cpu time spent up to now is      711.1 secs

     total energy              =   -8078.55641122 Ry
     estimated scf accuracy    <       0.05343106 Ry

     total magnetization       =    97.42 Bohr mag/cell
     absolute magnetization    =    98.62 Bohr mag/cell

     iteration # 42     ecut=    50.00 Ry     beta= 0.10
     Davidson diagonalization with overlap
     ethr =  3.24E-06,  avg # of iterations =  1.0

     negative rho (up, down):  3.660E-06 1.125E-06
 
     Adding external electric field

     Computed dipole along edir(3) : 
        Dipole               -0.4135 Ry au,         -1.0509 Debye
        Dipole field         -0.0002 Ry au, 
 
        Potential amp.        0.0271 Ry
        Total length         54.7057 bohr
 
 
     Adding external electric field

     Computed dipole along edir(3) : 
        Dipole               -0.4135 Ry au,         -1.0509 Debye
        Dipole field         -0.0002 Ry au, 
 
        Potential amp.        0.0271 Ry
        Total length         54.7057 bohr
 

     total cpu time spent up to now is      727.5 secs

     total energy              =   -8078.55675998 Ry
     estimated scf accuracy    <       0.04237664 Ry

     total magnetization       =    97.38 Bohr mag/cell
     absolute magnetization    =    98.57 Bohr mag/cell

     iteration # 43     ecut=    50.00 Ry     beta= 0.10
     Davidson diagonalization with overlap
     ethr =  3.24E-06,  avg # of iterations =  1.0

     negative rho (up, down):  2.010E-06 4.841E-07
 
     Adding external electric field

     Computed dipole along edir(3) : 
        Dipole               -0.4072 Ry au,         -1.0349 Debye
        Dipole field         -0.0002 Ry au, 
 
        Potential amp.        0.0267 Ry
        Total length         54.7057 bohr
 
 
     Adding external electric field

     Computed dipole along edir(3) : 
        Dipole               -0.4072 Ry au,         -1.0349 Debye
        Dipole field         -0.0002 Ry au, 
 
        Potential amp.        0.0267 Ry
        Total length         54.7057 bohr
 

     total cpu time spent up to now is      742.6 secs

     total energy              =   -8078.55669555 Ry
     estimated scf accuracy    <       0.04402619 Ry

     total magnetization       =    97.41 Bohr mag/cell
     absolute magnetization    =    98.60 Bohr mag/cell

     iteration # 44     ecut=    50.00 Ry     beta= 0.10
     Davidson diagonalization with overlap
     ethr =  3.24E-06,  avg # of iterations =  1.0

     negative rho (up, down):  2.108E-06 7.736E-07
 
     Adding external electric field

     Computed dipole along edir(3) : 
        Dipole               -0.4318 Ry au,         -1.0974 Debye
        Dipole field         -0.0003 Ry au, 
 
        Potential amp.        0.0283 Ry
        Total length         54.7057 bohr
 
 
     Adding external electric field

     Computed dipole along edir(3) : 
        Dipole               -0.4318 Ry au,         -1.0974 Debye
        Dipole field         -0.0003 Ry au, 
 
        Potential amp.        0.0283 Ry
        Total length         54.7057 bohr
 

     total cpu time spent up to now is      757.7 secs

     total energy              =   -8078.55729842 Ry
     estimated scf accuracy    <       0.04540670 Ry

     total magnetization       =    97.42 Bohr mag/cell
     absolute magnetization    =    98.66 Bohr mag/cell

     iteration # 45     ecut=    50.00 Ry     beta= 0.10
     Davidson diagonalization with overlap
     ethr =  3.24E-06,  avg # of iterations =  1.0

     negative rho (up, down):  2.261E-06 3.649E-07
 
     Adding external electric field

     Computed dipole along edir(3) : 
        Dipole               -0.4261 Ry au,         -1.0830 Debye
        Dipole field         -0.0003 Ry au, 
 
        Potential amp.        0.0279 Ry
        Total length         54.7057 bohr
 
 
     Adding external electric field

     Computed dipole along edir(3) : 
        Dipole               -0.4261 Ry au,         -1.0830 Debye
        Dipole field         -0.0003 Ry au, 
 
        Potential amp.        0.0279 Ry
        Total length         54.7057 bohr
 

     total cpu time spent up to now is      773.0 secs

     total energy              =   -8078.55671200 Ry
     estimated scf accuracy    <       0.04378696 Ry

     total magnetization       =    97.37 Bohr mag/cell
     absolute magnetization    =    98.60 Bohr mag/cell

     iteration # 46     ecut=    50.00 Ry     beta= 0.10
     Davidson diagonalization with overlap
     ethr =  3.24E-06,  avg # of iterations =  1.0

     negative rho (up, down):  5.978E-06 3.981E-06
 
     Adding external electric field

     Computed dipole along edir(3) : 
        Dipole               -0.3669 Ry au,         -0.9327 Debye
        Dipole field         -0.0002 Ry au, 
 
        Potential amp.        0.0241 Ry
        Total length         54.7057 bohr
 
 
     Adding external electric field

     Computed dipole along edir(3) : 
        Dipole               -0.3669 Ry au,         -0.9327 Debye
        Dipole field         -0.0002 Ry au, 
 
        Potential amp.        0.0241 Ry
        Total length         54.7057 bohr
 

     total cpu time spent up to now is      787.7 secs

     total energy              =   -8078.55707428 Ry
     estimated scf accuracy    <       0.04036456 Ry

     total magnetization       =    97.41 Bohr mag/cell
     absolute magnetization    =    98.57 Bohr mag/cell

     iteration # 47     ecut=    50.00 Ry     beta= 0.10
     Davidson diagonalization with overlap
     ethr =  3.24E-06,  avg # of iterations =  1.5

     negative rho (up, down):  6.942E-06 4.618E-06
 
     Adding external electric field

     Computed dipole along edir(3) : 
        Dipole               -0.3701 Ry au,         -0.9408 Debye
        Dipole field         -0.0002 Ry au, 
 
        Potential amp.        0.0243 Ry
        Total length         54.7057 bohr
 
 
     Adding external electric field

     Computed dipole along edir(3) : 
        Dipole               -0.3701 Ry au,         -0.9408 Debye
        Dipole field         -0.0002 Ry au, 
 
        Potential amp.        0.0243 Ry
        Total length         54.7057 bohr
 

     total cpu time spent up to now is      803.8 secs

     total energy              =   -8078.55705211 Ry
     estimated scf accuracy    <       0.03989611 Ry

     total magnetization       =    97.38 Bohr mag/cell
     absolute magnetization    =    98.57 Bohr mag/cell

     iteration # 48     ecut=    50.00 Ry     beta= 0.10
     Davidson diagonalization with overlap
     ethr =  3.24E-06,  avg # of iterations =  1.0

     negative rho (up, down):  4.970E-06 2.953E-06
 
     Adding external electric field

     Computed dipole along edir(3) : 
        Dipole               -0.3709 Ry au,         -0.9427 Debye
        Dipole field         -0.0002 Ry au, 
 
        Potential amp.        0.0243 Ry
        Total length         54.7057 bohr
 
 
     Adding external electric field

     Computed dipole along edir(3) : 
        Dipole               -0.3709 Ry au,         -0.9427 Debye
        Dipole field         -0.0002 Ry au, 
 
        Potential amp.        0.0243 Ry
        Total length         54.7057 bohr
 

     total cpu time spent up to now is      817.2 secs

     total energy              =   -8078.55699491 Ry
     estimated scf accuracy    <       0.04340277 Ry

     total magnetization       =    97.29 Bohr mag/cell
     absolute magnetization    =    98.46 Bohr mag/cell

     iteration # 49     ecut=    50.00 Ry     beta= 0.10
     Davidson diagonalization with overlap
     ethr =  3.24E-06,  avg # of iterations =  1.0

     negative rho (up, down):  3.927E-06 1.946E-06
 
     Adding external electric field

     Computed dipole along edir(3) : 
        Dipole               -0.4143 Ry au,         -1.0530 Debye
        Dipole field         -0.0002 Ry au, 
 
        Potential amp.        0.0272 Ry
        Total length         54.7057 bohr
 
 
     Adding external electric field

     Computed dipole along edir(3) : 
        Dipole               -0.4143 Ry au,         -1.0530 Debye
        Dipole field         -0.0002 Ry au, 
 
        Potential amp.        0.0272 Ry
        Total length         54.7057 bohr
 

     total cpu time spent up to now is      830.6 secs

     total energy              =   -8078.55735500 Ry
     estimated scf accuracy    <       0.03755270 Ry

     total magnetization       =    97.40 Bohr mag/cell
     absolute magnetization    =    98.61 Bohr mag/cell

     iteration # 50     ecut=    50.00 Ry     beta= 0.10
     Davidson diagonalization with overlap
     ethr =  3.24E-06,  avg # of iterations =  1.0

     negative rho (up, down):  7.095E-06 6.080E-06
 
     Adding external electric field

     Computed dipole along edir(3) : 
        Dipole               -0.3349 Ry au,         -0.8511 Debye
        Dipole field         -0.0002 Ry au, 
 
        Potential amp.        0.0220 Ry
        Total length         54.7057 bohr
 
 
     Adding external electric field

     Computed dipole along edir(3) : 
        Dipole               -0.3349 Ry au,         -0.8511 Debye
        Dipole field         -0.0002 Ry au, 
 
        Potential amp.        0.0220 Ry
        Total length         54.7057 bohr
 

     total cpu time spent up to now is      844.3 secs

     total energy              =   -8078.55705376 Ry
     estimated scf accuracy    <       0.03862974 Ry

     total magnetization       =    97.36 Bohr mag/cell
     absolute magnetization    =    98.57 Bohr mag/cell

     iteration # 51     ecut=    50.00 Ry     beta= 0.10
     Davidson diagonalization with overlap
     ethr =  3.24E-06,  avg # of iterations =  1.5

     negative rho (up, down):  1.396E-05 1.018E-05
 
     Adding external electric field

     Computed dipole along edir(3) : 
        Dipole               -0.2727 Ry au,         -0.6932 Debye
        Dipole field         -0.0002 Ry au, 
 
        Potential amp.        0.0179 Ry
        Total length         54.7057 bohr
 
 
     Adding external electric field

     Computed dipole along edir(3) : 
        Dipole               -0.2727 Ry au,         -0.6932 Debye
        Dipole field         -0.0002 Ry au, 
 
        Potential amp.        0.0179 Ry
        Total length         54.7057 bohr
 

     total cpu time spent up to now is      858.9 secs

     total energy              =   -8078.55620481 Ry
     estimated scf accuracy    <       0.03988637 Ry

     total magnetization       =    97.43 Bohr mag/cell
     absolute magnetization    =    98.62 Bohr mag/cell

     iteration # 52     ecut=    50.00 Ry     beta= 0.10
     Davidson diagonalization with overlap
     ethr =  3.24E-06,  avg # of iterations =  1.5

     negative rho (up, down):  1.317E-05 8.037E-06
 
     Adding external electric field

     Computed dipole along edir(3) : 
        Dipole               -0.2911 Ry au,         -0.7398 Debye
        Dipole field         -0.0002 Ry au, 
 
        Potential amp.        0.0191 Ry
        Total length         54.7057 bohr
 
 
     Adding external electric field

     Computed dipole along edir(3) : 
        Dipole               -0.2911 Ry au,         -0.7398 Debye
        Dipole field         -0.0002 Ry au, 
 
        Potential amp.        0.0191 Ry
        Total length         54.7057 bohr
 

     total cpu time spent up to now is      874.0 secs

     total energy              =   -8078.55624874 Ry
     estimated scf accuracy    <       0.03160698 Ry

     total magnetization       =    97.42 Bohr mag/cell
     absolute magnetization    =    98.61 Bohr mag/cell

     iteration # 53     ecut=    50.00 Ry     beta= 0.10
     Davidson diagonalization with overlap
     ethr =  2.85E-06,  avg # of iterations =  1.0

     negative rho (up, down):  2.969E-05 1.380E-05
 
     Adding external electric field

     Computed dipole along edir(3) : 
        Dipole               -0.3297 Ry au,         -0.8380 Debye
        Dipole field         -0.0002 Ry au, 
 
        Potential amp.        0.0216 Ry
        Total length         54.7057 bohr
 
 
     Adding external electric field

     Computed dipole along edir(3) : 
        Dipole               -0.3297 Ry au,         -0.8380 Debye
        Dipole field         -0.0002 Ry au, 
 
        Potential amp.        0.0216 Ry
        Total length         54.7057 bohr
 

     total cpu time spent up to now is      888.5 secs

     total energy              =   -8078.55510185 Ry
     estimated scf accuracy    <       0.03057372 Ry

     total magnetization       =    97.43 Bohr mag/cell
     absolute magnetization    =    98.60 Bohr mag/cell

     iteration # 54     ecut=    50.00 Ry     beta= 0.10
     Davidson diagonalization with overlap
     ethr =  2.76E-06,  avg # of iterations =  1.5

     negative rho (up, down):  9.899E-05 7.613E-05
 
     Adding external electric field

     Computed dipole along edir(3) : 
        Dipole               -0.2577 Ry au,         -0.6550 Debye
        Dipole field         -0.0002 Ry au, 
 
        Potential amp.        0.0169 Ry
        Total length         54.7057 bohr
 
 
     Adding external electric field

     Computed dipole along edir(3) : 
        Dipole               -0.2577 Ry au,         -0.6550 Debye
        Dipole field         -0.0002 Ry au, 
 
        Potential amp.        0.0169 Ry
        Total length         54.7057 bohr
 

     total cpu time spent up to now is      903.3 secs

     total energy              =   -8078.55467545 Ry
     estimated scf accuracy    <       0.02520412 Ry

     total magnetization       =    97.53 Bohr mag/cell
     absolute magnetization    =    98.61 Bohr mag/cell

     iteration # 55     ecut=    50.00 Ry     beta= 0.10
     Davidson diagonalization with overlap
     ethr =  2.27E-06,  avg # of iterations =  2.0

     negative rho (up, down):  1.795E-04 2.198E-04
 
     Adding external electric field

     Computed dipole along edir(3) : 
        Dipole               -0.1492 Ry au,         -0.3793 Debye
        Dipole field         -0.0001 Ry au, 
 
        Potential amp.        0.0098 Ry
        Total length         54.7057 bohr
 
 
     Adding external electric field

     Computed dipole along edir(3) : 
        Dipole               -0.1492 Ry au,         -0.3793 Debye
        Dipole field         -0.0001 Ry au, 
 
        Potential amp.        0.0098 Ry
        Total length         54.7057 bohr
 

     total cpu time spent up to now is      919.5 secs

     total energy              =   -8078.55492695 Ry
     estimated scf accuracy    <       0.02156885 Ry

     total magnetization       =    97.49 Bohr mag/cell
     absolute magnetization    =    98.56 Bohr mag/cell

     iteration # 56     ecut=    50.00 Ry     beta= 0.10
     Davidson diagonalization with overlap
     ethr =  1.95E-06,  avg # of iterations =  2.0

     negative rho (up, down):  1.014E-04 2.032E-04
 
     Adding external electric field

     Computed dipole along edir(3) : 
        Dipole               -0.0473 Ry au,         -0.1202 Debye
        Dipole field         -0.0000 Ry au, 
 
        Potential amp.        0.0031 Ry
        Total length         54.7057 bohr
 
 
     Adding external electric field

     Computed dipole along edir(3) : 
        Dipole               -0.0473 Ry au,         -0.1202 Debye
        Dipole field         -0.0000 Ry au, 
 
        Potential amp.        0.0031 Ry
        Total length         54.7057 bohr
 

     total cpu time spent up to now is      935.9 secs

     total energy              =   -8078.55393907 Ry
     estimated scf accuracy    <       0.01605595 Ry

     total magnetization       =    97.41 Bohr mag/cell
     absolute magnetization    =    98.54 Bohr mag/cell

     iteration # 57     ecut=    50.00 Ry     beta= 0.10
     Davidson diagonalization with overlap
     c_bands:  5 eigenvalues not converged
     ethr =  1.45E-06,  avg # of iterations = 11.0

     negative rho (up, down):  1.589E-05 6.269E-05
 
     Adding external electric field

     Computed dipole along edir(3) : 
        Dipole               -0.0229 Ry au,         -0.0581 Debye
        Dipole field         -0.0000 Ry au, 
 
        Potential amp.        0.0015 Ry
        Total length         54.7057 bohr
 
 
     Adding external electric field

     Computed dipole along edir(3) : 
        Dipole               -0.0229 Ry au,         -0.0581 Debye
        Dipole field         -0.0000 Ry au, 
 
        Potential amp.        0.0015 Ry
        Total length         54.7057 bohr
 

     total cpu time spent up to now is      959.2 secs

     total energy              =   -8078.55332923 Ry
     estimated scf accuracy    <       0.01207672 Ry

     total magnetization       =    97.26 Bohr mag/cell
     absolute magnetization    =    98.38 Bohr mag/cell

     iteration # 58     ecut=    50.00 Ry     beta= 0.10
     Davidson diagonalization with overlap
     ethr =  1.09E-06,  avg # of iterations =  2.5

     negative rho (up, down):  8.095E-07 2.253E-06
 
     Adding external electric field

     Computed dipole along edir(3) : 
        Dipole                0.0081 Ry au,          0.0207 Debye
        Dipole field          0.0000 Ry au, 
 
[...]
    -5.9880  -5.9840  -5.9547  -5.9322  -5.8964  -5.8819  -5.8582  -5.8480
    -5.8181  -5.8101  -5.7963  -5.7627  -5.7554  -5.7396  -5.7119  -5.6811
    -5.6698  -5.6413  -5.6330  -5.6120  -5.5774  -5.5661  -5.5630  -5.5363
    -5.5184  -5.5153  -5.4807  -5.4710  -5.4651  -5.4581  -5.3915  -5.3746
    -5.3612  -5.3131  -5.3008  -5.2847  -5.2354  -5.2037  -5.1737  -5.1700
    -5.1494  -5.1022  -5.1000  -4.9987  -4.9634  -4.9588  -4.9497  -4.9148
    -4.8913  -4.8624  -4.8032  -4.7976  -4.7897  -4.7304  -4.7176  -4.7052
    -4.6565  -4.6021  -4.5805  -4.5652  -4.5089  -4.4692  -4.4562  -4.3930
    -4.3750  -4.3560  -4.3213  -4.2956  -4.2729  -4.2491  -4.2075  -4.1869
    -4.1346  -4.1085  -4.0942  -4.0545  -4.0443  -4.0100  -3.9976  -3.9607
    -3.8708  -3.8660  -3.8312  -3.8079  -3.8020  -3.7764  -3.7496  -3.7197
    -3.7101  -3.7020  -3.6733  -3.6179  -3.6095  -3.5895  -3.5792  -3.5714
    -3.5482  -3.5371  -3.5017  -3.4979  -3.4876  -3.4846  -3.4438  -3.4274
    -3.4096  -3.3966  -3.3951  -3.3705  -3.3309  -3.3240  -3.3099  -3.2992
    -3.2899  -3.2855  -3.2644  -3.2428  -3.2248  -3.1921  -3.1778  -3.1485
    -3.1362  -3.1016  -3.0549  -3.0336  -3.0269  -3.0168  -3.0033  -2.9824
    -2.9796  -2.9696  -2.9465  -2.8998  -2.8780  -2.8654  -2.8401  -2.8113
    -2.8000  -2.7798  -2.7243  -2.7113  -2.6987  -2.6921  -2.6778  -2.6606
    -2.6575  -2.6396  -2.6318  -2.6118  -2.5954  -2.5941  -2.5858  -2.5769
    -2.5567  -2.5485  -2.5295  -2.5193  -2.4989  -2.4901  -2.4808  -2.4438
    -2.4305  -2.4192  -2.3842  -2.3699  -2.3499  -2.3413  -2.3236  -2.3036
    -2.2863  -2.2838  -2.2659  -2.2556  -2.2187  -2.2081  -2.1885  -2.1828
    -2.1569  -2.1251  -2.1041  -2.0878  -2.0844  -2.0639  -2.0487  -2.0285
    -2.0164  -1.9902  -1.9767  -1.9582  -1.9329  -1.9157  -1.9090  -1.8822
    -1.8697  -1.8597  -1.8450  -1.8403  -1.8309  -1.7972  -1.7623  -1.7485
    -1.7384  -1.7173  -1.7012  -1.6901  -1.6685  -1.6503  -1.6019  -1.5915
    -1.5702  -1.5580  -1.5278  -1.5169  -1.4973  -1.4865  -1.4720  -1.4566
    -1.4350  -1.4316  -1.4098  -1.3804  -1.3728  -1.3517  -1.3220  -1.3039
    -1.2960  -1.2897  -1.2313  -1.2057  -1.1859  -1.1516  -1.1418  -1.1355
    -1.0773  -1.0696  -1.0000  -0.9687  -0.9427  -0.8212  -0.8119  -0.7702
    -0.7058  -0.6761  -0.6713  -0.4871  -0.3385  -0.2767  -0.2279  -0.1756
     0.1825   0.1939   0.2399   0.2507   0.2587   0.2673   0.2734   0.3005
     0.3377   0.3518   0.3822   0.3925   0.3959   0.3972   0.3992   0.4105
     0.4159   0.4245   0.4414   0.4462   0.4525   0.4635   0.4691   0.4726
     0.4746   0.4848   0.4938   0.5033   0.5135   0.5215   0.5276   0.5377
     0.5464   0.5523   0.5787   0.5840   0.5859   0.5878   0.5951   0.6060
     0.6160   0.6232   0.6368   0.6427   0.6504   0.6634   0.6706   0.6795
     0.6915   0.7048   0.7107   0.7179   0.7272   0.7342   0.7387   0.7536
     0.7642   0.7763   0.7923   0.7930   0.8082   0.8151   0.8171   0.8252
     0.8340   0.8490   0.8635   0.8678   0.8784   0.8890   0.9101   0.9433
     0.9527   0.9948   1.0064   1.0247   1.0359   1.1029   1.1690   1.2190
     1.7026   1.7697   1.7806   1.7877   1.8130   1.8180   1.8417   1.8628
     1.8909   1.9036   1.9201   1.9296   1.9578   1.9772   2.0156   2.0456
     2.0533   2.0693   2.0914   2.0956   2.1208   2.1270   2.1462   2.1663
     2.1870   2.2007   2.2122   2.2366   2.2424   2.2815   2.2949   2.3065
     2.3354   2.3378   2.3473   2.3635   2.3822   2.3864   2.4194   2.4346
     2.4570   2.4744   2.4851   2.5291   2.5362   2.5473   2.5806   2.6073
     2.6473   2.6551   2.7579   2.7822   2.8181   2.8381   2.8945   3.4949
     3.5709   3.6750   3.7197   3.7436   3.7694   3.7899   3.7948   3.9150
     3.9244   3.9508   3.9774   3.9882   3.9918   3.9995   4.0023   4.0555
     4.0632   4.0820   4.0889   4.1227   4.1512   4.1616   4.2071   4.2255
     4.2352   4.2436   4.2500   4.2679   4.3140   4.6044   4.6961   4.7809
     4.8096   4.8629   4.8956   4.9145   4.9775   4.9985   5.0242   5.0710
     5.1036   5.1092   5.1424   5.1774   5.2206   5.2325   5.3829   6.2067
     6.3410   6.4480   6.5316   6.6863   6.7089   6.7786   6.8463   6.9007
     6.9372   6.9899   7.0098   7.0545   7.2470   7.2946   7.3114   7.3696
     7.4100   7.4205   7.5108   7.5188   7.5618   7.6576   7.7031   7.7589
     7.8244   7.8395   7.9129   7.9338   7.9468   8.0067   8.0217   8.0706
     8.0825   8.1078   8.1210   8.1404   8.1752   8.2505   8.2788   8.2935
     8.3263   8.3471   8.3757   8.3864   8.3936   8.4279   8.4424   8.4493
     8.4684   8.4979   8.5056   8.5529   8.5706   8.6039   8.6112   8.6297
     8.6420

     the Fermi energy is     1.6943 ev

!    total energy              =   -8078.55370129 Ry
     estimated scf accuracy    <       0.00000059 Ry
     smearing contrib. (-TS)   =      -0.02585476 Ry
     internal energy E=F+TS    =   -8078.52784653 Ry

     The total energy is F=E-TS. E is the sum of the following terms:
     one-electron contribution =  -94602.77506102 Ry
     hartree contribution      =   47886.02437052 Ry
     xc contribution           =   -2177.37574442 Ry
     ewald contribution        =   40817.36684483 Ry
     Dispersion Correction     =      -1.76831639 Ry
     electric field correction =       0.00005995 Ry

     total magnetization       =    97.20 Bohr mag/cell
     absolute magnetization    =    98.40 Bohr mag/cell

     convergence has been achieved in  78 iterations

     negative rho (up, down):  1.156E-03 6.233E-04

     Forces acting on atoms (cartesian axes, Ry/au):

     atom    1 type  1   force =    -0.00033330   -0.00050062    0.00044041
     atom    2 type  1   force =     0.00000651    0.00019240   -0.00021760
     atom    3 type  2   force =    -0.00014795    0.00090977   -0.00032476
     atom    4 type  1   force =    -0.00026292    0.00015705    0.00026152
     atom    5 type  1   force =     0.00006842    0.00017167    0.00016491
     atom    6 type  1   force =    -0.00053020    0.00048010    0.00013002
     atom    7 type  1   force =    -0.00058534    0.00043924    0.00001433
     atom    8 type  2   force =     0.00043684    0.00034226    0.00014341
     atom    9 type  2   force =     0.00010957   -0.00003274    0.00017639
     atom   10 type  1   force =    -0.00005090   -0.00004977    0.00045877
     atom   11 type  1   force =     0.00106763   -0.00033705   -0.00014527
     atom   12 type  1   force =    -0.00050382    0.00001768    0.00034075
     atom   13 type  3   force =     0.00010240    0.00000633    0.00005151
     atom   14 type  3   force =    -0.00025157   -0.00042595    0.00011147
     atom   15 type  3   force =    -0.00041413    0.00021510    0.00036469
     atom   16 type  3   force =     0.00009355    0.00011390   -0.00005108
     atom   17 type  4   force =    -0.00006903    0.00017439    0.00011456
     atom   18 type  4   force =    -0.00043248   -0.00052550   -0.00015375
     atom   19 type  4   force =    -0.00038137   -0.00021701   -0.00077571
     atom   20 type  4   force =     0.00004886   -0.00029631   -0.00019740
     atom   21 type  4   force =     0.00005025    0.00010392   -0.00006106
     atom   22 type  4   force =    -0.00051386    0.00037868    0.00051128
     atom   23 type  4   force =     0.00042531    0.00005916    0.00051265
     atom   24 type  4   force =     0.00000035    0.00018238    0.00003607
     atom   25 type  4   force =     0.00025417    0.00026506    0.00013899
     atom   26 type  4   force =    -0.00001757   -0.00020291    0.00004694
     atom   27 type  4   force =    -0.00003198   -0.00005300    0.00027194
     atom   28 type  4   force =    -0.00036789   -0.00049703   -0.00045108
     atom   29 type  4   force =     0.00012694   -0.00015595    0.00006582
     atom   30 type  4   force =    -0.00020747   -0.00037389   -0.00043861
     atom   31 type  4   force =    -0.00013919    0.00012047    0.00035070
     atom   32 type  4   force =    -0.00003618    0.00031537    0.00008089
     atom   33 type  3   force =    -0.00045113    0.00015244    0.00001008
     atom   34 type  3   force =     0.00020895   -0.00007211    0.00010429
     atom   35 type  3   force =    -0.00089130   -0.00052109   -0.00008946
     atom   36 type  3   force =    -0.00013432   -0.00010630    0.00005718
     atom   37 type  4   force =    -0.00018319    0.00015584    0.00022247
     atom   38 type  4   force =    -0.00037995   -0.00047236   -0.00019820
     atom   39 type  4   force =     0.00003724   -0.00052787   -0.00002198
     atom   40 type  4   force =     0.00001309   -0.00033974    0.00009215
     atom   41 type  4   force =    -0.00009967    0.00017389    0.00014743
     atom   42 type  4   force =    -0.00025661    0.00051987   -0.00016930
     atom   43 type  4   force =     0.00086505    0.00055097    0.00037320
     atom   44 type  4   force =    -0.00024972    0.00007710    0.00020328
     atom   45 type  4   force =     0.00012261    0.00025904   -0.00007751
     atom   46 type  4   force =    -0.00017425   -0.00005136   -0.00017398
     atom   47 type  4   force =    -0.00008785   -0.00025352   -0.00015523
     atom   48 type  4   force =    -0.00017079   -0.00005231   -0.00004422
     atom   49 type  4   force =    -0.00028349    0.00024396    0.00016948
     atom   50 type  4   force =    -0.00021394   -0.00067045   -0.00014424
     atom   51 type  4   force =    -0.00020647    0.00010883    0.00018839
     atom   52 type  4   force =     0.00001445    0.00040220    0.00001710
     atom   53 type  1   force =    -0.00044591    0.00093616    0.00295800
     atom   54 type  1   force =     0.00088276    0.00050947   -0.00150132
     atom   55 type  2   force =     0.00159475    0.00127179    0.00590375
     atom   56 type  1   force =    -0.00074011   -0.00103444   -0.00120288
     atom   57 type  1   force =     0.00034800    0.00003051   -0.00003190
     atom   58 type  1   force =    -0.00009503    0.00032676    0.00012604
     atom   59 type  1   force =     0.00215983   -0.00097552   -0.00106535
     atom   60 type  2   force =    -0.00002259    0.00014279   -0.00186368
     atom   61 type  2   force =     0.00056292    0.00088987    0.00433355
     atom   62 type  1   force =    -0.00029909   -0.00083316   -0.00143023
     atom   63 type  1   force =    -0.00028232    0.00009336   -0.00011488
     atom   64 type  1   force =     0.00017384    0.00006055    0.00020513
     atom   65 type  3   force =    -0.00020663   -0.00101423   -0.00209371
     atom   66 type  3   force =    -0.00029452    0.00038872    0.00114102
     atom   67 type  3   force =    -0.00020207   -0.00151390    0.00160463
     atom   68 type  3   force =    -0.00071622    0.00082544   -0.00094324
     atom   69 type  4   force =    -0.00074454    0.00035938    0.00073904
     atom   70 type  4   force =     0.00056171   -0.00068511   -0.00113857
     atom   71 type  4   force =     0.00047314    0.00055239   -0.00037096
     atom   72 type  4   force =     0.00026765   -0.00052260    0.00166821
     atom   73 type  4   force =    -0.00082674    0.00065868    0.00164821
     atom   74 type  4   force =     0.00146407   -0.00264586   -0.00226328
     atom   75 type  4   force =    -0.00172600    0.00064522    0.00008377
     atom   76 type  4   force =     0.00011489   -0.00073710    0.00141604
     atom   77 type  4   force =    -0.00044645   -0.00001703    0.00059531
     atom   78 type  4   force =    -0.00096174    0.00060608   -0.00011176
     atom   79 type  4   force =     0.00019553    0.00024980    0.00062996
     atom   80 type  4   force =     0.00013209    0.00101143   -0.00020409
     atom   81 type  4   force =    -0.00038625   -0.00154271   -0.00100526
     atom   82 type  4   force =     0.00096236   -0.00154658    0.00081916
     atom   83 type  4   force =    -0.00010365    0.00083206    0.00037905
     atom   84 type  4   force =    -0.00048899    0.00028870    0.00054711
     atom   85 type  3   force =    -0.00028283   -0.00089814   -0.00263477
     atom   86 type  3   force =     0.00079124    0.00183453    0.00361021
     atom   87 type  3   force =    -0.00052893   -0.00061666   -0.00027580
     atom   88 type  3   force =    -0.00068217    0.00085709   -0.00079933
     atom   89 type  4   force =    -0.00012894   -0.00018882    0.00050382
     atom   90 type  4   force =    -0.00055247   -0.00035261   -0.00127439
     atom   91 type  4   force =     0.00033020    0.00029200   -0.00035096
     atom   92 type  4   force =     0.00041411   -0.00043735    0.00120302
     atom   93 type  4   force =    -0.00008968    0.00114239    0.00096800
     atom   94 type  4   force =     0.00174407    0.00075960    0.00321598
     atom   95 type  4   force =    -0.00032726    0.00001761   -0.00016028
     atom   96 type  4   force =    -0.00016644   -0.00030655    0.00109291
     atom   97 type  4   force =     0.00001976   -0.00052377    0.00072455
     atom   98 type  4   force =    -0.00038059    0.00051004   -0.00006152
     atom   99 type  4   force =     0.00056158   -0.00010563    0.00073785
     atom  100 type  4   force =     0.00072589    0.00068879   -0.00025189
     atom  101 type  4   force =    -0.00019627   -0.00082453   -0.00072642
     atom  102 type  4   force =     0.00134774   -0.00186702    0.00041703
     atom  103 type  4   force =     0.00040741    0.00034548    0.00029270
     atom  104 type  4   force =     0.00001458   -0.00054169   -0.00011117
     atom  105 type  1   force =    -0.00076821    0.00199756   -0.00678975
     atom  106 type  1   force =     0.02820750    0.01369530    0.02191421
     atom  107 type  2   force =     0.00163084    0.00023717   -0.01057125
     atom  108 type  1   force =    -0.03109607    0.02295588    0.01670372
     atom  109 type  1   force =     0.00402194   -0.00282161   -0.00346885
     atom  110 type  1   force =    -0.00134205   -0.00646508   -0.00556308
     atom  111 type  1   force =    -0.00373073    0.00244043   -0.00599029
     atom  112 type  2   force =     0.03231562    0.01652517   -0.01046236
     atom  113 type  2   force =     0.00154606    0.00099594   -0.01023549
     atom  114 type  1   force =    -0.03181849    0.02423417    0.01769542
     atom  115 type  1   force =     0.00360557   -0.00478986   -0.00446871
     atom  116 type  1   force =    -0.00486722   -0.00811178   -0.00671658
     atom  117 type  3   force =    -0.02899193   -0.03569124   -0.06276964
     atom  118 type  3   force =     0.00317819    0.00036785   -0.00692907
     atom  119 type  3   force =     0.00072364   -0.00066002   -0.00912577
     atom  120 type  3   force =     0.02796760   -0.05775799   -0.08374158
     atom  121 type  4   force =    -0.00654109   -0.00322414    0.03049412
     atom  122 type  4   force =    -0.00145842   -0.00109919    0.00254266
     atom  123 type  4   force =     0.00158815   -0.00099842    0.00480753
     atom  124 type  4   force =     0.00356029    0.00313006    0.03401132
     atom  125 type  4   force =    -0.00226161   -0.00226976    0.03407258
     atom  126 type  4   force =    -0.00088970    0.00072864    0.00304642
     atom  127 type  4   force =     0.00220882    0.00316659    0.00437130
     atom  128 type  4   force =    -0.00315874   -0.00170820    0.02230004
     atom  129 type  4   force =    -0.01247445    0.03641034    0.00493439
     atom  130 type  4   force =    -0.00145069    0.00028004    0.00234990
     atom  131 type  4   force =    -0.01946246    0.00356871    0.00991792
     atom  132 type  4   force =    -0.00114003    0.00354331    0.00432413
     atom  133 type  4   force =    -0.00284483    0.00063494    0.00239952
     atom  134 type  4   force =     0.00143004   -0.00442773    0.00351701
     atom  135 type  4   force =     0.01379052    0.02360301   -0.00092691
     atom  136 type  4   force =     0.01322233   -0.00064662    0.00237573
     atom  137 type  3   force =    -0.03819217   -0.04126794   -0.06618524
     atom  138 type  3   force =     0.00646580   -0.00301790   -0.00137773
     atom  139 type  3   force =     0.00028154   -0.00157209   -0.00938770
     atom  140 type  3   force =     0.02905375   -0.05119098   -0.08330281
     atom  141 type  4   force =    -0.00104280    0.00273703    0.02933584
     atom  142 type  4   force =     0.00043018    0.00239825   -0.00632449
     atom  143 type  4   force =     0.00163857   -0.00086093    0.00422270
     atom  144 type  4   force =     0.00423536    0.00180942    0.03461464
     atom  145 type  4   force =     0.00898457    0.00385555    0.03124896
     atom  146 type  4   force =    -0.00036078    0.00058723    0.00176927
     atom  147 type  4   force =     0.00271189    0.00346760    0.00399517
     atom  148 type  4   force =    -0.00395303   -0.00136492    0.02221298
     atom  149 type  4   force =    -0.00996038    0.03018673    0.00422814
     atom  150 type  4   force =    -0.00189686    0.00039369    0.00278517
     atom  151 type  4   force =    -0.01854003    0.00503497    0.00988662
     atom  152 type  4   force =    -0.00087751    0.00344336    0.00430683
     atom  153 type  4   force =    -0.00124499    0.00026111    0.00295561
     atom  154 type  4   force =     0.00210091   -0.00259785    0.00282746
     atom  155 type  4   force =     0.01474156    0.02462362    0.00014460
     atom  156 type  4   force =     0.02237883   -0.00365745    0.00142142
     atom  157 type  4   force =    -0.00376250   -0.00156421    0.00094925
     atom  158 type  5   force =     0.00318963    0.00250239   -0.00240431

     Total force =     0.237714     Total SCF correction =     0.003214
 
     init_run     :      9.75s CPU     10.45s WALL (       1 calls)
     electrons    :   1235.68s CPU   1289.73s WALL (       1 calls)
     forces       :      4.70s CPU      5.17s WALL (       1 calls)
     force_london :      0.11s CPU      0.12s WALL (       1 calls)

     Called by init_run:
     wfcinit      :      5.91s CPU      6.09s WALL (       1 calls)
     potinit      :      0.68s CPU      0.86s WALL (       1 calls)
     hinit0       :      1.64s CPU      1.76s WALL (       1 calls)

     Called by electrons:
     c_bands      :    969.54s CPU    997.11s WALL (      78 calls)
     sum_band     :    168.78s CPU    182.82s WALL (      78 calls)
     v_of_rho     :     23.16s CPU     24.34s WALL (      79 calls)
     newd         :     47.63s CPU     58.89s WALL (      79 calls)
     mix_rho      :     25.49s CPU     25.64s WALL (      78 calls)
     energy_londo :      0.12s CPU      0.12s WALL (       1 calls)

     Called by c_bands:
     init_us_2    :      2.84s CPU      2.91s WALL (     316 calls)
     init_us_2:cp :      2.84s CPU      2.91s WALL (     316 calls)
     regterg      :    949.97s CPU    977.25s WALL (     159 calls)

     Called by *egterg:
     rdiaghg      :    253.25s CPU    266.14s WALL (     553 calls)
     h_psi        :    397.12s CPU    403.86s WALL (     555 calls)
     s_psi        :     64.90s CPU     64.92s WALL (     555 calls)
     g_psi        :      0.48s CPU      0.49s WALL (     394 calls)

     Called by h_psi:
     h_psi:calbec :     92.01s CPU     97.40s WALL (     555 calls)
     vloc_psi     :    238.78s CPU    239.51s WALL (     555 calls)
     add_vuspsi   :     65.37s CPU     65.96s WALL (     555 calls)

     General routines
     calbec       :    136.91s CPU    145.13s WALL (     719 calls)
     fft          :     23.91s CPU     25.66s WALL (    1435 calls)
     ffts         :     15.88s CPU     15.93s WALL (    9707 calls)
     fftw         :    271.50s CPU    272.29s WALL (  270854 calls)
     interpolate  :      1.76s CPU      1.87s WALL (     158 calls)
 
     Parallel routines
 
     PWSCF        :  20m52.21s CPU  21m47.71s WALL

 
   This run was terminated on:   1:42:49  18Nov2025            

=------------------------------------------------------------------------------=
   JOB DONE.
=------------------------------------------------------------------------------=
